 Entering Gaussian System, Link 0=g16
 Initial command:
 /Applications/G16/g16/l1.exe "/Users/rustam/G16-scratch/Gau-29902.inp" -scrdir="/Users/rustam/G16-scratch/"
 Entering Link 1 = /Applications/G16/g16/l1.exe PID=     29903.
  
 Copyright (c) 1988,1990,1992,1993,1995,1998,2003,2009,2016,
            Gaussian, Inc.  All Rights Reserved.
  
 This is part of the Gaussian(R) 16 program.  It is based on
 the Gaussian(R) 09 system (copyright 2009, Gaussian, Inc.),
 the Gaussian(R) 03 system (copyright 2003, Gaussian, Inc.),
 the Gaussian(R) 98 system (copyright 1998, Gaussian, Inc.),
 the Gaussian(R) 94 system (copyright 1995, Gaussian, Inc.),
 the Gaussian 92(TM) system (copyright 1992, Gaussian, Inc.),
 the Gaussian 90(TM) system (copyright 1990, Gaussian, Inc.),
 the Gaussian 88(TM) system (copyright 1988, Gaussian, Inc.),
 the Gaussian 86(TM) system (copyright 1986, Carnegie Mellon
 University), and the Gaussian 82(TM) system (copyright 1983,
 Carnegie Mellon University). Gaussian is a federally registered
 trademark of Gaussian, Inc.
  
 This software contains proprietary and confidential information,
 including trade secrets, belonging to Gaussian, Inc.
  
 This software is provided under written license and may be
 used, copied, transmitted, or stored only in accord with that
 written license.
  
 The following legend is applicable only to US Government
 contracts under FAR:
  
                    RESTRICTED RIGHTS LEGEND
  
 Use, reproduction and disclosure by the US Government is
 subject to restrictions as set forth in subparagraphs (a)
 and (c) of the Commercial Computer Software - Restricted
 Rights clause in FAR 52.227-19.
  
 Gaussian, Inc.
 340 Quinnipiac St., Bldg. 40, Wallingford CT 06492
  
  
 ---------------------------------------------------------------
 Warning -- This program may not be used in any manner that
 competes with the business of Gaussian, Inc. or will provide
 assistance to any competitor of Gaussian, Inc.  The licensee
 of this program is prohibited from giving any competitor of
 Gaussian, Inc. access to this program.  By using this program,
 the user acknowledges that Gaussian, Inc. is engaged in the
 business of creating and licensing software in the field of
 computational chemistry and represents and warrants to the
 licensee that it is not a competitor of Gaussian, Inc. and that
 it will not use this program in any manner prohibited above.
 ---------------------------------------------------------------
  

 Cite this work as:
 Gaussian 16, Revision A.03,
 M. J. Frisch, G. W. Trucks, H. B. Schlegel, G. E. Scuseria, 
 M. A. Robb, J. R. Cheeseman, G. Scalmani, V. Barone, 
 G. A. Petersson, H. Nakatsuji, X. Li, M. Caricato, A. V. Marenich, 
 J. Bloino, B. G. Janesko, R. Gomperts, B. Mennucci, H. P. Hratchian, 
 J. V. Ortiz, A. F. Izmaylov, J. L. Sonnenberg, D. Williams-Young, 
 F. Ding, F. Lipparini, F. Egidi, J. Goings, B. Peng, A. Petrone, 
 T. Henderson, D. Ranasinghe, V. G. Zakrzewski, J. Gao, N. Rega, 
 G. Zheng, W. Liang, M. Hada, M. Ehara, K. Toyota, R. Fukuda, 
 J. Hasegawa, M. Ishida, T. Nakajima, Y. Honda, O. Kitao, H. Nakai, 
 T. Vreven, K. Throssell, J. A. Montgomery, Jr., J. E. Peralta, 
 F. Ogliaro, M. J. Bearpark, J. J. Heyd, E. N. Brothers, K. N. Kudin, 
 V. N. Staroverov, T. A. Keith, R. Kobayashi, J. Normand, 
 K. Raghavachari, A. P. Rendell, J. C. Burant, S. S. Iyengar, 
 J. Tomasi, M. Cossi, J. M. Millam, M. Klene, C. Adamo, R. Cammi, 
 J. W. Ochterski, R. L. Martin, K. Morokuma, O. Farkas, 
 J. B. Foresman, and D. J. Fox, Gaussian, Inc., Wallingford CT, 2016.
 
 ******************************************
 Gaussian 16:  EM64M-G16RevA.03 25-Dec-2016
                20-Jun-2019 
 ******************************************
 %chk=H2.chk
 ----------------------------------------------------------------------
 #p opt freq b3lyp/6-31g(d,p) scrf=(iefpcm,solvent=acetonitrile) empiri
 caldispersion=gd3
 ----------------------------------------------------------------------
 1/18=20,19=15,26=3,38=1/1,3;
 2/9=110,12=2,17=6,18=5,40=1/2;
 3/5=1,6=6,7=101,11=2,25=1,30=1,70=2201,71=1,72=2,74=-5,124=31/1,2,3;
 4//1;
 5/5=2,38=5,53=2/2;
 6/7=2,8=2,9=2,10=2,28=1/1;
 7//1,2,3,16;
 1/18=20,19=15,26=3/3(2);
 2/9=110/2;
 99//99;
 2/9=110/2;
 3/5=1,6=6,7=101,11=2,25=1,30=1,70=2205,71=1,72=2,74=-5,124=31/1,2,3;
 4/5=5,16=3,69=1/1;
 5/5=2,38=5,53=2/2;
 7//1,2,3,16;
 1/18=20,19=15,26=3/3(-5);
 2/9=110/2;
 6/7=2,8=2,9=2,10=2,19=2,28=1/1;
 99/9=1/99;
 Leave Link    1 at Thu Jun 20 17:21:40 2019, MaxMem=           0 cpu:               0.0 elap:               5.0
 (Enter /Applications/G16/g16/l101.exe)
 -------------------
 Title Card Required
 -------------------
 Symbolic Z-matrix:
 Charge =  0 Multiplicity = 1
 H                     0.14937  -0.89623   0. 
 H                     0.61605  -0.23627   1.1431 
 
 Add virtual bond connecting atoms H2         and H1         Dist= 2.65D+00.
 ITRead=  0  0
 MicOpt= -1 -1
 NAtoms=      2 NQM=        2 NQMF=       0 NMMI=      0 NMMIF=      0
                NMic=       0 NMicF=      0.
                    Isotopes and Nuclear Properties:
 (Nuclear quadrupole moments (NQMom) in fm**2, nuclear magnetic moments (NMagM)
  in nuclear magnetons)

  Atom         1           2
 IAtWgt=           1           1
 AtmWgt=   1.0078250   1.0078250
 NucSpn=           1           1
 AtZEff=  -0.0000000  -0.0000000
 NQMom=    0.0000000   0.0000000
 NMagM=    2.7928460   2.7928460
 AtZNuc=   1.0000000   1.0000000
 Leave Link  101 at Thu Jun 20 17:21:41 2019, MaxMem=   104857600 cpu:               0.2 elap:               0.2
 (Enter /Applications/G16/g16/l103.exe)

 GradGradGradGradGradGradGradGradGradGradGradGradGradGradGradGradGradGrad
 Berny optimization.
 Initialization pass.
                           ----------------------------
                           !    Initial Parameters    !
                           ! (Angstroms and Degrees)  !
 --------------------------                            --------------------------
 ! Name  Definition              Value          Derivative Info.                !
 --------------------------------------------------------------------------------
 ! R1    R(1,2)                  1.4            estimate D2E/DX2                !
 --------------------------------------------------------------------------------
 Trust Radius=3.00D-01 FncErr=1.00D-07 GrdErr=1.00D-06 EigMax=2.50D+02 EigMin=1.00D-04
 Number of steps in this run=     20 maximum allowed number of steps=    100.
 GradGradGradGradGradGradGradGradGradGradGradGradGradGradGradGradGradGrad

 Leave Link  103 at Thu Jun 20 17:21:41 2019, MaxMem=   104857600 cpu:               0.0 elap:               0.0
 (Enter /Applications/G16/g16/l202.exe)
                          Input orientation:                          
 ---------------------------------------------------------------------
 Center     Atomic      Atomic             Coordinates (Angstroms)
 Number     Number       Type             X           Y           Z
 ---------------------------------------------------------------------
      1          1           0        0.149371   -0.896226    0.000000
      2          1           0        0.616046   -0.236266    1.143095
 ---------------------------------------------------------------------
 Stoichiometry    H2
 Framework group  D*H[C*(H.H)]
 Deg. of freedom     1
 Full point group                 D*H     NOp   8
 Largest Abelian subgroup         D2H     NOp   8
 Largest concise Abelian subgroup C2      NOp   2
                         Standard orientation:                         
 ---------------------------------------------------------------------
 Center     Atomic      Atomic             Coordinates (Angstroms)
 Number     Number       Type             X           Y           Z
 ---------------------------------------------------------------------
      1          1           0       -0.000000    0.000000    0.700000
      2          1           0        0.000000   -0.000000   -0.700000
 ---------------------------------------------------------------------
 Rotational constants (GHZ):           0.0000000         511.6888804         511.6888804
 Leave Link  202 at Thu Jun 20 17:21:41 2019, MaxMem=   104857600 cpu:               0.0 elap:               0.0
 (Enter /Applications/G16/g16/l301.exe)
 Standard basis: 6-31G(d,p) (6D, 7F)
 Ernie: Thresh=  0.10000D-02 Tol=  0.10000D-05 Strict=F.
 There are     3 symmetry adapted cartesian basis functions of AG  symmetry.
 There are     0 symmetry adapted cartesian basis functions of B1G symmetry.
 There are     1 symmetry adapted cartesian basis functions of B2G symmetry.
 There are     1 symmetry adapted cartesian basis functions of B3G symmetry.
 There are     0 symmetry adapted cartesian basis functions of AU  symmetry.
 There are     3 symmetry adapted cartesian basis functions of B1U symmetry.
 There are     1 symmetry adapted cartesian basis functions of B2U symmetry.
 There are     1 symmetry adapted cartesian basis functions of B3U symmetry.
 There are     3 symmetry adapted basis functions of AG  symmetry.
 There are     0 symmetry adapted basis functions of B1G symmetry.
 There are     1 symmetry adapted basis functions of B2G symmetry.
 There are     1 symmetry adapted basis functions of B3G symmetry.
 There are     0 symmetry adapted basis functions of AU  symmetry.
 There are     3 symmetry adapted basis functions of B1U symmetry.
 There are     1 symmetry adapted basis functions of B2U symmetry.
 There are     1 symmetry adapted basis functions of B3U symmetry.
    10 basis functions,    14 primitive gaussians,    10 cartesian basis functions
     1 alpha electrons        1 beta electrons
       nuclear repulsion energy         0.3779837214 Hartrees.
 IExCor=  402 DFT=T Ex+Corr=B3LYP ExCW=0 ScaHFX=  0.200000
 ScaDFX=  0.800000  0.720000  1.000000  0.810000 ScalE2=  1.000000  1.000000
 IRadAn=      5 IRanWt=     -1 IRanGd=            0 ICorTp=0 IEmpDi=131
 NAtoms=    2 NActive=    2 NUniq=    1 SFac= 4.00D+00 NAtFMM=   60 NAOKFM=F Big=F
 Integral buffers will be    131072 words long.
 Raffenetti 2 integral format.
 Two-electron integral symmetry is turned on.
 R6Disp:  Grimme-D3 Dispersion energy=       -0.0000089761 Hartrees.
 Nuclear repulsion after empirical dispersion term =        0.3779747453 Hartrees.
 ------------------------------------------------------------------------------
 Polarizable Continuum Model (PCM)
 =================================
 Model                : PCM.
 Atomic radii         : UFF (Universal Force Field).
 Polarization charges : Total charges.
 Charge compensation  : None.
 Solution method      : On-the-fly selection.
 Cavity type          : Scaled VdW (van der Waals Surface) (Alpha=1.100).
 Cavity algorithm     : GePol (No added spheres)
                        Default sphere list used, NSphG=    2.
                        Lebedev-Laikov grids with approx.  5.0 points / Ang**2.
                        Smoothing algorithm: York/Karplus (Gamma=1.0000).
                        Polarization charges: spherical gaussians, with
                                              point-specific exponents (IZeta= 3).
                        Self-potential: point-specific (ISelfS= 7).
                        Self-field    : sphere-specific E.n sum rule (ISelfD= 2).
 1st derivatives      : Analytical E(r).r(x)/FMM algorithm (CHGder, D1EAlg=3).
                        Cavity 1st derivative terms included.
 Solvent              : Acetonitrile, Eps=  35.688000 Eps(inf)=   1.806874
 ------------------------------------------------------------------------------
 Spheres list:
 ISph  on   Nord     Re0    Alpha      Xe            Ye            Ze
    1   H      1    1.4430  1.100     -0.000000      0.000000      0.700000
    2   H      2    1.4430  1.100      0.000000     -0.000000     -0.700000
 ------------------------------------------------------------------------------
 GePol: Number of generator spheres                  =       2
 GePol: Total number of spheres                      =       2
 GePol: Number of exposed spheres                    =       2 (100.00%)
 GePol: Number of points                             =     266
 GePol: Average weight of points                     =       0.17
 GePol: Minimum weight of points                     =   0.15D-01
 GePol: Maximum weight of points                     =    0.20212
 GePol: Number of points with low weight             =       0
 GePol: Fraction of low-weight points (<1% of avg)   =       0.00%
 GePol: Cavity surface area                          =     45.231 Ang**2
 GePol: Cavity volume                                =     26.936 Ang**3
 Leave Link  301 at Thu Jun 20 17:21:41 2019, MaxMem=   104857600 cpu:               0.1 elap:               0.1
 (Enter /Applications/G16/g16/l302.exe)
 NPDir=0 NMtPBC=     1 NCelOv=     1 NCel=       1 NClECP=     1 NCelD=      1
         NCelK=      1 NCelE2=     1 NClLst=     1 CellRange=     0.0.
 One-electron integrals computed using PRISM.
 One-electron integral symmetry used in STVInt
 NBasis=    10 RedAO= T EigKep=  2.01D-01  NBF=     3     0     1     1     0     3     1     1
 NBsUse=    10 1.00D-06 EigRej= -1.00D+00 NBFU=     3     0     1     1     0     3     1     1
 Precomputing XC quadrature grid using
 IXCGrd= 4 IRadAn=           5 IRanWt=          -1 IRanGd=           0 AccXCQ= 0.00D+00.
 Generated NRdTot=       0 NPtTot=           0 NUsed=           0 NTot=          32
 NSgBfM=    10    10    10    10    10 MxSgAt=     2 MxSgA2=     2.
 Leave Link  302 at Thu Jun 20 17:21:41 2019, MaxMem=   104857600 cpu:               0.1 elap:               0.2
 (Enter /Applications/G16/g16/l303.exe)
 DipDrv:  MaxL=1.
 Leave Link  303 at Thu Jun 20 17:21:41 2019, MaxMem=   104857600 cpu:               0.0 elap:               0.1
 (Enter /Applications/G16/g16/l401.exe)
 ExpMin= 1.61D-01 ExpMax= 1.87D+01 ExpMxC= 1.87D+01 IAcc=3 IRadAn=         5 AccDes= 0.00D+00
 Harris functional with IExCor=  402 and IRadAn=       5 diagonalized for initial guess.
 HarFok:  IExCor=  402 AccDes= 0.00D+00 IRadAn=         5 IDoV= 1 UseB2=F ITyADJ=14
 ICtDFT=  3500011 ScaDFX=  1.000000  1.000000  1.000000  1.000000
 FoFCou: FMM=F IPFlag=           0 FMFlag=      100000 FMFlg1=           0
         NFxFlg=           0 DoJE=T BraDBF=F KetDBF=T FulRan=T
         wScrn=  0.000000 ICntrl=       500 IOpCl=  0 I1Cent=   200000004 NGrid=           0
         NMat0=    1 NMatS0=      1 NMatT0=    0 NMatD0=    1 NMtDS0=    0 NMtDT0=    0
 Petite list used in FoFCou.
 Harris En= -1.07683880197640    
 JPrj=0 DoOrth=F DoCkMO=F.
 Initial guess orbital symmetries:
       Occupied  (SGG)
       Virtual   (SGU) (SGU) (SGG) (SGG) (PIU) (PIU) (PIG) (PIG)
                 (SGU)
 The electronic state of the initial guess is 1-SGG.
 Leave Link  401 at Thu Jun 20 17:21:42 2019, MaxMem=   104857600 cpu:               0.1 elap:               0.2
 (Enter /Applications/G16/g16/l502.exe)
 Keep R1 ints in memory in symmetry-blocked form, NReq=1423536.
 FoFCou: FMM=F IPFlag=           0 FMFlag=           0 FMFlg1=           0
         NFxFlg=           0 DoJE=F BraDBF=F KetDBF=F FulRan=T
         wScrn=  0.000000 ICntrl=       600 IOpCl=  0 I1Cent=           0 NGrid=           0
         NMat0=    1 NMatS0=     55 NMatT0=    0 NMatD0=    1 NMtDS0=    0 NMtDT0=    0
 Petite list used in FoFCou.
 Closed shell SCF:
 Using DIIS extrapolation, IDIIS=  1040.
 NGot=   104857600 LenX=   104855088 LenY=   104854206
 Requested convergence on RMS density matrix=1.00D-08 within 128 cycles.
 Requested convergence on MAX density matrix=1.00D-06.
 Requested convergence on             energy=1.00D-06.
 No special actions if energy rises.

 Cycle   1  Pass 1  IDiag  1:
 Inv3:  Mode=1 IEnd=      212268.
 Iteration    1 A*A^-1 deviation from unit magnitude is 2.00D-15 for    257.
 Iteration    1 A*A^-1 deviation from orthogonality  is 1.00D-15 for    259    203.
 Iteration    1 A^-1*A deviation from unit magnitude is 1.78D-15 for     64.
 Iteration    1 A^-1*A deviation from orthogonality  is 1.05D-15 for    198     64.
 E= -1.07923154627729    
 DIIS: error= 1.00D-02 at cycle   1 NSaved=   1.
 NSaved= 1 IEnMin= 1 EnMin= -1.07923154627729     IErMin= 1 ErrMin= 1.00D-02
 ErrMax= 1.00D-02  0.00D+00 EMaxC= 1.00D-01 BMatC= 4.09D-04 BMatP= 4.09D-04
 IDIUse=3 WtCom= 9.00D-01 WtEn= 1.00D-01
 Coeff-Com:  0.100D+01
 Coeff-En:   0.100D+01
 Coeff:      0.100D+01
 Gap=     0.273 Goal=   None    Shift=    0.000
 GapD=    0.273 DampG=1.000 DampE=0.500 DampFc=0.5000 IDamp=-1.
 Damping current iteration by 5.00D-01
 RMSDP=2.73D-03 MaxDP=9.48D-03              OVMax= 1.78D-02

 Cycle   2  Pass 1  IDiag  1:
 E= -1.07958258114348     Delta-E=       -0.000351034866 Rises=F Damp=T
 DIIS: error= 4.78D-03 at cycle   2 NSaved=   2.
 NSaved= 2 IEnMin= 2 EnMin= -1.07958258114348     IErMin= 2 ErrMin= 4.78D-03
 ErrMax= 4.78D-03  0.00D+00 EMaxC= 1.00D-01 BMatC= 9.23D-05 BMatP= 4.09D-04
 IDIUse=3 WtCom= 9.52D-01 WtEn= 4.78D-02
 Coeff-Com: -0.899D+00 0.190D+01
 Coeff-En:   0.000D+00 0.100D+01
 Coeff:     -0.857D+00 0.186D+01
 Gap=     0.273 Goal=   None    Shift=    0.000
 RMSDP=1.24D-03 MaxDP=4.30D-03 DE=-3.51D-04 OVMax= 8.29D-04

 Cycle   3  Pass 1  IDiag  1:
 E= -1.07991811468012     Delta-E=       -0.000335533537 Rises=F Damp=F
 DIIS: error= 1.97D-05 at cycle   3 NSaved=   3.
 NSaved= 3 IEnMin= 3 EnMin= -1.07991811468012     IErMin= 3 ErrMin= 1.97D-05
 ErrMax= 1.97D-05  0.00D+00 EMaxC= 1.00D-01 BMatC= 1.77D-09 BMatP= 9.23D-05
 IDIUse=1 WtCom= 1.00D+00 WtEn= 0.00D+00
 Coeff-Com:  0.469D-01-0.100D+00 0.105D+01
 Coeff:      0.469D-01-0.100D+00 0.105D+01
 Gap=     0.273 Goal=   None    Shift=    0.000
 RMSDP=2.70D-06 MaxDP=7.17D-06 DE=-3.36D-04 OVMax= 1.18D-05

 Cycle   4  Pass 1  IDiag  1:
 E= -1.07991811661937     Delta-E=       -0.000000001939 Rises=F Damp=F
 DIIS: error= 4.51D-07 at cycle   4 NSaved=   4.
 NSaved= 4 IEnMin= 4 EnMin= -1.07991811661937     IErMin= 4 ErrMin= 4.51D-07
 ErrMax= 4.51D-07  0.00D+00 EMaxC= 1.00D-01 BMatC= 8.24D-13 BMatP= 1.77D-09
 IDIUse=1 WtCom= 1.00D+00 WtEn= 0.00D+00
 Coeff-Com: -0.366D-04 0.173D-03-0.931D-03 0.100D+01
 Coeff:     -0.366D-04 0.173D-03-0.931D-03 0.100D+01
 Gap=     0.273 Goal=   None    Shift=    0.000
 RMSDP=1.18D-07 MaxDP=4.11D-07 DE=-1.94D-09 OVMax= 7.64D-07

 Cycle   5  Pass 1  IDiag  1:
 E= -1.07991811662076     Delta-E=       -0.000000000001 Rises=F Damp=F
 DIIS: error= 1.36D-10 at cycle   5 NSaved=   5.
 NSaved= 5 IEnMin= 5 EnMin= -1.07991811662076     IErMin= 5 ErrMin= 1.36D-10
 ErrMax= 1.36D-10  0.00D+00 EMaxC= 1.00D-01 BMatC= 7.81D-20 BMatP= 8.24D-13
 IDIUse=1 WtCom= 1.00D+00 WtEn= 0.00D+00
 Large coefficients: NSaved=  5 BigCof=    0.00 CofMax=   10.00 Det= 3.09D-29
 Inversion failed.  Reducing to  4 matrices.
 Coeff-Com:  0.473D-09 0.667D-05 0.184D-03 0.100D+01
 Coeff:      0.473D-09 0.667D-05 0.184D-03 0.100D+01
 Gap=     0.273 Goal=   None    Shift=    0.000
 RMSDP=1.47D-11 MaxDP=3.50D-11 DE=-1.39D-12 OVMax= 6.26D-11

 Error on total polarization charges =  0.00844
 SCF Done:  E(RB3LYP) =  -1.07991811662     A.U. after    5 cycles
            NFock=  5  Conv=0.15D-10     -V/T= 2.2921
 KE= 8.358103296857D-01 PE=-2.735565211408D+00 EE= 4.418620197568D-01
 Leave Link  502 at Thu Jun 20 17:21:42 2019, MaxMem=   104857600 cpu:               0.4 elap:               0.5
 (Enter /Applications/G16/g16/l601.exe)
 Copying SCF densities to generalized density rwf, IOpCl= 0 IROHF=0.

 **********************************************************************

            Population analysis using the SCF density.

 **********************************************************************

 Orbital symmetries:
       Occupied  (SGG)
       Virtual   (SGU) (SGU) (SGG) (SGG) (PIU) (PIU) (PIG) (PIG)
                 (SGU)
 The electronic state is 1-SGG.
 Alpha  occ. eigenvalues --   -0.33868
 Alpha virt. eigenvalues --   -0.06586   0.78685   0.79799   1.67940   1.92672
 Alpha virt. eigenvalues --    1.92672   2.09922   2.09922   2.62361
          Condensed to atoms (all electrons):
               1          2
     1  H    0.710410   0.289590
     2  H    0.289590   0.710410
 Mulliken charges:
               1
     1  H   -0.000000
     2  H   -0.000000
 Sum of Mulliken charges =  -0.00000
 Mulliken charges with hydrogens summed into heavy atoms:
               1
 Electronic spatial extent (au):  <R**2>=              8.4193
 Charge=              0.0000 electrons
 Dipole moment (field-independent basis, Debye):
    X=             -0.0000    Y=              0.0000    Z=             -0.0000  Tot=              0.0000
 Quadrupole moment (field-independent basis, Debye-Ang):
   XX=             -2.6296   YY=             -2.6296   ZZ=             -1.3579
   XY=             -0.0000   XZ=             -0.0000   YZ=              0.0000
 Traceless Quadrupole moment (field-independent basis, Debye-Ang):
   XX=             -0.4239   YY=             -0.4239   ZZ=              0.8478
   XY=             -0.0000   XZ=             -0.0000   YZ=              0.0000
 Octapole moment (field-independent basis, Debye-Ang**2):
  XXX=             -0.0000  YYY=              0.0000  ZZZ=             -0.0000  XYY=             -0.0000
  XXY=              0.0000  XXZ=             -0.0000  XZZ=             -0.0000  YZZ=              0.0000
  YYZ=             -0.0000  XYZ=              0.0000
 Hexadecapole moment (field-independent basis, Debye-Ang**3):
 XXXX=             -2.8258 YYYY=             -2.8258 ZZZZ=             -7.3670 XXXY=              0.0000
 XXXZ=              0.0000 YYYX=              0.0000 YYYZ=             -0.0000 ZZZX=              0.0000
 ZZZY=             -0.0000 XXYY=             -0.9419 XXZZ=             -1.8209 YYZZ=             -1.8209
 XXYZ=             -0.0000 YYXZ=              0.0000 ZZXY=              0.0000
 N-N= 3.779747453444D-01 E-N=-2.735565211357D+00  KE= 8.358103296857D-01
 Symmetry AG   KE= 8.358103296857D-01
 Symmetry B1G  KE= 0.000000000000D+00
 Symmetry B2G  KE= 3.412912867742D-34
 Symmetry B3G  KE= 5.318818518627D-35
 Symmetry AU   KE= 0.000000000000D+00
 Symmetry B1U  KE= 1.423501228080D-32
 Symmetry B2U  KE= 8.335521398102D-35
 Symmetry B3U  KE= 1.249562803510D-34
 No NMR shielding tensors so no spin-rotation constants.
 Leave Link  601 at Thu Jun 20 17:21:42 2019, MaxMem=   104857600 cpu:               0.1 elap:               0.1
 (Enter /Applications/G16/g16/l701.exe)
 ... and contract with generalized density number  0.
 Compute integral first derivatives.
 R6Disp: Adding Grimme-D3 dispersion energy 1st derivatives to the gradient.
 D1PCM: PCM CHGder 1st derivatives, ID1Alg=3 FixD1E=F DoIter=F DoCFld=F I1PDM=0.
 GePol: Maximum number of non-zero 1st derivatives   =     149
 Leave Link  701 at Thu Jun 20 17:21:43 2019, MaxMem=   104857600 cpu:               0.2 elap:               0.3
 (Enter /Applications/G16/g16/l702.exe)
 L702 exits ... SP integral derivatives will be done elsewhere.
 Leave Link  702 at Thu Jun 20 17:21:43 2019, MaxMem=   104857600 cpu:               0.0 elap:               0.0
 (Enter /Applications/G16/g16/l703.exe)
 Integral derivatives from FoFJK, PRISM(SPDF).
 Compute integral first derivatives, UseDBF=F ICtDFT=           0.
 Calling FoFJK, ICntrl=      2127 FMM=F ISym2X=1 I1Cent= 0 IOpClX= 0 NMat=1 NMatS=1 NMatT=0.
 FoFJK:  IHMeth= 1 ICntrl=    2127 DoSepK=F KAlg= 0 I1Cent=           0 FoldK=F
 IRaf=         0 NMat=       1 IRICut=       1 DoRegI=T DoRafI=F ISym2E= 1 IDoP0=0 IntGTp=1.
 FoFCou: FMM=F IPFlag=           0 FMFlag=      100000 FMFlg1=         800
         NFxFlg=           0 DoJE=F BraDBF=F KetDBF=F FulRan=T
         wScrn=  0.000000 ICntrl=      2127 IOpCl=  0 I1Cent=           0 NGrid=           0
         NMat0=    1 NMatS0=      1 NMatT0=    0 NMatD0=    1 NMtDS0=    0 NMtDT0=    0
 Petite list used in FoFCou.
 Leave Link  703 at Thu Jun 20 17:21:43 2019, MaxMem=   104857600 cpu:               0.1 elap:               0.1
 (Enter /Applications/G16/g16/l716.exe)
 Dipole        =-1.97215226D-31 0.00000000D+00 0.00000000D+00
 ***** Axes restored to original set *****
 -------------------------------------------------------------------
 Center     Atomic                   Forces (Hartrees/Bohr)
 Number     Number              X              Y              Z
 -------------------------------------------------------------------
      1        1           0.030138258    0.042620803    0.073822090
      2        1          -0.030138258   -0.042620803   -0.073822090
 -------------------------------------------------------------------
 Cartesian Forces:  Max     0.073822090 RMS     0.052200091
 Leave Link  716 at Thu Jun 20 17:21:43 2019, MaxMem=   104857600 cpu:               0.0 elap:               0.0
 (Enter /Applications/G16/g16/l103.exe)

 GradGradGradGradGradGradGradGradGradGradGradGradGradGradGradGradGradGrad
 Berny optimization.
 FormGI is forming the generalized inverse of G from B-inverse, IUseBI=4.
 Internal  Forces:  Max     0.090413210 RMS     0.090413210
 Search for a local minimum.
 Step number   1 out of a maximum of   20
 All quantities printed in internal units (Hartrees-Bohrs-Radians)
 RMS Force = .90413D-01 SwitMx=.10000D-02 MixMth= 1
 Mixed Optimization -- RFO/linear search
 Second derivative matrix not updated -- first step.
 The second derivative matrix:
                          R1
           R1           0.07187
 ITU=  0
     Eigenvalues ---    0.07187
 RFO step:  Lambda=-6.13587190D-02 EMin= 7.18668206D-02
 Linear search not attempted -- first point.
 Maximum step size (   0.300) exceeded in Quadratic search.
    -- Step size scaled by   0.442
 Iteration  1 RMS(Cart)=  0.14142136 RMS(Int)=  0.10000000
 Iteration  2 RMS(Cart)=  0.07071068 RMS(Int)=  0.00000000
 Iteration  3 RMS(Cart)=  0.00000000 RMS(Int)=  0.00000000
 ITry= 1 IFail=0 DXMaxC= 1.22D-01 DCOld= 1.00D+10 DXMaxT= 3.00D-01 DXLimC= 3.00D+00 Rises=F
 ClnCor:  largest displacement from symmetrization is 2.22D-16 for atom     2.
 Variable       Old X    -DE/DX   Delta X   Delta X   Delta X     New X
                                 (Linear)    (Quad)   (Total)
    R1        2.64562  -0.09041   0.00000  -0.30000  -0.30000   2.34562
         Item               Value     Threshold  Converged?
 Maximum Force            0.090413     0.000450     NO 
 RMS     Force            0.090413     0.000300     NO 
 Maximum Displacement     0.122475     0.001800     NO 
 RMS     Displacement     0.212132     0.001200     NO 
 Predicted change in Energy=-2.388996D-02
 Lowest energy point so far.  Saving SCF results.
 GradGradGradGradGradGradGradGradGradGradGradGradGradGradGradGradGradGrad

 Leave Link  103 at Thu Jun 20 17:21:43 2019, MaxMem=   104857600 cpu:               0.0 elap:               0.0
 (Enter /Applications/G16/g16/l202.exe)
                          Input orientation:                          
 ---------------------------------------------------------------------
 Center     Atomic      Atomic             Coordinates (Angstroms)
 Number     Number       Type             X           Y           Z
 ---------------------------------------------------------------------
      1          1           0        0.175830   -0.858808    0.064811
      2          1           0        0.589587   -0.273684    1.078285
 ---------------------------------------------------------------------
 Stoichiometry    H2
 Framework group  D*H[C*(H.H)]
 Deg. of freedom     1
 Full point group                 D*H     NOp   8
 RotChk:  IX=0 Diff= 9.18D-16
 Largest Abelian subgroup         D2H     NOp   8
 Largest concise Abelian subgroup C2      NOp   2
                         Standard orientation:                         
 ---------------------------------------------------------------------
 Center     Atomic      Atomic             Coordinates (Angstroms)
 Number     Number       Type             X           Y           Z
 ---------------------------------------------------------------------
      1          1           0        0.000000    0.000000    0.620623
      2          1           0        0.000000    0.000000   -0.620623
 ---------------------------------------------------------------------
 Rotational constants (GHZ):           0.0000000         650.9471667         650.9471667
 Leave Link  202 at Thu Jun 20 17:21:43 2019, MaxMem=   104857600 cpu:               0.0 elap:               0.0
 (Enter /Applications/G16/g16/l301.exe)
 Standard basis: 6-31G(d,p) (6D, 7F)
 Ernie: Thresh=  0.10000D-02 Tol=  0.10000D-05 Strict=F.
 There are     3 symmetry adapted cartesian basis functions of AG  symmetry.
 There are     0 symmetry adapted cartesian basis functions of B1G symmetry.
 There are     1 symmetry adapted cartesian basis functions of B2G symmetry.
 There are     1 symmetry adapted cartesian basis functions of B3G symmetry.
 There are     0 symmetry adapted cartesian basis functions of AU  symmetry.
 There are     3 symmetry adapted cartesian basis functions of B1U symmetry.
 There are     1 symmetry adapted cartesian basis functions of B2U symmetry.
 There are     1 symmetry adapted cartesian basis functions of B3U symmetry.
 There are     3 symmetry adapted basis functions of AG  symmetry.
 There are     0 symmetry adapted basis functions of B1G symmetry.
 There are     1 symmetry adapted basis functions of B2G symmetry.
 There are     1 symmetry adapted basis functions of B3G symmetry.
 There are     0 symmetry adapted basis functions of AU  symmetry.
 There are     3 symmetry adapted basis functions of B1U symmetry.
 There are     1 symmetry adapted basis functions of B2U symmetry.
 There are     1 symmetry adapted basis functions of B3U symmetry.
    10 basis functions,    14 primitive gaussians,    10 cartesian basis functions
     1 alpha electrons        1 beta electrons
       nuclear repulsion energy         0.4263271368 Hartrees.
 IExCor=  402 DFT=T Ex+Corr=B3LYP ExCW=0 ScaHFX=  0.200000
 ScaDFX=  0.800000  0.720000  1.000000  0.810000 ScalE2=  1.000000  1.000000
 IRadAn=      5 IRanWt=     -1 IRanGd=            0 ICorTp=0 IEmpDi=131
 NAtoms=    2 NActive=    2 NUniq=    1 SFac= 4.00D+00 NAtFMM=   60 NAOKFM=F Big=F
 Integral buffers will be    131072 words long.
 Raffenetti 2 integral format.
 Two-electron integral symmetry is turned on.
 R6Disp:  Grimme-D3 Dispersion energy=       -0.0000034244 Hartrees.
 Nuclear repulsion after empirical dispersion term =        0.4263237124 Hartrees.
 ------------------------------------------------------------------------------
 Polarizable Continuum Model (PCM)
 =================================
 Model                : PCM.
 Atomic radii         : UFF (Universal Force Field).
 Polarization charges : Total charges.
 Charge compensation  : None.
 Solution method      : On-the-fly selection.
 Cavity type          : Scaled VdW (van der Waals Surface) (Alpha=1.100).
 Cavity algorithm     : GePol (No added spheres)
                        Default sphere list used, NSphG=    2.
                        Lebedev-Laikov grids with approx.  5.0 points / Ang**2.
                        Smoothing algorithm: York/Karplus (Gamma=1.0000).
                        Polarization charges: spherical gaussians, with
                                              point-specific exponents (IZeta= 3).
                        Self-potential: point-specific (ISelfS= 7).
                        Self-field    : sphere-specific E.n sum rule (ISelfD= 2).
 1st derivatives      : Analytical E(r).r(x)/FMM algorithm (CHGder, D1EAlg=3).
                        Cavity 1st derivative terms included.
 Solvent              : Acetonitrile, Eps=  35.688000 Eps(inf)=   1.806874
 ------------------------------------------------------------------------------
 Spheres list:
 ISph  on   Nord     Re0    Alpha      Xe            Ye            Ze
    1   H      1    1.4430  1.100     -0.000000      0.000000      0.620623
    2   H      2    1.4430  1.100      0.000000      0.000000     -0.620623
 ------------------------------------------------------------------------------
 GePol: Number of generator spheres                  =       2
 GePol: Total number of spheres                      =       2
 GePol: Number of exposed spheres                    =       2 (100.00%)
 GePol: Number of points                             =     266
 GePol: Average weight of points                     =       0.16
 GePol: Minimum weight of points                     =   0.63D-04
 GePol: Maximum weight of points                     =    0.20212
 GePol: Number of points with low weight             =      16
 GePol: Fraction of low-weight points (<1% of avg)   =       6.02%
 GePol: Cavity surface area                          =     43.772 Ang**2
 GePol: Cavity volume                                =     25.956 Ang**3
 Leave Link  301 at Thu Jun 20 17:21:43 2019, MaxMem=   104857600 cpu:               0.0 elap:               0.0
 (Enter /Applications/G16/g16/l302.exe)
 NPDir=0 NMtPBC=     1 NCelOv=     1 NCel=       1 NClECP=     1 NCelD=      1
         NCelK=      1 NCelE2=     1 NClLst=     1 CellRange=     0.0.
 One-electron integrals computed using PRISM.
 One-electron integral symmetry used in STVInt
 NBasis=    10 RedAO= T EigKep=  1.80D-01  NBF=     3     0     1     1     0     3     1     1
 NBsUse=    10 1.00D-06 EigRej= -1.00D+00 NBFU=     3     0     1     1     0     3     1     1
 Precomputing XC quadrature grid using
 IXCGrd= 4 IRadAn=           5 IRanWt=          -1 IRanGd=           0 AccXCQ= 0.00D+00.
 Generated NRdTot=       0 NPtTot=           0 NUsed=           0 NTot=          32
 NSgBfM=    10    10    10    10    10 MxSgAt=     2 MxSgA2=     2.
 Leave Link  302 at Thu Jun 20 17:21:43 2019, MaxMem=   104857600 cpu:               0.1 elap:               0.1
 (Enter /Applications/G16/g16/l303.exe)
 DipDrv:  MaxL=1.
 Leave Link  303 at Thu Jun 20 17:21:43 2019, MaxMem=   104857600 cpu:               0.0 elap:               0.0
 (Enter /Applications/G16/g16/l401.exe)
 Initial guess from the checkpoint file:  "H2.chk"
 B after Tr=    -0.000000    0.000000   -0.000000
         Rot=    1.000000   -0.000000   -0.000000   -0.000000 Ang=   0.00 deg.
 Guess basis will be translated and rotated to current coordinates.
 JPrj=2 DoOrth=T DoCkMO=T.
 Initial guess orbital symmetries:
       Occupied  (SGG)
       Virtual   (SGU) (SGU) (SGG) (SGG) (PIU) (PIU) (PIG) (PIG)
                 (SGU)
 The electronic state of the initial guess is 1-SGG.
 Generating alternative initial guess.
 ExpMin= 1.61D-01 ExpMax= 1.87D+01 ExpMxC= 1.87D+01 IAcc=2 IRadAn=         4 AccDes= 0.00D+00
 Harris functional with IExCor=  402 and IRadAn=       4 diagonalized for initial guess.
 HarFok:  IExCor=  402 AccDes= 0.00D+00 IRadAn=         4 IDoV= 1 UseB2=F ITyADJ=14
 ICtDFT=  3500011 ScaDFX=  1.000000  1.000000  1.000000  1.000000
 FoFCou: FMM=F IPFlag=           0 FMFlag=      100000 FMFlg1=           0
         NFxFlg=           0 DoJE=T BraDBF=F KetDBF=T FulRan=T
         wScrn=  0.000000 ICntrl=       500 IOpCl=  0 I1Cent=   200000004 NGrid=           0
         NMat0=    1 NMatS0=      1 NMatT0=    0 NMatD0=    1 NMtDS0=    0 NMtDT0=    0
 Petite list used in FoFCou.
 Harris En= -1.10446550880205    
 Leave Link  401 at Thu Jun 20 17:21:43 2019, MaxMem=   104857600 cpu:               0.1 elap:               0.1
 (Enter /Applications/G16/g16/l502.exe)
 Keep R1 ints in memory in symmetry-blocked form, NReq=1423536.
 FoFCou: FMM=F IPFlag=           0 FMFlag=           0 FMFlg1=           0
         NFxFlg=           0 DoJE=F BraDBF=F KetDBF=F FulRan=T
         wScrn=  0.000000 ICntrl=       600 IOpCl=  0 I1Cent=           0 NGrid=           0
         NMat0=    1 NMatS0=     55 NMatT0=    0 NMatD0=    1 NMtDS0=    0 NMtDT0=    0
 Petite list used in FoFCou.
 Closed shell SCF:
 Using DIIS extrapolation, IDIIS=  1040.
 NGot=   104857600 LenX=   104855088 LenY=   104854206
 Requested convergence on RMS density matrix=1.00D-08 within 128 cycles.
 Requested convergence on MAX density matrix=1.00D-06.
 Requested convergence on             energy=1.00D-06.
 No special actions if energy rises.

 Cycle   1  Pass 1  IDiag  1:
 Inv3:  Mode=1 IEnd=      212268.
 Iteration    1 A*A^-1 deviation from unit magnitude is 1.78D-15 for     75.
 Iteration    1 A*A^-1 deviation from orthogonality  is 1.14D-15 for    211    134.
 Iteration    1 A^-1*A deviation from unit magnitude is 1.67D-15 for     11.
 Iteration    1 A^-1*A deviation from orthogonality  is 7.77D-16 for    266    265.
 E= -1.10724962935028    
 DIIS: error= 1.02D-02 at cycle   1 NSaved=   1.
 NSaved= 1 IEnMin= 1 EnMin= -1.10724962935028     IErMin= 1 ErrMin= 1.02D-02
 ErrMax= 1.02D-02  0.00D+00 EMaxC= 1.00D-01 BMatC= 4.80D-04 BMatP= 4.80D-04
 IDIUse=3 WtCom= 8.98D-01 WtEn= 1.02D-01
 Coeff-Com:  0.100D+01
 Coeff-En:   0.100D+01
 Coeff:      0.100D+01
 Recover alternate guess density for next cycle.
 RMSDP=5.63D-03 MaxDP=1.93D-02              OVMax= 0.00D+00

 Cycle   2  Pass 1  IDiag  1:
 E= -1.10705560914518     Delta-E=        0.000194020205 Rises=F Damp=F
 Switch densities from cycles 1 and 2 for lowest energy.
 DIIS: error= 1.18D-02 at cycle   2 NSaved=   2.
 NSaved= 2 IEnMin= 1 EnMin= -1.10724962935028     IErMin= 1 ErrMin= 1.02D-02
 ErrMax= 1.18D-02  0.00D+00 EMaxC= 1.00D+00 BMatC= 5.87D-04 BMatP= 4.80D-04
 IDIUse=1 WtCom= 1.00D+00 WtEn= 0.00D+00
 Coeff-Com:  0.525D+00 0.475D+00
 Coeff:      0.525D+00 0.475D+00
 Gap=     0.329 Goal=   None    Shift=    0.000
 RMSDP=2.64D-03 MaxDP=9.19D-03 DE= 1.94D-04 OVMax= 1.80D-02

 Cycle   3  Pass 1  IDiag  1:
 E= -1.10804137729720     Delta-E=       -0.000985768152 Rises=F Damp=F
 DIIS: error= 2.42D-05 at cycle   3 NSaved=   3.
 NSaved= 3 IEnMin= 3 EnMin= -1.10804137729720     IErMin= 3 ErrMin= 2.42D-05
 ErrMax= 2.42D-05  0.00D+00 EMaxC= 1.00D+00 BMatC= 3.18D-09 BMatP= 4.80D-04
 IDIUse=1 WtCom= 1.00D+00 WtEn= 0.00D+00
 Coeff-Com: -0.143D-01-0.135D-01 0.103D+01
 Coeff:     -0.143D-01-0.135D-01 0.103D+01
 Gap=     0.323 Goal=   None    Shift=    0.000
 RMSDP=3.66D-06 MaxDP=1.10D-05 DE=-9.86D-04 OVMax= 1.51D-05

 Cycle   4  Pass 1  IDiag  1:
 E= -1.10804138079557     Delta-E=       -0.000000003498 Rises=F Damp=F
 DIIS: error= 4.83D-07 at cycle   4 NSaved=   4.
 NSaved= 4 IEnMin= 4 EnMin= -1.10804138079557     IErMin= 4 ErrMin= 4.83D-07
 ErrMax= 4.83D-07  0.00D+00 EMaxC= 1.00D+00 BMatC= 9.65D-13 BMatP= 3.18D-09
 IDIUse=1 WtCom= 1.00D+00 WtEn= 0.00D+00
 Coeff-Com:  0.846D-05-0.319D-04-0.142D-02 0.100D+01
 Coeff:      0.846D-05-0.319D-04-0.142D-02 0.100D+01
 Gap=     0.323 Goal=   None    Shift=    0.000
 RMSDP=1.22D-07 MaxDP=4.19D-07 DE=-3.50D-09 OVMax= 8.22D-07

 Cycle   5  Pass 1  IDiag  1:
 E= -1.10804138079719     Delta-E=       -0.000000000002 Rises=F Damp=F
 DIIS: error= 4.86D-10 at cycle   5 NSaved=   5.
 NSaved= 5 IEnMin= 5 EnMin= -1.10804138079719     IErMin= 5 ErrMin= 4.86D-10
 ErrMax= 4.86D-10  0.00D+00 EMaxC= 1.00D+00 BMatC= 9.75D-19 BMatP= 9.65D-13
 IDIUse=1 WtCom= 1.00D+00 WtEn= 0.00D+00
 Large coefficients: NSaved=  5 BigCof=    0.00 CofMax=   10.00 Det=-1.06D-28
 Inversion failed.  Reducing to  4 matrices.
 Coeff-Com: -0.574D-10-0.526D-05-0.854D-03 0.100D+01
 Coeff:     -0.574D-10-0.526D-05-0.854D-03 0.100D+01
 Gap=     0.323 Goal=   None    Shift=    0.000
 RMSDP=1.21D-10 MaxDP=4.15D-10 DE=-1.62D-12 OVMax= 7.84D-10

 Error on total polarization charges =  0.00772
 SCF Done:  E(RB3LYP) =  -1.10804138080     A.U. after    5 cycles
            NFock=  5  Conv=0.12D-09     -V/T= 2.2715
 KE= 8.714471091670D-01 PE=-2.879479525238D+00 EE= 4.736673228964D-01
 Leave Link  502 at Thu Jun 20 17:21:44 2019, MaxMem=   104857600 cpu:               0.3 elap:               0.3
 (Enter /Applications/G16/g16/l701.exe)
 ... and contract with generalized density number  0.
 Compute integral first derivatives.
 R6Disp: Adding Grimme-D3 dispersion energy 1st derivatives to the gradient.
 D1PCM: PCM CHGder 1st derivatives, ID1Alg=3 FixD1E=F DoIter=F DoCFld=F I1PDM=0.
 GePol: Maximum number of non-zero 1st derivatives   =     153
 Leave Link  701 at Thu Jun 20 17:21:44 2019, MaxMem=   104857600 cpu:               0.2 elap:               0.2
 (Enter /Applications/G16/g16/l702.exe)
 L702 exits ... SP integral derivatives will be done elsewhere.
 Leave Link  702 at Thu Jun 20 17:21:44 2019, MaxMem=   104857600 cpu:               0.0 elap:               0.0
 (Enter /Applications/G16/g16/l703.exe)
 Integral derivatives from FoFJK, PRISM(SPDF).
 Compute integral first derivatives, UseDBF=F ICtDFT=           0.
 Calling FoFJK, ICntrl=      2127 FMM=F ISym2X=1 I1Cent= 0 IOpClX= 0 NMat=1 NMatS=1 NMatT=0.
 FoFJK:  IHMeth= 1 ICntrl=    2127 DoSepK=F KAlg= 0 I1Cent=           0 FoldK=F
 IRaf=         0 NMat=       1 IRICut=       1 DoRegI=T DoRafI=F ISym2E= 1 IDoP0=0 IntGTp=1.
 FoFCou: FMM=F IPFlag=           0 FMFlag=      100000 FMFlg1=         800
         NFxFlg=           0 DoJE=F BraDBF=F KetDBF=F FulRan=T
         wScrn=  0.000000 ICntrl=      2127 IOpCl=  0 I1Cent=           0 NGrid=           0
         NMat0=    1 NMatS0=      1 NMatT0=    0 NMatD0=    1 NMtDS0=    0 NMtDT0=    0
 Petite list used in FoFCou.
 Leave Link  703 at Thu Jun 20 17:21:44 2019, MaxMem=   104857600 cpu:               0.1 elap:               0.1
 (Enter /Applications/G16/g16/l716.exe)
 Dipole        = 4.93038066D-32-2.40741243D-35-2.22044605D-16
 ***** Axes restored to original set *****
 -------------------------------------------------------------------
 Center     Atomic                   Forces (Hartrees/Bohr)
 Number     Number              X              Y              Z
 -------------------------------------------------------------------
      1        1           0.032097958    0.045392164    0.078622273
      2        1          -0.032097958   -0.045392164   -0.078622273
 -------------------------------------------------------------------
 Cartesian Forces:  Max     0.078622273 RMS     0.055594332
 Leave Link  716 at Thu Jun 20 17:21:44 2019, MaxMem=   104857600 cpu:               0.0 elap:               0.0
 (Enter /Applications/G16/g16/l103.exe)

 GradGradGradGradGradGradGradGradGradGradGradGradGradGradGradGradGradGrad
 Berny optimization.
 Using GEDIIS/GDIIS optimizer.
 Red2BG is reusing G-inverse.
 Internal  Forces:  Max     0.096292207 RMS     0.096292207
 Search for a local minimum.
 Step number   2 out of a maximum of   20
 All quantities printed in internal units (Hartrees-Bohrs-Radians)
 RMS Force = .96292D-01 SwitMx=.10000D-02 MixMth= 1
 Mixed Optimization -- RFO/linear search
 Update second derivatives using D2CorX and points    1    2
 DE= -2.81D-02 DEPred=-2.39D-02 R= 1.18D+00
 TightC=F SS=  1.41D+00  RLast= 3.00D-01 DXNew= 5.0454D-01 9.0000D-01
 Trust test= 1.18D+00 RLast= 3.00D-01 DXMaxT set to 5.05D-01
 The second derivative matrix:
                          R1
           R1          -0.01960
 ITU=  1  0
 Use linear search instead of GDIIS.
     Eigenvalues ---   -0.01960
 Eigenvalue     1 is  -1.96D-02 should be greater than     0.000000 Eigenvector:
                          R1
   1                    1.00000
 RFO step:  Lambda=-1.06587773D-01 EMin=-1.95966591D-02
 Skip linear search -- no minimum in search direction.
 Maximum step size (   0.505) exceeded in Quadratic search.
    -- Step size scaled by   0.505
 Iteration  1 RMS(Cart)=  0.14142136 RMS(Int)=  0.30453785
 Iteration  2 RMS(Cart)=  0.14142136 RMS(Int)=  0.10453785
 Iteration  3 RMS(Cart)=  0.07391942 RMS(Int)=  0.00000000
 Iteration  4 RMS(Cart)=  0.00000000 RMS(Int)=  0.00000000
 ITry= 1 IFail=0 DXMaxC= 2.06D-01 DCOld= 1.00D+10 DXMaxT= 5.05D-01 DXLimC= 3.00D+00 Rises=F
 ClnCor:  largest displacement from symmetrization is 4.58D-16 for atom     2.
 Variable       Old X    -DE/DX   Delta X   Delta X   Delta X     New X
                                 (Linear)    (Quad)   (Total)
    R1        2.34562  -0.09629   0.00000  -0.50454  -0.50454   1.84108
         Item               Value     Threshold  Converged?
 Maximum Force            0.096292     0.000450     NO 
 RMS     Force            0.096292     0.000300     NO 
 Maximum Displacement     0.205977     0.001800     NO 
 RMS     Displacement     0.356762     0.001200     NO 
 Predicted change in Energy=-5.107731D-02
 Lowest energy point so far.  Saving SCF results.
 GradGradGradGradGradGradGradGradGradGradGradGradGradGradGradGradGradGrad

 Leave Link  103 at Thu Jun 20 17:21:44 2019, MaxMem=   104857600 cpu:               0.0 elap:               0.0
 (Enter /Applications/G16/g16/l202.exe)
                          Input orientation:                          
 ---------------------------------------------------------------------
 Center     Atomic      Atomic             Coordinates (Angstroms)
 Number     Number       Type             X           Y           Z
 ---------------------------------------------------------------------
      1          1           0        0.220329   -0.795879    0.173809
      2          1           0        0.545087   -0.336614    0.969287
 ---------------------------------------------------------------------
 Stoichiometry    H2
 Framework group  D*H[C*(H.H)]
 Deg. of freedom     1
 Full point group                 D*H     NOp   8
 RotChk:  IX=0 Diff= 4.74D-16
 Largest Abelian subgroup         D2H     NOp   8
 Largest concise Abelian subgroup C2      NOp   2
                         Standard orientation:                         
 ---------------------------------------------------------------------
 Center     Atomic      Atomic             Coordinates (Angstroms)
 Number     Number       Type             X           Y           Z
 ---------------------------------------------------------------------
      1          1           0       -0.000000   -0.000000    0.487128
      2          1           0        0.000000   -0.000000   -0.487128
 ---------------------------------------------------------------------
 Rotational constants (GHZ):           0.0000000        1056.6108478        1056.6108478
 Leave Link  202 at Thu Jun 20 17:21:44 2019, MaxMem=   104857600 cpu:               0.0 elap:               0.0
 (Enter /Applications/G16/g16/l301.exe)
 Standard basis: 6-31G(d,p) (6D, 7F)
 Ernie: Thresh=  0.10000D-02 Tol=  0.10000D-05 Strict=F.
 There are     3 symmetry adapted cartesian basis functions of AG  symmetry.
 There are     0 symmetry adapted cartesian basis functions of B1G symmetry.
 There are     1 symmetry adapted cartesian basis functions of B2G symmetry.
 There are     1 symmetry adapted cartesian basis functions of B3G symmetry.
 There are     0 symmetry adapted cartesian basis functions of AU  symmetry.
 There are     3 symmetry adapted cartesian basis functions of B1U symmetry.
 There are     1 symmetry adapted cartesian basis functions of B2U symmetry.
 There are     1 symmetry adapted cartesian basis functions of B3U symmetry.
 There are     3 symmetry adapted basis functions of AG  symmetry.
 There are     0 symmetry adapted basis functions of B1G symmetry.
 There are     1 symmetry adapted basis functions of B2G symmetry.
 There are     1 symmetry adapted basis functions of B3G symmetry.
 There are     0 symmetry adapted basis functions of AU  symmetry.
 There are     3 symmetry adapted basis functions of B1U symmetry.
 There are     1 symmetry adapted basis functions of B2U symmetry.
 There are     1 symmetry adapted basis functions of B3U symmetry.
    10 basis functions,    14 primitive gaussians,    10 cartesian basis functions
     1 alpha electrons        1 beta electrons
       nuclear repulsion energy         0.5431598247 Hartrees.
 IExCor=  402 DFT=T Ex+Corr=B3LYP ExCW=0 ScaHFX=  0.200000
 ScaDFX=  0.800000  0.720000  1.000000  0.810000 ScalE2=  1.000000  1.000000
 IRadAn=      5 IRanWt=     -1 IRanGd=            0 ICorTp=0 IEmpDi=131
 NAtoms=    2 NActive=    2 NUniq=    1 SFac= 4.00D+00 NAtFMM=   60 NAOKFM=F Big=F
 Integral buffers will be    131072 words long.
 Raffenetti 2 integral format.
 Two-electron integral symmetry is turned on.
 R6Disp:  Grimme-D3 Dispersion energy=       -0.0000004771 Hartrees.
 Nuclear repulsion after empirical dispersion term =        0.5431593475 Hartrees.
 ------------------------------------------------------------------------------
 Polarizable Continuum Model (PCM)
 =================================
 Model                : PCM.
 Atomic radii         : UFF (Universal Force Field).
 Polarization charges : Total charges.
 Charge compensation  : None.
 Solution method      : On-the-fly selection.
 Cavity type          : Scaled VdW (van der Waals Surface) (Alpha=1.100).
 Cavity algorithm     : GePol (No added spheres)
                        Default sphere list used, NSphG=    2.
                        Lebedev-Laikov grids with approx.  5.0 points / Ang**2.
                        Smoothing algorithm: York/Karplus (Gamma=1.0000).
                        Polarization charges: spherical gaussians, with
                                              point-specific exponents (IZeta= 3).
                        Self-potential: point-specific (ISelfS= 7).
                        Self-field    : sphere-specific E.n sum rule (ISelfD= 2).
 1st derivatives      : Analytical E(r).r(x)/FMM algorithm (CHGder, D1EAlg=3).
                        Cavity 1st derivative terms included.
 Solvent              : Acetonitrile, Eps=  35.688000 Eps(inf)=   1.806874
 ------------------------------------------------------------------------------
 Spheres list:
 ISph  on   Nord     Re0    Alpha      Xe            Ye            Ze
    1   H      1    1.4430  1.100     -0.000000      0.000000      0.487128
    2   H      2    1.4430  1.100      0.000000     -0.000000     -0.487128
 ------------------------------------------------------------------------------
 GePol: Number of generator spheres                  =       2
 GePol: Total number of spheres                      =       2
 GePol: Number of exposed spheres                    =       2 (100.00%)
 GePol: Number of points                             =     250
 GePol: Average weight of points                     =       0.17
 GePol: Minimum weight of points                     =   0.83D-03
 GePol: Maximum weight of points                     =    0.20212
 GePol: Number of points with low weight             =      16
 GePol: Fraction of low-weight points (<1% of avg)   =       6.40%
 GePol: Cavity surface area                          =     41.574 Ang**2
 GePol: Cavity volume                                =     24.306 Ang**3
 Leave Link  301 at Thu Jun 20 17:21:44 2019, MaxMem=   104857600 cpu:               0.1 elap:               0.0
 (Enter /Applications/G16/g16/l302.exe)
 NPDir=0 NMtPBC=     1 NCelOv=     1 NCel=       1 NClECP=     1 NCelD=      1
         NCelK=      1 NCelE2=     1 NClLst=     1 CellRange=     0.0.
 One-electron integrals computed using PRISM.
 One-electron integral symmetry used in STVInt
 NBasis=    10 RedAO= T EigKep=  1.38D-01  NBF=     3     0     1     1     0     3     1     1
 NBsUse=    10 1.00D-06 EigRej= -1.00D+00 NBFU=     3     0     1     1     0     3     1     1
 Precomputing XC quadrature grid using
 IXCGrd= 4 IRadAn=           5 IRanWt=          -1 IRanGd=           0 AccXCQ= 0.00D+00.
 Generated NRdTot=       0 NPtTot=           0 NUsed=           0 NTot=          32
 NSgBfM=    10    10    10    10    10 MxSgAt=     2 MxSgA2=     2.
 Leave Link  302 at Thu Jun 20 17:21:44 2019, MaxMem=   104857600 cpu:               0.1 elap:               0.1
 (Enter /Applications/G16/g16/l303.exe)
 DipDrv:  MaxL=1.
 Leave Link  303 at Thu Jun 20 17:21:44 2019, MaxMem=   104857600 cpu:               0.0 elap:               0.0
 (Enter /Applications/G16/g16/l401.exe)
 Initial guess from the checkpoint file:  "H2.chk"
 B after Tr=     0.000000   -0.000000    0.000000
         Rot=    1.000000    0.000000   -0.000000    0.000000 Ang=   0.00 deg.
 Guess basis will be translated and rotated to current coordinates.
 JPrj=2 DoOrth=T DoCkMO=T.
 Initial guess orbital symmetries:
       Occupied  (SGG)
       Virtual   (SGU) (SGG) (SGU) (SGG) (PIU) (PIU) (PIG) (PIG)
                 (SGU)
 The electronic state of the initial guess is 1-SGG.
 Generating alternative initial guess.
 ExpMin= 1.61D-01 ExpMax= 1.87D+01 ExpMxC= 1.87D+01 IAcc=2 IRadAn=         4 AccDes= 0.00D+00
 Harris functional with IExCor=  402 and IRadAn=       4 diagonalized for initial guess.
 HarFok:  IExCor=  402 AccDes= 0.00D+00 IRadAn=         4 IDoV= 1 UseB2=F ITyADJ=14
 ICtDFT=  3500011 ScaDFX=  1.000000  1.000000  1.000000  1.000000
 FoFCou: FMM=F IPFlag=           0 FMFlag=      100000 FMFlg1=           0
         NFxFlg=           0 DoJE=T BraDBF=F KetDBF=T FulRan=T
         wScrn=  0.000000 ICntrl=       500 IOpCl=  0 I1Cent=   200000004 NGrid=           0
         NMat0=    1 NMatS0=      1 NMatT0=    0 NMatD0=    1 NMtDS0=    0 NMtDT0=    0
 Petite list used in FoFCou.
 Harris En= -1.15451919271520    
 Leave Link  401 at Thu Jun 20 17:21:44 2019, MaxMem=   104857600 cpu:               0.1 elap:               0.1
 (Enter /Applications/G16/g16/l502.exe)
 Keep R1 ints in memory in symmetry-blocked form, NReq=1422414.
 FoFCou: FMM=F IPFlag=           0 FMFlag=           0 FMFlg1=           0
         NFxFlg=           0 DoJE=F BraDBF=F KetDBF=F FulRan=T
         wScrn=  0.000000 ICntrl=       600 IOpCl=  0 I1Cent=           0 NGrid=           0
         NMat0=    1 NMatS0=     55 NMatT0=    0 NMatD0=    1 NMtDS0=    0 NMtDT0=    0
 Petite list used in FoFCou.
 Closed shell SCF:
 Using DIIS extrapolation, IDIIS=  1040.
 NGot=   104857600 LenX=   104855088 LenY=   104854206
 Requested convergence on RMS density matrix=1.00D-08 within 128 cycles.
 Requested convergence on MAX density matrix=1.00D-06.
 Requested convergence on             energy=1.00D-06.
 No special actions if energy rises.

 Cycle   1  Pass 1  IDiag  1:
 Inv3:  Mode=1 IEnd=      187500.
 Iteration    1 A*A^-1 deviation from unit magnitude is 2.22D-15 for     70.
 Iteration    1 A*A^-1 deviation from orthogonality  is 1.02D-15 for    247    159.
 Iteration    1 A^-1*A deviation from unit magnitude is 2.00D-15 for      9.
 Iteration    1 A^-1*A deviation from orthogonality  is 7.45D-16 for     79     35.
 E= -1.15168303475993    
 DIIS: error= 2.20D-02 at cycle   1 NSaved=   1.
 NSaved= 1 IEnMin= 1 EnMin= -1.15168303475993     IErMin= 1 ErrMin= 2.20D-02
 ErrMax= 2.20D-02  0.00D+00 EMaxC= 1.00D-01 BMatC= 2.26D-03 BMatP= 2.26D-03
 IDIUse=3 WtCom= 7.80D-01 WtEn= 2.20D-01
 Coeff-Com:  0.100D+01
 Coeff-En:   0.100D+01
 Coeff:      0.100D+01
 Recover alternate guess density for next cycle.
 RMSDP=9.52D-03 MaxDP=3.51D-02              OVMax= 0.00D+00

 Cycle   2  Pass 1  IDiag  1:
 E= -1.15317746510852     Delta-E=       -0.001494430349 Rises=F Damp=F
 DIIS: error= 1.65D-02 at cycle   2 NSaved=   2.
 NSaved= 2 IEnMin= 2 EnMin= -1.15317746510852     IErMin= 2 ErrMin= 1.65D-02
 ErrMax= 1.65D-02  0.00D+00 EMaxC= 1.00D-01 BMatC= 1.38D-03 BMatP= 2.26D-03
 IDIUse=3 WtCom= 8.35D-01 WtEn= 1.65D-01
 Coeff-Com:  0.438D+00 0.562D+00
 Coeff-En:   0.000D+00 0.100D+01
 Coeff:      0.366D+00 0.634D+00
 Gap=     0.476 Goal=   None    Shift=    0.000
 RMSDP=4.27D-03 MaxDP=1.63D-02 DE=-1.49D-03 OVMax= 3.93D-02

 Cycle   3  Pass 1  IDiag  1:
 E= -1.15549594583501     Delta-E=       -0.002318480726 Rises=F Damp=F
 DIIS: error= 3.64D-04 at cycle   3 NSaved=   3.
 NSaved= 3 IEnMin= 3 EnMin= -1.15549594583501     IErMin= 3 ErrMin= 3.64D-04
 ErrMax= 3.64D-04  0.00D+00 EMaxC= 1.00D-01 BMatC= 1.03D-06 BMatP= 1.38D-03
 IDIUse=3 WtCom= 9.96D-01 WtEn= 3.64D-03
 Coeff-Com:  0.700D-01 0.110D+00 0.820D+00
 Coeff-En:   0.000D+00 0.000D+00 0.100D+01
 Coeff:      0.698D-01 0.110D+00 0.820D+00
 Gap=     0.427 Goal=   None    Shift=    0.000
 RMSDP=9.65D-05 MaxDP=3.46D-04 DE=-2.32D-03 OVMax= 7.69D-04

 Cycle   4  Pass 1  IDiag  1:
 E= -1.15549751753530     Delta-E=       -0.000001571700 Rises=F Damp=F
 DIIS: error= 5.69D-06 at cycle   4 NSaved=   4.
 NSaved= 4 IEnMin= 4 EnMin= -1.15549751753530     IErMin= 4 ErrMin= 5.69D-06
 ErrMax= 5.69D-06  0.00D+00 EMaxC= 1.00D-01 BMatC= 1.48D-10 BMatP= 1.03D-06
 IDIUse=1 WtCom= 1.00D+00 WtEn= 0.00D+00
 Coeff-Com: -0.242D-03 0.472D-04 0.121D-02 0.999D+00
 Coeff:     -0.242D-03 0.472D-04 0.121D-02 0.999D+00
 Gap=     0.427 Goal=   None    Shift=    0.000
 RMSDP=1.39D-06 MaxDP=5.18D-06 DE=-1.57D-06 OVMax= 1.03D-05

 Cycle   5  Pass 1  IDiag  1:
 E= -1.15549751778540     Delta-E=       -0.000000000250 Rises=F Damp=F
 DIIS: error= 9.94D-09 at cycle   5 NSaved=   5.
 NSaved= 5 IEnMin= 5 EnMin= -1.15549751778540     IErMin= 5 ErrMin= 9.94D-09
 ErrMax= 9.94D-09  0.00D+00 EMaxC= 1.00D-01 BMatC= 4.16D-16 BMatP= 1.48D-10
 IDIUse=1 WtCom= 1.00D+00 WtEn= 0.00D+00
 Large coefficients: NSaved=  5 BigCof=    0.00 CofMax=   10.00 Det= 2.51D-26
 Inversion failed.  Reducing to  4 matrices.
 Coeff-Com:  0.197D-07-0.694D-05 0.222D-02 0.998D+00
 Coeff:      0.197D-07-0.694D-05 0.222D-02 0.998D+00
 Gap=     0.427 Goal=   None    Shift=    0.000
 RMSDP=2.34D-09 MaxDP=8.78D-09 DE=-2.50D-10 OVMax= 1.68D-08

 Error on total polarization charges =  0.00664
 SCF Done:  E(RB3LYP) =  -1.15549751779     A.U. after    5 cycles
            NFock=  5  Conv=0.23D-08     -V/T= 2.1821
 KE= 9.775213984619D-01 PE=-3.214788225334D+00 EE= 5.386099615703D-01
 Leave Link  502 at Thu Jun 20 17:21:45 2019, MaxMem=   104857600 cpu:               0.3 elap:               0.3
 (Enter /Applications/G16/g16/l701.exe)
 ... and contract with generalized density number  0.
 Compute integral first derivatives.
 R6Disp: Adding Grimme-D3 dispersion energy 1st derivatives to the gradient.
 D1PCM: PCM CHGder 1st derivatives, ID1Alg=3 FixD1E=F DoIter=F DoCFld=F I1PDM=0.
 GePol: Maximum number of non-zero 1st derivatives   =     149
 Leave Link  701 at Thu Jun 20 17:21:45 2019, MaxMem=   104857600 cpu:               0.2 elap:               0.2
 (Enter /Applications/G16/g16/l702.exe)
 L702 exits ... SP integral derivatives will be done elsewhere.
 Leave Link  702 at Thu Jun 20 17:21:45 2019, MaxMem=   104857600 cpu:               0.0 elap:               0.0
 (Enter /Applications/G16/g16/l703.exe)
 Integral derivatives from FoFJK, PRISM(SPDF).
 Compute integral first derivatives, UseDBF=F ICtDFT=           0.
 Calling FoFJK, ICntrl=      2127 FMM=F ISym2X=1 I1Cent= 0 IOpClX= 0 NMat=1 NMatS=1 NMatT=0.
 FoFJK:  IHMeth= 1 ICntrl=    2127 DoSepK=F KAlg= 0 I1Cent=           0 FoldK=F
 IRaf=         0 NMat=       1 IRICut=       1 DoRegI=T DoRafI=F ISym2E= 1 IDoP0=0 IntGTp=1.
 FoFCou: FMM=F IPFlag=           0 FMFlag=      100000 FMFlg1=         800
         NFxFlg=           0 DoJE=F BraDBF=F KetDBF=F FulRan=T
         wScrn=  0.000000 ICntrl=      2127 IOpCl=  0 I1Cent=           0 NGrid=           0
         NMat0=    1 NMatS0=      1 NMatT0=    0 NMatD0=    1 NMtDS0=    0 NMtDT0=    0
 Petite list used in FoFCou.
 Leave Link  703 at Thu Jun 20 17:21:45 2019, MaxMem=   104857600 cpu:               0.1 elap:               0.1
 (Enter /Applications/G16/g16/l716.exe)
 Dipole        =-1.47911420D-31 9.86076132D-32-1.11022302D-16
 ***** Axes restored to original set *****
 -------------------------------------------------------------------
 Center     Atomic                   Forces (Hartrees/Bohr)
 Number     Number              X              Y              Z
 -------------------------------------------------------------------
      1        1           0.028261287    0.039966436    0.069224549
      2        1          -0.028261287   -0.039966436   -0.069224549
 -------------------------------------------------------------------
 Cartesian Forces:  Max     0.069224549 RMS     0.048949139
 Leave Link  716 at Thu Jun 20 17:21:45 2019, MaxMem=   104857600 cpu:               0.0 elap:               0.0
 (Enter /Applications/G16/g16/l103.exe)

 GradGradGradGradGradGradGradGradGradGradGradGradGradGradGradGradGradGrad
 Berny optimization.
 Using GEDIIS/GDIIS optimizer.
 Red2BG is reusing G-inverse.
 Internal  Forces:  Max     0.084782395 RMS     0.084782395
 Search for a local minimum.
 Step number   3 out of a maximum of   20
 All quantities printed in internal units (Hartrees-Bohrs-Radians)
 RMS Force = .84782D-01 SwitMx=.10000D-02 MixMth= 1
 Mixed Optimization -- RFO/linear search
 Update second derivatives using D2CorX and points    2    3
 DE= -4.75D-02 DEPred=-5.11D-02 R= 9.29D-01
 TightC=F SS=  1.41D+00  RLast= 5.05D-01 DXNew= 8.4853D-01 1.5136D+00
 Trust test= 9.29D-01 RLast= 5.05D-01 DXMaxT set to 8.49D-01
 The second derivative matrix:
                          R1
           R1           0.02281
 ITU=  1  1
 Use linear search instead of GDIIS.
     Eigenvalues ---    0.02281
 RFO step:  Lambda=-7.41399412D-02 EMin= 2.28125841D-02
 Skip linear search -- no minimum in search direction.
 Maximum step size (   0.849) exceeded in Quadratic search.
    -- Step size scaled by   0.970
 Iteration  1 RMS(Cart)=  0.14142136 RMS(Int)=  0.64852814
 Iteration  2 RMS(Cart)=  0.14142136 RMS(Int)=  0.44852814
 Iteration  3 RMS(Cart)=  0.14142136 RMS(Int)=  0.24852814
 Iteration  4 RMS(Cart)=  0.14142136 RMS(Int)=  0.04852814
 Iteration  5 RMS(Cart)=  0.03431458 RMS(Int)=  0.00000000
 Iteration  6 RMS(Cart)=  0.00000000 RMS(Int)=  0.00000000
 ITry= 1 IFail=0 DXMaxC= 3.46D-01 DCOld= 1.00D+10 DXMaxT= 8.49D-01 DXLimC= 3.00D+00 Rises=F
 ClnCor:  largest displacement from symmetrization is 2.48D-16 for atom     2.
 Variable       Old X    -DE/DX   Delta X   Delta X   Delta X     New X
                                 (Linear)    (Quad)   (Total)
    R1        1.84108  -0.08478   0.00000  -0.84853  -0.84853   0.99255
         Item               Value     Threshold  Converged?
 Maximum Force            0.084782     0.000450     NO 
 RMS     Force            0.084782     0.000300     NO 
 Maximum Displacement     0.346410     0.001800     NO 
 RMS     Displacement     0.600000     0.001200     NO 
 Predicted change in Energy=-6.372772D-02
 Lowest energy point so far.  Saving SCF results.
 GradGradGradGradGradGradGradGradGradGradGradGradGradGradGradGradGradGrad

 Leave Link  103 at Thu Jun 20 17:21:45 2019, MaxMem=   104857600 cpu:               0.0 elap:               0.0
 (Enter /Applications/G16/g16/l202.exe)
                          Input orientation:                          
 ---------------------------------------------------------------------
 Center     Atomic      Atomic             Coordinates (Angstroms)
 Number     Number       Type             X           Y           Z
 ---------------------------------------------------------------------
      1          1           0        0.295168   -0.690044    0.357121
      2          1           0        0.470249   -0.442448    0.785974
 ---------------------------------------------------------------------
 Stoichiometry    H2
 Framework group  D*H[C*(H.H)]
 Deg. of freedom     1
 Full point group                 D*H     NOp   8
 RotChk:  IX=0 Diff= 1.40D-15
 Largest Abelian subgroup         D2H     NOp   8
 Largest concise Abelian subgroup C2      NOp   2
                         Standard orientation:                         
 ---------------------------------------------------------------------
 Center     Atomic      Atomic             Coordinates (Angstroms)
 Number     Number       Type             X           Y           Z
 ---------------------------------------------------------------------
      1          1           0        0.000000    0.000000    0.262618
      2          1           0        0.000000    0.000000   -0.262618
 ---------------------------------------------------------------------
 Rotational constants (GHZ):           0.0000000        3635.4190656        3635.4190656
 Leave Link  202 at Thu Jun 20 17:21:45 2019, MaxMem=   104857600 cpu:               0.0 elap:               0.0
 (Enter /Applications/G16/g16/l301.exe)
 Standard basis: 6-31G(d,p) (6D, 7F)
 Ernie: Thresh=  0.10000D-02 Tol=  0.10000D-05 Strict=F.
 There are     3 symmetry adapted cartesian basis functions of AG  symmetry.
 There are     0 symmetry adapted cartesian basis functions of B1G symmetry.
 There are     1 symmetry adapted cartesian basis functions of B2G symmetry.
 There are     1 symmetry adapted cartesian basis functions of B3G symmetry.
 There are     0 symmetry adapted cartesian basis functions of AU  symmetry.
 There are     3 symmetry adapted cartesian basis functions of B1U symmetry.
 There are     1 symmetry adapted cartesian basis functions of B2U symmetry.
 There are     1 symmetry adapted cartesian basis functions of B3U symmetry.
 There are     3 symmetry adapted basis functions of AG  symmetry.
 There are     0 symmetry adapted basis functions of B1G symmetry.
 There are     1 symmetry adapted basis functions of B2G symmetry.
 There are     1 symmetry adapted basis functions of B3G symmetry.
 There are     0 symmetry adapted basis functions of AU  symmetry.
 There are     3 symmetry adapted basis functions of B1U symmetry.
 There are     1 symmetry adapted basis functions of B2U symmetry.
 There are     1 symmetry adapted basis functions of B3U symmetry.
    10 basis functions,    14 primitive gaussians,    10 cartesian basis functions
     1 alpha electrons        1 beta electrons
       nuclear repulsion energy         1.0075053179 Hartrees.
 IExCor=  402 DFT=T Ex+Corr=B3LYP ExCW=0 ScaHFX=  0.200000
 ScaDFX=  0.800000  0.720000  1.000000  0.810000 ScalE2=  1.000000  1.000000
 IRadAn=      5 IRanWt=     -1 IRanGd=            0 ICorTp=0 IEmpDi=131
 NAtoms=    2 NActive=    2 NUniq=    1 SFac= 4.00D+00 NAtFMM=   60 NAOKFM=F Big=F
 Integral buffers will be    131072 words long.
 Raffenetti 2 integral format.
 Two-electron integral symmetry is turned on.
 R6Disp:  Grimme-D3 Dispersion energy=       -0.0000000015 Hartrees.
 Nuclear repulsion after empirical dispersion term =        1.0075053164 Hartrees.
 ------------------------------------------------------------------------------
 Polarizable Continuum Model (PCM)
 =================================
 Model                : PCM.
 Atomic radii         : UFF (Universal Force Field).
 Polarization charges : Total charges.
 Charge compensation  : None.
 Solution method      : On-the-fly selection.
 Cavity type          : Scaled VdW (van der Waals Surface) (Alpha=1.100).
 Cavity algorithm     : GePol (No added spheres)
                        Default sphere list used, NSphG=    2.
                        Lebedev-Laikov grids with approx.  5.0 points / Ang**2.
                        Smoothing algorithm: York/Karplus (Gamma=1.0000).
                        Polarization charges: spherical gaussians, with
                                              point-specific exponents (IZeta= 3).
                        Self-potential: point-specific (ISelfS= 7).
                        Self-field    : sphere-specific E.n sum rule (ISelfD= 2).
 1st derivatives      : Analytical E(r).r(x)/FMM algorithm (CHGder, D1EAlg=3).
                        Cavity 1st derivative terms included.
 Solvent              : Acetonitrile, Eps=  35.688000 Eps(inf)=   1.806874
 ------------------------------------------------------------------------------
 Spheres list:
 ISph  on   Nord     Re0    Alpha      Xe            Ye            Ze
    1   H      1    1.4430  1.100      0.000000      0.000000      0.262618
    2   H      2    1.4430  1.100      0.000000      0.000000     -0.262618
 ------------------------------------------------------------------------------
 GePol: Number of generator spheres                  =       2
 GePol: Total number of spheres                      =       2
 GePol: Number of exposed spheres                    =       2 (100.00%)
 GePol: Number of points                             =     250
 GePol: Average weight of points                     =       0.15
 GePol: Minimum weight of points                     =   0.28D-05
 GePol: Maximum weight of points                     =    0.20212
 GePol: Number of points with low weight             =      16
 GePol: Fraction of low-weight points (<1% of avg)   =       6.40%
 GePol: Cavity surface area                          =     36.925 Ang**2
 GePol: Cavity volume                                =     20.868 Ang**3
 Leave Link  301 at Thu Jun 20 17:21:45 2019, MaxMem=   104857600 cpu:               0.1 elap:               0.1
 (Enter /Applications/G16/g16/l302.exe)
 NPDir=0 NMtPBC=     1 NCelOv=     1 NCel=       1 NClECP=     1 NCelD=      1
         NCelK=      1 NCelE2=     1 NClLst=     1 CellRange=     0.0.
 One-electron integrals computed using PRISM.
 One-electron integral symmetry used in STVInt
 NBasis=    10 RedAO= T EigKep=  2.35D-02  NBF=     3     0     1     1     0     3     1     1
 NBsUse=    10 1.00D-06 EigRej= -1.00D+00 NBFU=     3     0     1     1     0     3     1     1
 Precomputing XC quadrature grid using
 IXCGrd= 4 IRadAn=           5 IRanWt=          -1 IRanGd=           0 AccXCQ= 0.00D+00.
 Generated NRdTot=       0 NPtTot=           0 NUsed=           0 NTot=          32
 NSgBfM=    10    10    10    10    10 MxSgAt=     2 MxSgA2=     2.
 Leave Link  302 at Thu Jun 20 17:21:45 2019, MaxMem=   104857600 cpu:               0.1 elap:               0.1
 (Enter /Applications/G16/g16/l303.exe)
 DipDrv:  MaxL=1.
 Leave Link  303 at Thu Jun 20 17:21:46 2019, MaxMem=   104857600 cpu:               0.0 elap:               0.0
 (Enter /Applications/G16/g16/l401.exe)
 Initial guess from the checkpoint file:  "H2.chk"
 B after Tr=    -0.000000    0.000000    0.000000
         Rot=    1.000000   -0.000000   -0.000000   -0.000000 Ang=   0.00 deg.
 Guess basis will be translated and rotated to current coordinates.
 JPrj=2 DoOrth=T DoCkMO=T.
 Initial guess orbital symmetries:
       Occupied  (SGG)
       Virtual   (SGU) (SGG) (SGU) (PIU) (PIU) (SGG) (PIG) (PIG)
                 (SGU)
 The electronic state of the initial guess is 1-SGG.
 Generating alternative initial guess.
 ExpMin= 1.61D-01 ExpMax= 1.87D+01 ExpMxC= 1.87D+01 IAcc=2 IRadAn=         4 AccDes= 0.00D+00
 Harris functional with IExCor=  402 and IRadAn=       4 diagonalized for initial guess.
 HarFok:  IExCor=  402 AccDes= 0.00D+00 IRadAn=         4 IDoV= 1 UseB2=F ITyADJ=14
 ICtDFT=  3500011 ScaDFX=  1.000000  1.000000  1.000000  1.000000
 FoFCou: FMM=F IPFlag=           0 FMFlag=      100000 FMFlg1=           0
         NFxFlg=           0 DoJE=T BraDBF=F KetDBF=T FulRan=T
         wScrn=  0.000000 ICntrl=       500 IOpCl=  0 I1Cent=   200000004 NGrid=           0
         NMat0=    1 NMatS0=      1 NMatT0=    0 NMatD0=    1 NMtDS0=    0 NMtDT0=    0
 Petite list used in FoFCou.
 Harris En= -1.15431026267740    
 Leave Link  401 at Thu Jun 20 17:21:46 2019, MaxMem=   104857600 cpu:               0.1 elap:               0.1
 (Enter /Applications/G16/g16/l502.exe)
 Keep R1 ints in memory in symmetry-blocked form, NReq=1422414.
 FoFCou: FMM=F IPFlag=           0 FMFlag=           0 FMFlg1=           0
         NFxFlg=           0 DoJE=F BraDBF=F KetDBF=F FulRan=T
         wScrn=  0.000000 ICntrl=       600 IOpCl=  0 I1Cent=           0 NGrid=           0
         NMat0=    1 NMatS0=     55 NMatT0=    0 NMatD0=    1 NMtDS0=    0 NMtDT0=    0
 Petite list used in FoFCou.
 Closed shell SCF:
 Using DIIS extrapolation, IDIIS=  1040.
 NGot=   104857600 LenX=   104855088 LenY=   104854206
 Requested convergence on RMS density matrix=1.00D-08 within 128 cycles.
 Requested convergence on MAX density matrix=1.00D-06.
 Requested convergence on             energy=1.00D-06.
 No special actions if energy rises.

 Cycle   1  Pass 1  IDiag  1:
 Inv3:  Mode=1 IEnd=      187500.
 Iteration    1 A*A^-1 deviation from unit magnitude is 2.55D-15 for      1.
 Iteration    1 A*A^-1 deviation from orthogonality  is 1.67D-15 for     85      1.
 Iteration    1 A^-1*A deviation from unit magnitude is 3.66D-15 for      1.
 Iteration    1 A^-1*A deviation from orthogonality  is 8.47D-16 for    245    197.
 E= -1.09470375477540    
 DIIS: error= 5.42D-02 at cycle   1 NSaved=   1.
 NSaved= 1 IEnMin= 1 EnMin= -1.09470375477540     IErMin= 1 ErrMin= 5.42D-02
 ErrMax= 5.42D-02  0.00D+00 EMaxC= 1.00D-01 BMatC= 1.82D-02 BMatP= 1.82D-02
 IDIUse=3 WtCom= 4.58D-01 WtEn= 5.42D-01
 Coeff-Com:  0.100D+01
 Coeff-En:   0.100D+01
 Coeff:      0.100D+01
 Recover alternate guess density for next cycle.
 RMSDP=1.99D-02 MaxDP=8.00D-02              OVMax= 0.00D+00

 Cycle   2  Pass 1  IDiag  1:
 E= -1.11138583470132     Delta-E=       -0.016682079926 Rises=F Damp=F
 DIIS: error= 3.97D-02 at cycle   2 NSaved=   2.
 NSaved= 2 IEnMin= 2 EnMin= -1.11138583470132     IErMin= 2 ErrMin= 3.97D-02
 ErrMax= 3.97D-02  0.00D+00 EMaxC= 1.00D-01 BMatC= 8.06D-03 BMatP= 1.82D-02
 IDIUse=3 WtCom= 6.03D-01 WtEn= 3.97D-01
 Coeff-Com:  0.399D+00 0.601D+00
 Coeff-En:   0.000D+00 0.100D+01
 Coeff:      0.241D+00 0.759D+00
 Gap=     0.963 Goal=   None    Shift=    0.000
 RMSDP=8.78D-03 MaxDP=3.60D-02 DE=-1.67D-02 OVMax= 1.04D-01

 Cycle   3  Pass 1  IDiag  1:
 E= -1.12401878206032     Delta-E=       -0.012632947359 Rises=F Damp=F
 DIIS: error= 3.68D-03 at cycle   3 NSaved=   3.
 NSaved= 3 IEnMin= 3 EnMin= -1.12401878206032     IErMin= 3 ErrMin= 3.68D-03
 ErrMax= 3.68D-03  0.00D+00 EMaxC= 1.00D-01 BMatC= 6.50D-05 BMatP= 8.06D-03
 IDIUse=3 WtCom= 9.63D-01 WtEn= 3.68D-02
 Coeff-Com:  0.183D-01 0.106D+00 0.876D+00
 Coeff-En:   0.000D+00 0.000D+00 0.100D+01
 Coeff:      0.176D-01 0.102D+00 0.881D+00
 Gap=     0.644 Goal=   None    Shift=    0.000
 RMSDP=6.69D-04 MaxDP=2.69D-03 DE=-1.26D-02 OVMax= 6.21D-03

 Cycle   4  Pass 1  IDiag  1:
 E= -1.12411517585731     Delta-E=       -0.000096393797 Rises=F Damp=F
 DIIS: error= 2.14D-05 at cycle   4 NSaved=   4.
 NSaved= 4 IEnMin= 4 EnMin= -1.12411517585731     IErMin= 4 ErrMin= 2.14D-05
 ErrMax= 2.14D-05  0.00D+00 EMaxC= 1.00D-01 BMatC= 3.40D-09 BMatP= 6.50D-05
 IDIUse=1 WtCom= 1.00D+00 WtEn= 0.00D+00
 Coeff-Com:  0.523D-03-0.615D-03-0.847D-02 0.101D+01
 Coeff:      0.523D-03-0.615D-03-0.847D-02 0.101D+01
 Gap=     0.644 Goal=   None    Shift=    0.000
 RMSDP=5.62D-06 MaxDP=2.32D-05 DE=-9.64D-05 OVMax= 4.89D-05

 Cycle   5  Pass 1  IDiag  1:
 E= -1.12411518154746     Delta-E=       -0.000000005690 Rises=F Damp=F
 DIIS: error= 3.85D-08 at cycle   5 NSaved=   5.
 NSaved= 5 IEnMin= 5 EnMin= -1.12411518154746     IErMin= 5 ErrMin= 3.85D-08
 ErrMax= 3.85D-08  0.00D+00 EMaxC= 1.00D-01 BMatC= 9.03D-15 BMatP= 3.40D-09
 IDIUse=1 WtCom= 1.00D+00 WtEn= 0.00D+00
 Large coefficients: NSaved=  5 BigCof=    0.00 CofMax=   10.00 Det=-1.01D-24
 Inversion failed.  Reducing to  4 matrices.
 Coeff-Com: -0.350D-07 0.411D-05-0.103D-02 0.100D+01
 Coeff:     -0.350D-07 0.411D-05-0.103D-02 0.100D+01
 Gap=     0.644 Goal=   None    Shift=    0.000
 RMSDP=8.78D-09 MaxDP=3.60D-08 DE=-5.69D-09 OVMax= 7.82D-08

 Error on total polarization charges =  0.00418
 SCF Done:  E(RB3LYP) =  -1.12411518155     A.U. after    5 cycles
            NFock=  5  Conv=0.88D-08     -V/T= 1.8042
 KE= 1.397796787099D+00 PE=-4.230520277342D+00 EE= 7.011029922787D-01
 Leave Link  502 at Thu Jun 20 17:21:46 2019, MaxMem=   104857600 cpu:               0.3 elap:               0.3
 (Enter /Applications/G16/g16/l701.exe)
 ... and contract with generalized density number  0.
 Compute integral first derivatives.
 R6Disp: Adding Grimme-D3 dispersion energy 1st derivatives to the gradient.
 D1PCM: PCM CHGder 1st derivatives, ID1Alg=3 FixD1E=F DoIter=F DoCFld=F I1PDM=0.
 GePol: Maximum number of non-zero 1st derivatives   =     173
 Leave Link  701 at Thu Jun 20 17:21:46 2019, MaxMem=   104857600 cpu:               0.2 elap:               0.2
 (Enter /Applications/G16/g16/l702.exe)
 L702 exits ... SP integral derivatives will be done elsewhere.
 Leave Link  702 at Thu Jun 20 17:21:46 2019, MaxMem=   104857600 cpu:               0.0 elap:               0.0
 (Enter /Applications/G16/g16/l703.exe)
 Integral derivatives from FoFJK, PRISM(SPDF).
 Compute integral first derivatives, UseDBF=F ICtDFT=           0.
 Calling FoFJK, ICntrl=      2127 FMM=F ISym2X=1 I1Cent= 0 IOpClX= 0 NMat=1 NMatS=1 NMatT=0.
 FoFJK:  IHMeth= 1 ICntrl=    2127 DoSepK=F KAlg= 0 I1Cent=           0 FoldK=F
 IRaf=         0 NMat=       1 IRICut=       1 DoRegI=T DoRafI=F ISym2E= 1 IDoP0=0 IntGTp=1.
 FoFCou: FMM=F IPFlag=           0 FMFlag=      100000 FMFlg1=         800
         NFxFlg=           0 DoJE=F BraDBF=F KetDBF=F FulRan=T
         wScrn=  0.000000 ICntrl=      2127 IOpCl=  0 I1Cent=           0 NGrid=           0
         NMat0=    1 NMatS0=      1 NMatT0=    0 NMatD0=    1 NMtDS0=    0 NMtDT0=    0
 Petite list used in FoFCou.
 Leave Link  703 at Thu Jun 20 17:21:46 2019, MaxMem=   104857600 cpu:               0.1 elap:               0.1
 (Enter /Applications/G16/g16/l716.exe)
 Dipole        = 0.00000000D+00 0.00000000D+00-5.55111512D-17
 ***** Axes restored to original set *****
 -------------------------------------------------------------------
 Center     Atomic                   Forces (Hartrees/Bohr)
 Number     Number              X              Y              Z
 -------------------------------------------------------------------
      1        1          -0.115161696   -0.162858915   -0.282082568
      2        1           0.115161696    0.162858915    0.282082568
 -------------------------------------------------------------------
 Cartesian Forces:  Max     0.282082568 RMS     0.199462459
 Leave Link  716 at Thu Jun 20 17:21:47 2019, MaxMem=   104857600 cpu:               0.0 elap:               0.0
 (Enter /Applications/G16/g16/l103.exe)

 GradGradGradGradGradGradGradGradGradGradGradGradGradGradGradGradGradGrad
 Berny optimization.
 Using GEDIIS/GDIIS optimizer.
 Red2BG is reusing G-inverse.
 Internal  Forces:  Max     0.345479113 RMS     0.345479113
 Search for a local minimum.
 Step number   4 out of a maximum of   20
 All quantities printed in internal units (Hartrees-Bohrs-Radians)
 RMS Force = .34548D+00 SwitMx=.10000D-02 MixMth= 1
 Mixed Optimization -- RFO/linear search
 Update second derivatives using D2CorX and points    4    3
 DE=  3.14D-02 DEPred=-6.37D-02 R=-4.92D-01
 Trust test=-4.92D-01 RLast= 8.49D-01 DXMaxT set to 4.24D-01
 The second derivative matrix:
                          R1
           R1           0.50707
 ITU= -1  1
 Use linear search instead of GDIIS.
     Eigenvalues ---    0.50707
 RFO step:  Lambda= 0.00000000D+00 EMin= 5.07068050D-01
 Quartic linear search produced a step of -0.47392.
 Iteration  1 RMS(Cart)=  0.14142136 RMS(Int)=  0.20213360
 Iteration  2 RMS(Cart)=  0.14142136 RMS(Int)=  0.00213360
 Iteration  3 RMS(Cart)=  0.00150868 RMS(Int)=  0.00000000
 Iteration  4 RMS(Cart)=  0.00000000 RMS(Int)=  0.00000000
 ITry= 1 IFail=0 DXMaxC= 1.64D-01 DCOld= 1.00D+10 DXMaxT= 4.24D-01 DXLimC= 3.00D+00 Rises=F
 ClnCor:  largest displacement from symmetrization is 0.00D+00 for atom     0.
 Variable       Old X    -DE/DX   Delta X   Delta X   Delta X     New X
                                 (Linear)    (Quad)   (Total)
    R1        0.99255   0.34548   0.40213   0.00000   0.40213   1.39468
         Item               Value     Threshold  Converged?
 Maximum Force            0.345479     0.000450     NO 
 RMS     Force            0.345479     0.000300     NO 
 Maximum Displacement     0.164170     0.001800     NO 
 RMS     Displacement     0.284351     0.001200     NO 
 Predicted change in Energy=-6.654707D-02
 GradGradGradGradGradGradGradGradGradGradGradGradGradGradGradGradGradGrad

 Leave Link  103 at Thu Jun 20 17:21:47 2019, MaxMem=   104857600 cpu:               0.0 elap:               0.0
 (Enter /Applications/G16/g16/l202.exe)
                          Input orientation:                          
 ---------------------------------------------------------------------
 Center     Atomic      Atomic             Coordinates (Angstroms)
 Number     Number       Type             X           Y           Z
 ---------------------------------------------------------------------
      1          1           0        0.259700   -0.740201    0.270246
      2          1           0        0.505716   -0.392291    0.872849
 ---------------------------------------------------------------------
 Stoichiometry    H2
 Framework group  D*H[C*(H.H)]
 Deg. of freedom     1
 Full point group                 D*H     NOp   8
[...]
 Iteration    1 A^-1*A deviation from orthogonality  is 9.19D-16 for     67     31.
 E= -1.17867106470291    
 DIIS: error= 1.50D-15 at cycle   1 NSaved=   1.
 NSaved= 1 IEnMin= 1 EnMin= -1.17867106470291     IErMin= 1 ErrMin= 1.50D-15
 ErrMax= 1.50D-15  0.00D+00 EMaxC= 1.00D-01 BMatC= 1.00D-29 BMatP= 1.00D-29
 IDIUse=1 WtCom= 1.00D+00 WtEn= 0.00D+00
 Coeff-Com:  0.100D+01
 Coeff:      0.100D+01
 Gap=     0.534 Goal=   None    Shift=    0.000
 Skip diagonalization as Alpha Fock matrix is already diagonal.
 RMSDP=0.00D+00 MaxDP=0.00D+00              OVMax= 0.00D+00

 Error on total polarization charges =  0.00547
 SCF Done:  E(RB3LYP) =  -1.17867106470     A.U. after    1 cycles
            NFock=  1  Conv=0.00D+00     -V/T= 2.0318
 KE= 1.142384360415D+00 PE=-3.644701264713D+00 EE= 6.115702923718D-01
 Leave Link  502 at Thu Jun 20 17:21:51 2019, MaxMem=   104857600 cpu:               0.2 elap:               0.2
 (Enter /Applications/G16/g16/l801.exe)
 DoSCS=F DFT=T ScalE2(SS,OS)=  1.000000  1.000000
 Range of M.O.s used for correlation:     1    10
 NBasis=    10 NAE=     1 NBE=     1 NFC=     0 NFV=     0
 NROrb=     10 NOA=     1 NOB=     1 NVA=     9 NVB=     9
 Leave Link  801 at Thu Jun 20 17:21:51 2019, MaxMem=   104857600 cpu:               0.0 elap:               0.1
 (Enter /Applications/G16/g16/l1101.exe)
 Using compressed storage, NAtomX=     2.
 Will process      3 centers per pass.
 R6Disp: Adding Grimme-D3 dispersion energy 1st derivatives to the gradient.
 Leave Link 1101 at Thu Jun 20 17:21:52 2019, MaxMem=   104857600 cpu:               0.1 elap:               0.1
 (Enter /Applications/G16/g16/l1102.exe)
 Symmetrizing basis deriv contribution to polar:
 IMax=3 JMax=2 DiffMx= 0.00D+00
 Leave Link 1102 at Thu Jun 20 17:21:52 2019, MaxMem=   104857600 cpu:               0.0 elap:               0.1
 (Enter /Applications/G16/g16/l1110.exe)
 Forming Gx(P) for the SCF density, NAtomX=     2.
 Integral derivatives from FoFJK, PRISM(SPDF).
 Do as many integral derivatives as possible in FoFJK.
 G2DrvN: MDV=     104857332.
 G2DrvN: will do     3 centers at a time, making    1 passes.
 Calling FoFCou, ICntrl=  3107 FMM=F I1Cent=   0 AccDes= 0.00D+00.
 FoFJK:  IHMeth= 1 ICntrl=    3107 DoSepK=F KAlg= 0 I1Cent=           0 FoldK=F
 IRaf=         0 NMat=       1 IRICut=       1 DoRegI=T DoRafI=F ISym2E= 1 IDoP0=0 IntGTp=1.
 FoFCou: FMM=F IPFlag=           0 FMFlag=      100000 FMFlg1=           0
         NFxFlg=           0 DoJE=F BraDBF=F KetDBF=F FulRan=T
         wScrn=  0.000000 ICntrl=      3107 IOpCl=  0 I1Cent=           0 NGrid=           0
         NMat0=    1 NMatS0=      1 NMatT0=    0 NMatD0=    1 NMtDS0=    0 NMtDT0=    0
 Petite list used in FoFCou.
 NEqPCM:  Using equilibrium solvation (IEInf=0, Eps=  35.6880, EpsInf=   1.8069)
 G2PCM: DoFxE=T DoFxN=T DoGrad=T DoDP/DQ/DG/TGxP=FFFF NFrqRd=   0 IEInf=0 SqF1=F DoCFld=F IF1Alg=4.
 GePol: Maximum number of non-zero 1st derivatives   =     141
 End of G2Drv F.D. properties file   721 does not exist.
 End of G2Drv F.D. properties file   722 does not exist.
 End of G2Drv F.D. properties file   788 does not exist.
 Leave Link 1110 at Thu Jun 20 17:21:53 2019, MaxMem=   104857600 cpu:               0.7 elap:               0.9
 (Enter /Applications/G16/g16/l1002.exe)
 Minotr:  Closed shell wavefunction.
          IDoAtm=11
 NEqPCM:  Using equilibrium solvation (IEInf=0, Eps=  35.6880, EpsInf=   1.8069)
          Direct CPHF calculation.
          Differentiating once with respect to electric field.
                with respect to dipole field.
          Differentiating once with respect to nuclear coordinates.
          Using symmetry in CPHF.
          Requested convergence is 1.0D-08 RMS, and 1.0D-07 maximum.
          Secondary convergence is 1.0D-12 RMS, and 1.0D-12 maximum.
          NewPWx=T KeepS1=F KeepF1=F KeepIn=T MapXYZ=F SortEE=F KeepMc=T.
          569 words used for storage of precomputed grid.
 Keep R1 ints in memory in symmetry-blocked form, NReq=1611616.
 FoFCou: FMM=F IPFlag=           0 FMFlag=           0 FMFlg1=           0
         NFxFlg=           0 DoJE=F BraDBF=F KetDBF=F FulRan=T
         wScrn=  0.000000 ICntrl=       600 IOpCl=  0 I1Cent=           0 NGrid=           0
         NMat0=    1 NMatS0=     55 NMatT0=    0 NMatD0=    1 NMtDS0=    0 NMtDT0=    0
 Petite list used in FoFCou.
          MDV=     104857600 using IRadAn=       1.
          Solving linear equations simultaneously, MaxMat=       0.
          There are     6 degrees of freedom in the 1st order CPHF.  IDoFFX=4 NUNeed=     6.
      6 vectors produced by pass  0 Test12= 1.50D-16 1.67D-08 XBig12= 3.61D+00 1.90D+00.
 AX will form     6 AO Fock derivatives at one time.
      2 vectors produced by pass  1 Test12= 1.50D-16 1.67D-08 XBig12= 4.42D-02 2.09D-01.
      1 vectors produced by pass  2 Test12= 1.50D-16 1.67D-08 XBig12= 1.05D-06 1.02D-03.
 InvSVY:  IOpt=1 It=  1 EMax= 5.55D-17
 Solved reduced A of dimension     9 with     6 vectors.
 FullF1:  Do perturbations      1 to       6.
 Isotropic polarizability for W=    0.000000        2.84 Bohr**3.
 End of Minotr F.D. properties file   721 does not exist.
 End of Minotr F.D. properties file   722 does not exist.
 End of Minotr F.D. properties file   788 does not exist.
 Leave Link 1002 at Thu Jun 20 17:21:53 2019, MaxMem=   104857600 cpu:               0.3 elap:               0.4
 (Enter /Applications/G16/g16/l601.exe)
 Copying SCF densities to generalized density rwf, IOpCl= 0 IROHF=0.

 **********************************************************************

            Population analysis using the SCF density.

 **********************************************************************

 Orbital symmetries:
       Occupied  (SGG)
       Virtual   (SGU) (SGG) (SGU) (PIU) (PIU) (SGG) (PIG) (PIG)
                 (SGU)
 The electronic state is 1-SGG.
 Alpha  occ. eigenvalues --   -0.43087
 Alpha virt. eigenvalues --    0.10316   0.57773   1.03749   1.67525   1.67525
 Alpha virt. eigenvalues --    2.37936   2.61606   2.61606   4.15239
          Condensed to atoms (all electrons):
               1          2
     1  H    0.589005   0.410995
     2  H    0.410995   0.589005
 Mulliken charges:
               1
     1  H   -0.000000
     2  H    0.000000
 Sum of Mulliken charges =  -0.00000
 Mulliken charges with hydrogens summed into heavy atoms:
               1
 APT charges:
               1
     1  H    0.000000
     2  H   -0.000000
 Sum of APT charges =   0.00000
 APT charges with hydrogens summed into heavy atoms:
               1
 Electronic spatial extent (au):  <R**2>=              5.1247
 Charge=              0.0000 electrons
 Dipole moment (field-independent basis, Debye):
    X=             -0.0000    Y=              0.0000    Z=             -0.0000  Tot=              0.0000
 Quadrupole moment (field-independent basis, Debye-Ang):
   XX=             -2.0298   YY=             -2.0298   ZZ=             -1.5071
   XY=             -0.0000   XZ=             -0.0000   YZ=              0.0000
 Traceless Quadrupole moment (field-independent basis, Debye-Ang):
   XX=             -0.1742   YY=             -0.1742   ZZ=              0.3485
   XY=             -0.0000   XZ=             -0.0000   YZ=              0.0000
 Octapole moment (field-independent basis, Debye-Ang**2):
  XXX=              0.0000  YYY=              0.0000  ZZZ=              0.0000  XYY=              0.0000
  XXY=              0.0000  XXZ=              0.0000  XZZ=              0.0000  YZZ=              0.0000
  YYZ=              0.0000  XYZ=              0.0000
 Hexadecapole moment (field-independent basis, Debye-Ang**3):
 XXXX=             -1.8769 YYYY=             -1.8769 ZZZZ=             -2.7695 XXXY=             -0.0000
 XXXZ=              0.0000 YYYX=             -0.0000 YYYZ=             -0.0000 ZZZX=              0.0000
 ZZZY=             -0.0000 XXYY=             -0.6256 XXZZ=             -0.7893 YYZZ=             -0.7893
 XXYZ=             -0.0000 YYXZ=              0.0000 ZZXY=             -0.0000
 N-N= 7.120755472230D-01 E-N=-3.644701264713D+00  KE= 1.142384360415D+00
 Symmetry AG   KE= 1.142384360415D+00
 Symmetry B1G  KE= 0.000000000000D+00
 Symmetry B2G  KE= 1.402528299861D-33
 Symmetry B3G  KE= 6.551525168315D-35
 Symmetry AU   KE= 0.000000000000D+00
 Symmetry B1U  KE= 4.950805857061D-32
 Symmetry B2U  KE= 3.433133426695D-34
 Symmetry B3U  KE= 1.396024664121D-34
  Exact polarizability:   0.592   0.000   0.592  -0.000   0.000   7.325
 Approx polarizability:   0.599  -0.000   0.599  -0.000   0.000   7.746
 No NMR shielding tensors so no spin-rotation constants.
 Leave Link  601 at Thu Jun 20 17:21:53 2019, MaxMem=   104857600 cpu:               0.1 elap:               0.1
 (Enter /Applications/G16/g16/l701.exe)
 ... and contract with generalized density number  0.
 Compute integral second derivatives.
 R6Disp: Adding Grimme-D3 dispersion energy 2nd derivatives to the Hessian.
 D2PCM: PCM CHGder 2nd derivatives, FixD1E=F FixD2E=F DoIter=F DoCFld=F I1PDM=0
 GePol: Maximum number of non-zero 2nd derivatives   =     141
 Leave Link  701 at Thu Jun 20 17:21:54 2019, MaxMem=   104857600 cpu:               0.6 elap:               0.6
 (Enter /Applications/G16/g16/l702.exe)
 L702 exits ... SP integral derivatives will be done elsewhere.
 Leave Link  702 at Thu Jun 20 17:21:54 2019, MaxMem=   104857600 cpu:               0.0 elap:               0.0
 (Enter /Applications/G16/g16/l703.exe)
 Integral derivatives from FoFJK, PRISM(SPDF).
 Compute integral second derivatives, UseDBF=F ICtDFT=           0.
 Calling FoFJK, ICntrl=    100127 FMM=F ISym2X=1 I1Cent= 0 IOpClX= 0 NMat=1 NMatS=1 NMatT=0.
 FoFJK:  IHMeth= 1 ICntrl=  100127 DoSepK=F KAlg= 0 I1Cent=           0 FoldK=F
 IRaf=         0 NMat=       1 IRICut=       1 DoRegI=T DoRafI=F ISym2E= 1 IDoP0=0 IntGTp=1.
 FoFCou: FMM=F IPFlag=           0 FMFlag=      100000 FMFlg1=         800
         NFxFlg=           0 DoJE=F BraDBF=F KetDBF=F FulRan=T
         wScrn=  0.000000 ICntrl=    100127 IOpCl=  0 I1Cent=           0 NGrid=           0
         NMat0=    1 NMatS0=      1 NMatT0=    0 NMatD0=    1 NMtDS0=    0 NMtDT0=    0
 Petite list used in FoFCou.
 Leave Link  703 at Thu Jun 20 17:21:54 2019, MaxMem=   104857600 cpu:               0.1 elap:               0.1
 (Enter /Applications/G16/g16/l716.exe)
 Dipole        =-1.23259516D-32 0.00000000D+00-1.11022302D-16
 Polarizability= 5.92063535D-01 2.46276208D-16 5.92063535D-01
                -1.50237679D-13 2.26104508D-13 7.32546849D+00
 Full mass-weighted force constant matrix:
 Low frequencies ---  -63.0661  -63.0661   -0.0001    0.0000    0.0001 4458.8127
 Diagonal vibrational polarizability:
        0.0000000       0.0000000       0.0000000
 Harmonic frequencies (cm**-1), IR intensities (KM/Mole), Raman scattering
 activities (A**4/AMU), depolarization ratios for plane and unpolarized
 incident light, reduced masses (AMU), force constants (mDyne/A),
 and normal coordinates:
                      1
                     SGG
 Frequencies --   4458.8127
 Red. masses --      1.0078
 Frc consts  --     11.8052
 IR Inten    --      0.0000
  Atom  AN      X      Y      Z
     1   1    -0.00   0.00   0.71
     2   1     0.00  -0.00  -0.71

 -------------------
 - Thermochemistry -
 -------------------
 Temperature   298.150 Kelvin.  Pressure   1.00000 Atm.
 Atom     1 has atomic number  1 and mass   1.00783
 Atom     2 has atomic number  1 and mass   1.00783
 Molecular mass:     2.01565 amu.
 Principal axes and moments of inertia in atomic units:
                           1         2         3
     Eigenvalues --     0.00000   0.99381   0.99381
           X           -0.00000   0.96152   0.27472
           Y            0.00000  -0.27472   0.96152
           Z            1.00000   0.00000   0.00000
 This molecule is a prolate symmetric top.
 Rotational symmetry number  2.
 Rotational temperature (Kelvin)     87.15348
 Rotational constant (GHZ):        1815.983759
 Zero-point vibrational energy      26669.6 (Joules/Mol)
                                    6.37419 (Kcal/Mol)
 Vibrational temperatures:   6415.24
          (Kelvin)
 
 Zero-point correction=                           0.010158 (Hartree/Particle)
 Thermal correction to Energy=                    0.012518
 Thermal correction to Enthalpy=                  0.013463
 Thermal correction to Gibbs Free Energy=        -0.001330
 Sum of electronic and zero-point Energies=             -1.168513
 Sum of electronic and thermal Energies=                -1.166153
 Sum of electronic and thermal Enthalpies=              -1.165208
 Sum of electronic and thermal Free Energies=           -1.180001
 
                     E (Thermal)             CV                S
                      KCal/Mol        Cal/Mol-Kelvin    Cal/Mol-Kelvin
 Total                    7.855              4.968             31.134
 Electronic               0.000              0.000              0.000
 Translational            0.889              2.981             28.080
 Rotational               0.592              1.987              3.054
 Vibrational              6.374              0.000              0.000
                       Q            Log10(Q)             Ln(Q)
 Total Bot       0.409148D+01          0.611881          1.408907
 Total V=0       0.192396D+06          5.284197         12.167312
 Vib (Bot)       0.212659D-04         -4.672316        -10.758405
 Vib (V=0)       0.100000D+01          0.000000          0.000000
 Electronic      0.100000D+01          0.000000          0.000000
 Translational   0.112480D+06          5.051077         11.630534
 Rotational      0.171049D+01          0.233120          0.536779
 ***** Axes restored to original set *****
 -------------------------------------------------------------------
 Center     Atomic                   Forces (Hartrees/Bohr)
 Number     Number              X              Y              Z
 -------------------------------------------------------------------
      1        1          -0.000000008   -0.000000011   -0.000000019
      2        1           0.000000008    0.000000011    0.000000019
 -------------------------------------------------------------------
 Cartesian Forces:  Max     0.000000019 RMS     0.000000014
 Force constants in Cartesian coordinates: 
                1             2             3             4             5 
      1  0.420593D-01
      2  0.595865D-01  0.841900D-01
      3  0.103208D+00  0.145954D+00  0.252726D+00
      4 -0.420593D-01 -0.595865D-01 -0.103208D+00  0.420593D-01
      5 -0.595865D-01 -0.841900D-01 -0.145954D+00  0.595865D-01  0.841900D-01
      6 -0.103208D+00 -0.145954D+00 -0.252726D+00  0.103208D+00  0.145954D+00
                6 
      6  0.252726D+00
 FormGI is forming the generalized inverse of G from B-inverse, IUseBI=4.
 Force constants in internal coordinates: 
                1 
      1  0.379127D+00
 Leave Link  716 at Thu Jun 20 17:21:54 2019, MaxMem=   104857600 cpu:               0.0 elap:               0.0
 (Enter /Applications/G16/g16/l103.exe)

 GradGradGradGradGradGradGradGradGradGradGradGradGradGradGradGradGradGrad
 Berny optimization.
 Red2BG is reusing G-inverse.
 Internal  Forces:  Max     0.000000023 RMS     0.000000023
 Search for a local minimum.
 Step number   1 out of a maximum of    2
 All quantities printed in internal units (Hartrees-Bohrs-Radians)
 Second derivative matrix not updated -- analytic derivatives used.
 The second derivative matrix:
                          R1
           R1           0.37913
 ITU=  0
     Eigenvalues ---    0.37913
 Angle between quadratic step and forces=  90.00 degrees.
 Linear search not attempted -- first point.
 Iteration  1 RMS(Cart)=  0.00000004 RMS(Int)=  0.00000000
 ITry= 1 IFail=0 DXMaxC= 2.53D-08 DCOld= 1.00D+10 DXMaxT= 3.00D-01 DXLimC= 3.00D+00 Rises=F
 ClnCor:  largest displacement from symmetrization is 4.58D-16 for atom     2.
 Variable       Old X    -DE/DX   Delta X   Delta X   Delta X     New X
                                 (Linear)    (Quad)   (Total)
    R1        1.40435   0.00000   0.00000   0.00000   0.00000   1.40435
         Item               Value     Threshold  Converged?
 Maximum Force            0.000000     0.000450     YES
 RMS     Force            0.000000     0.000300     YES
 Maximum Displacement     0.000000     0.001800     YES
 RMS     Displacement     0.000000     0.001200     YES
 Predicted change in Energy=-7.270371D-16
 Optimization completed.
    -- Stationary point found.
                           ----------------------------
                           !   Optimized Parameters   !
                           ! (Angstroms and Degrees)  !
 --------------------------                            --------------------------
 ! Name  Definition              Value          Derivative Info.                !
 --------------------------------------------------------------------------------
 ! R1    R(1,2)                  0.7431         -DE/DX =    0.0                 !
 --------------------------------------------------------------------------------
 GradGradGradGradGradGradGradGradGradGradGradGradGradGradGradGradGradGrad

 Leave Link  103 at Thu Jun 20 17:21:54 2019, MaxMem=   104857600 cpu:               0.0 elap:               0.0
 (Enter /Applications/G16/g16/l9999.exe)
 Dipole is zero, so no output in dipole orientation.

 ----------------------------------------------------------------------

 Electric dipole moment (input orientation):
 (Debye = 10**-18 statcoulomb cm , SI units = C m)
                  (au)            (Debye)         (10**-30 SI)
   Tot        0.000000D+00      0.000000D+00      0.000000D+00
   x          0.000000D+00      0.000000D+00      0.000000D+00
   y          0.000000D+00      0.000000D+00      0.000000D+00
   z          0.000000D+00      0.000000D+00      0.000000D+00

 Dipole polarizability, Alpha (input orientation).
 (esu units = cm**3 , SI units = C**2 m**2 J**-1)
 Alpha(0;0):
               (au)            (10**-24 esu)      (10**-40 SI)
   iso        0.283653D+01      0.420331D+00      0.467681D+00
   aniso      0.673340D+01      0.997788D+00      0.111019D+01
   xx         0.134025D+01      0.198604D+00      0.220977D+00
   yx         0.105806D+01      0.156788D+00      0.174451D+00
   yy         0.208835D+01      0.309461D+00      0.344322D+00
   zx         0.183263D+01      0.271568D+00      0.302160D+00
   zy         0.259167D+01      0.384045D+00      0.427308D+00
   zz         0.508100D+01      0.752927D+00      0.837744D+00

 ----------------------------------------------------------------------
 1\1\GINC-RUSTAMS-MACBOOK-AIR\Freq\RB3LYP\6-31G(d,p)\H2\RUSTAM\20-Jun-2
 019\0\\#P Geom=AllCheck Guess=TCheck SCRF=Check GenChk RB3LYP/6-31G(d,
 p) Freq\\Title Card Required\\0,1\H,0.2588483837,-0.7414062168,0.26815
 89442\H,0.5065685163,-0.3910863332,0.8749364858\\Version=EM64M-G16RevA
 .03\State=1-SGG\HF=-1.1786711\RMSD=0.000e+00\RMSF=1.356e-08\ZeroPoint=
 0.0101579\Thermal=0.0125184\Dipole=0.,0.,0.\DipoleDeriv=0.,0.,0.,0.,0.
 ,0.,0.,0.,0.,0.,0.,0.,0.,0.,0.,0.,0.,0.\Polar=1.3402455,1.0580611,2.08
 83482,1.8326328,2.5916654,5.0810019\Quadrupole=-0.0863563,-0.0431805,0
 .1295368,0.0610647,0.1057682,0.1495748\PG=D*H [C*(H1.H1)]\NImag=0\\0.0
 4205929,0.05958651,0.08418996,0.10320783,0.14595404,0.25272634,-0.0420
 5929,-0.05958651,-0.10320783,0.04205929,-0.05958651,-0.08418996,-0.145
 95404,0.05958651,0.08418996,-0.10320783,-0.14595404,-0.25272634,0.1032
 0783,0.14595404,0.25272634\\0.,0.00000001,0.00000002,0.,-0.00000001,-0
 .00000002\\\@


 This summer one third of the nation will be ill-housed
 ill-nourished and ill-clad. Only they call it a vacation.
 -- Jonas Salk
 Job cpu time:       0 days  0 hours  0 minutes  3.2 seconds.
 Elapsed time:       0 days  0 hours  0 minutes  3.3 seconds.
 File lengths (MBytes):  RWF=      6 Int=      0 D2E=      0 Chk=      2 Scr=      1
 Normal termination of Gaussian 16 at Thu Jun 20 17:21:54 2019.
