 Entering Gaussian System, Link 0=g16
 Initial command:
 /project/6004141/group/g16/g16/l1.exe "/scratch/rzk/Gau-99054.inp" -scrdir="/scratch/rzk/"
 Entering Link 1 = /project/6004141/group/g16/g16/l1.exe PID=     99055.
  
 Copyright (c) 1988,1990,1992,1993,1995,1998,2003,2009,2016,
            Gaussian, Inc.  All Rights Reserved.
  
 This is part of the Gaussian(R) 16 program.  It is based on
 the Gaussian(R) 09 system (copyright 2009, Gaussian, Inc.),
 the Gaussian(R) 03 system (copyright 2003, Gaussian, Inc.),
 the Gaussian(R) 98 system (copyright 1998, Gaussian, Inc.),
 the Gaussian(R) 94 system (copyright 1995, Gaussian, Inc.),
 the Gaussian 92(TM) system (copyright 1992, Gaussian, Inc.),
 the Gaussian 90(TM) system (copyright 1990, Gaussian, Inc.),
 the Gaussian 88(TM) system (copyright 1988, Gaussian, Inc.),
 the Gaussian 86(TM) system (copyright 1986, Carnegie Mellon
 University), and the Gaussian 82(TM) system (copyright 1983,
 Carnegie Mellon University). Gaussian is a federally registered
 trademark of Gaussian, Inc.
  
 This software contains proprietary and confidential information,
 including trade secrets, belonging to Gaussian, Inc.
  
 This software is provided under written license and may be
 used, copied, transmitted, or stored only in accord with that
 written license.
  
 The following legend is applicable only to US Government
 contracts under FAR:
  
                    RESTRICTED RIGHTS LEGEND
  
 Use, reproduction and disclosure by the US Government is
 subject to restrictions as set forth in subparagraphs (a)
 and (c) of the Commercial Computer Software - Restricted
 Rights clause in FAR 52.227-19.
  
 Gaussian, Inc.
 340 Quinnipiac St., Bldg. 40, Wallingford CT 06492
  
  
 ---------------------------------------------------------------
 Warning -- This program may not be used in any manner that
 competes with the business of Gaussian, Inc. or will provide
 assistance to any competitor of Gaussian, Inc.  The licensee
 of this program is prohibited from giving any competitor of
 Gaussian, Inc. access to this program.  By using this program,
 the user acknowledges that Gaussian, Inc. is engaged in the
 business of creating and licensing software in the field of
 computational chemistry and represents and warrants to the
 licensee that it is not a competitor of Gaussian, Inc. and that
 it will not use this program in any manner prohibited above.
 ---------------------------------------------------------------
  

 Cite this work as:
 Gaussian 16, Revision A.03,
 M. J. Frisch, G. W. Trucks, H. B. Schlegel, G. E. Scuseria, 
 M. A. Robb, J. R. Cheeseman, G. Scalmani, V. Barone, 
 G. A. Petersson, H. Nakatsuji, X. Li, M. Caricato, A. V. Marenich, 
 J. Bloino, B. G. Janesko, R. Gomperts, B. Mennucci, H. P. Hratchian, 
 J. V. Ortiz, A. F. Izmaylov, J. L. Sonnenberg, D. Williams-Young, 
 F. Ding, F. Lipparini, F. Egidi, J. Goings, B. Peng, A. Petrone, 
 T. Henderson, D. Ranasinghe, V. G. Zakrzewski, J. Gao, N. Rega, 
 G. Zheng, W. Liang, M. Hada, M. Ehara, K. Toyota, R. Fukuda, 
 J. Hasegawa, M. Ishida, T. Nakajima, Y. Honda, O. Kitao, H. Nakai, 
 T. Vreven, K. Throssell, J. A. Montgomery, Jr., J. E. Peralta, 
 F. Ogliaro, M. J. Bearpark, J. J. Heyd, E. N. Brothers, K. N. Kudin, 
 V. N. Staroverov, T. A. Keith, R. Kobayashi, J. Normand, 
 K. Raghavachari, A. P. Rendell, J. C. Burant, S. S. Iyengar, 
 J. Tomasi, M. Cossi, J. M. Millam, M. Klene, C. Adamo, R. Cammi, 
 J. W. Ochterski, R. L. Martin, K. Morokuma, O. Farkas, 
 J. B. Foresman, and D. J. Fox, Gaussian, Inc., Wallingford CT, 2016.
 
 ******************************************
 Gaussian 16:  ES64L-G16RevA.03 25-Dec-2016
                11-Jun-2019 
 ******************************************
 %NProcShared=40
 Will use up to   40 processors via shared memory.
 %chk=ABH.chk
 ----------------------------------------------------------------------
 #p opt rb3lyp/6-31g(d,p) scrf=(iefpcm,solvent=acetonitrile) empiricald
 ispersion=gd3
 ----------------------------------------------------------------------
 1/18=20,19=15,26=3,38=1/1,3;
 2/9=110,12=2,17=6,18=5,40=1/2;
 3/5=1,6=6,7=101,11=2,25=1,30=1,70=2201,71=1,72=2,74=-5,116=1,124=31/1,2,3;
 4//1;
 5/5=2,38=5,53=2/2;
 6/7=2,8=2,9=2,10=2,28=1/1;
 7//1,2,3,16;
 1/18=20,19=15,26=3/3(2);
 2/9=110/2;
 99//99;
 2/9=110/2;
 3/5=1,6=6,7=101,11=2,25=1,30=1,70=2205,71=1,72=2,74=-5,116=1,124=31/1,2,3;
 4/5=5,16=3,69=1/1;
 5/5=2,38=5,53=2/2;
 7//1,2,3,16;
 1/18=20,19=15,26=3/3(-5);
 2/9=110/2;
 6/7=2,8=2,9=2,10=2,19=2,28=1/1;
 99/9=1/99;
 Leave Link    1 at Tue Jun 11 10:39:22 2019, MaxMem=           0 cpu:              14.3 elap:               0.4
 (Enter /project/6004141/group/g16/g16/l101.exe)
 -------------------
 Title Card Required
 -------------------
 Symbolic Z-matrix:
 Charge =  0 Multiplicity = 1
 C                     1.20045   0.34167  -0.37442 
 H                     1.20815  -1.9145    1.3074 
 O                     1.77329  -0.60064  -1.19154 
 N                     1.80669  -0.09039   1.09473 
 H                     2.67769   0.4297    1.21849 
 N                     2.12369  -1.48212   1.13277 
 H                     2.04392  -1.29479  -0.52452 
 H                     1.15521   0.24096   1.81376 
 C                     1.6974    1.74481  -0.68532 
 H                     1.2558    2.09542  -1.62156 
 H                     1.44361   2.46055   0.10139 
 H                     2.78392   1.71955  -0.80417 
 C                    -0.3059    0.19385  -0.23119 
 C                    -0.92348  -0.98925  -0.65704 
 C                    -1.08651   1.17752   0.39647 
 C                    -2.29283  -1.18388  -0.4682 
 H                    -0.32191  -1.74298  -1.15128 
 C                    -2.45557   0.98305   0.58418 
 H                    -0.63385   2.10182   0.74137 
 C                    -3.06325  -0.19865   0.15256 
 H                    -2.7576   -2.10479  -0.80811 
 H                    -3.04697   1.75556   1.06661 
 H                    -4.12886  -0.3485    0.29808 
 
 ITRead=  0  0  0  0  0  0  0  0  0  0  0  0  0  0  0  0  0  0  0  0
 ITRead=  0  0  0
 MicOpt= -1 -1 -1 -1 -1 -1 -1 -1 -1 -1 -1 -1 -1 -1 -1 -1 -1 -1 -1 -1
 MicOpt= -1 -1 -1
 NAtoms=     23 NQM=       23 NQMF=       0 NMMI=      0 NMMIF=      0
                NMic=       0 NMicF=      0.
                    Isotopes and Nuclear Properties:
 (Nuclear quadrupole moments (NQMom) in fm**2, nuclear magnetic moments (NMagM)
  in nuclear magnetons)

  Atom         1           2           3           4           5           6           7           8           9          10
 IAtWgt=          12           1          16          14           1          14           1           1          12           1
 AtmWgt=  12.0000000   1.0078250  15.9949146  14.0030740   1.0078250  14.0030740   1.0078250   1.0078250  12.0000000   1.0078250
 NucSpn=           0           1           0           2           1           2           1           1           0           1
 AtZEff=  -0.0000000  -0.0000000  -0.0000000  -0.0000000  -0.0000000  -0.0000000  -0.0000000  -0.0000000  -0.0000000  -0.0000000
 NQMom=    0.0000000   0.0000000   0.0000000   2.0440000   0.0000000   2.0440000   0.0000000   0.0000000   0.0000000   0.0000000
 NMagM=    0.0000000   2.7928460   0.0000000   0.4037610   2.7928460   0.4037610   2.7928460   2.7928460   0.0000000   2.7928460
 AtZNuc=   6.0000000   1.0000000   8.0000000   7.0000000   1.0000000   7.0000000   1.0000000   1.0000000   6.0000000   1.0000000

  Atom        11          12          13          14          15          16          17          18          19          20
 IAtWgt=           1           1          12          12          12          12           1          12           1          12
 AtmWgt=   1.0078250   1.0078250  12.0000000  12.0000000  12.0000000  12.0000000   1.0078250  12.0000000   1.0078250  12.0000000
 NucSpn=           1           1           0           0           0           0           1           0           1           0
 AtZEff=  -0.0000000  -0.0000000  -0.0000000  -0.0000000  -0.0000000  -0.0000000  -0.0000000  -0.0000000  -0.0000000  -0.0000000
 NQMom=    0.0000000   0.0000000   0.0000000   0.0000000   0.0000000   0.0000000   0.0000000   0.0000000   0.0000000   0.0000000
 NMagM=    2.7928460   2.7928460   0.0000000   0.0000000   0.0000000   0.0000000   2.7928460   0.0000000   2.7928460   0.0000000
 AtZNuc=   1.0000000   1.0000000   6.0000000   6.0000000   6.0000000   6.0000000   1.0000000   6.0000000   1.0000000   6.0000000

  Atom        21          22          23
 IAtWgt=           1           1           1
 AtmWgt=   1.0078250   1.0078250   1.0078250
 NucSpn=           1           1           1
 AtZEff=  -0.0000000  -0.0000000  -0.0000000
 NQMom=    0.0000000   0.0000000   0.0000000
 NMagM=    2.7928460   2.7928460   2.7928460
 AtZNuc=   1.0000000   1.0000000   1.0000000
 Leave Link  101 at Tue Jun 11 10:39:23 2019, MaxMem=   104857600 cpu:               7.3 elap:               0.2
 (Enter /project/6004141/group/g16/g16/l103.exe)

 GradGradGradGradGradGradGradGradGradGradGradGradGradGradGradGradGradGrad
 Berny optimization.
 Initialization pass.
                           ----------------------------
                           !    Initial Parameters    !
                           ! (Angstroms and Degrees)  !
 --------------------------                            --------------------------
 ! Name  Definition              Value          Derivative Info.                !
 --------------------------------------------------------------------------------
 ! R1    R(1,3)                  1.3725         estimate D2E/DX2                !
 ! R2    R(1,4)                  1.647          estimate D2E/DX2                !
 ! R3    R(1,9)                  1.5207         estimate D2E/DX2                !
 ! R4    R(1,13)                 1.5203         estimate D2E/DX2                !
 ! R5    R(2,6)                  1.0275         estimate D2E/DX2                !
 ! R6    R(3,7)                  1.0            estimate D2E/DX2                !
 ! R7    R(4,5)                  1.022          estimate D2E/DX2                !
 ! R8    R(4,6)                  1.4279         estimate D2E/DX2                !
 ! R9    R(4,8)                  1.0253         estimate D2E/DX2                !
 ! R10   R(9,10)                 1.0929         estimate D2E/DX2                !
 ! R11   R(9,11)                 1.0934         estimate D2E/DX2                !
 ! R12   R(9,12)                 1.0933         estimate D2E/DX2                !
 ! R13   R(13,14)                1.4009         estimate D2E/DX2                !
 ! R14   R(13,15)                1.4039         estimate D2E/DX2                !
 ! R15   R(14,16)                1.3959         estimate D2E/DX2                !
 ! R16   R(14,17)                1.0836         estimate D2E/DX2                !
 ! R17   R(15,18)                1.3955         estimate D2E/DX2                !
 ! R18   R(15,19)                1.0854         estimate D2E/DX2                !
 ! R19   R(16,20)                1.3963         estimate D2E/DX2                !
 ! R20   R(16,21)                1.0861         estimate D2E/DX2                !
 ! R21   R(18,20)                1.3971         estimate D2E/DX2                !
 ! R22   R(18,22)                1.0859         estimate D2E/DX2                !
 ! R23   R(20,23)                1.0859         estimate D2E/DX2                !
 ! A1    A(3,1,4)              101.3805         estimate D2E/DX2                !
 ! A2    A(3,1,9)              112.0477         estimate D2E/DX2                !
 ! A3    A(3,1,13)             113.757          estimate D2E/DX2                !
 ! A4    A(4,1,9)              107.7067         estimate D2E/DX2                !
 ! A5    A(4,1,13)             104.7831         estimate D2E/DX2                !
 ! A6    A(9,1,13)             115.6432         estimate D2E/DX2                !
 ! A7    A(1,3,7)              101.0939         estimate D2E/DX2                !
 ! A8    A(1,4,5)              106.7518         estimate D2E/DX2                !
 ! A9    A(1,4,6)              111.1722         estimate D2E/DX2                !
 ! A10   A(1,4,8)              107.8719         estimate D2E/DX2                !
 ! A11   A(5,4,6)              107.6734         estimate D2E/DX2                !
 ! A12   A(5,4,8)              106.9865         estimate D2E/DX2                !
 ! A13   A(6,4,8)              115.9367         estimate D2E/DX2                !
 ! A14   A(2,6,4)              102.5261         estimate D2E/DX2                !
 ! A15   A(1,9,10)             109.8228         estimate D2E/DX2                !
 ! A16   A(1,9,11)             112.3979         estimate D2E/DX2                !
 ! A17   A(1,9,12)             109.0071         estimate D2E/DX2                !
 ! A18   A(10,9,11)            108.2136         estimate D2E/DX2                !
 ! A19   A(10,9,12)            108.4115         estimate D2E/DX2                !
 ! A20   A(11,9,12)            108.9047         estimate D2E/DX2                !
 ! A21   A(1,13,14)            119.3584         estimate D2E/DX2                !
 ! A22   A(1,13,15)            121.6618         estimate D2E/DX2                !
 ! A23   A(14,13,15)           118.8503         estimate D2E/DX2                !
 ! A24   A(13,14,16)           120.6027         estimate D2E/DX2                !
 ! A25   A(13,14,17)           118.7726         estimate D2E/DX2                !
 ! A26   A(16,14,17)           120.616          estimate D2E/DX2                !
 ! A27   A(13,15,18)           120.5307         estimate D2E/DX2                !
 ! A28   A(13,15,19)           120.4532         estimate D2E/DX2                !
 ! A29   A(18,15,19)           119.016          estimate D2E/DX2                !
 ! A30   A(14,16,20)           120.1999         estimate D2E/DX2                !
 ! A31   A(14,16,21)           119.7128         estimate D2E/DX2                !
 ! A32   A(20,16,21)           120.0872         estimate D2E/DX2                !
 ! A33   A(15,18,20)           120.2            estimate D2E/DX2                !
 ! A34   A(15,18,22)           119.6639         estimate D2E/DX2                !
 ! A35   A(20,18,22)           120.136          estimate D2E/DX2                !
 ! A36   A(16,20,18)           119.615          estimate D2E/DX2                !
 ! A37   A(16,20,23)           120.2433         estimate D2E/DX2                !
 ! A38   A(18,20,23)           120.1416         estimate D2E/DX2                !
 ! D1    D(4,1,3,7)             18.0503         estimate D2E/DX2                !
 ! D2    D(9,1,3,7)            132.6477         estimate D2E/DX2                !
 ! D3    D(13,1,3,7)           -93.8487         estimate D2E/DX2                !
 ! D4    D(3,1,4,5)             90.5436         estimate D2E/DX2                !
 ! D5    D(3,1,4,6)            -26.623          estimate D2E/DX2                !
 ! D6    D(3,1,4,8)           -154.772          estimate D2E/DX2                !
 ! D7    D(9,1,4,5)            -27.2451         estimate D2E/DX2                !
 ! D8    D(9,1,4,6)           -144.4116         estimate D2E/DX2                !
 ! D9    D(9,1,4,8)             87.4394         estimate D2E/DX2                !
 ! D10   D(13,1,4,5)          -150.8935         estimate D2E/DX2                !
 ! D11   D(13,1,4,6)            91.94           estimate D2E/DX2                !
 ! D12   D(13,1,4,8)           -36.209          estimate D2E/DX2                !
 ! D13   D(3,1,9,10)            73.4483         estimate D2E/DX2                !
 ! D14   D(3,1,9,11)          -166.0265         estimate D2E/DX2                !
 ! D15   D(3,1,9,12)           -45.1891         estimate D2E/DX2                !
 ! D16   D(4,1,9,10)          -175.8941         estimate D2E/DX2                !
 ! D17   D(4,1,9,11)           -55.3689         estimate D2E/DX2                !
 ! D18   D(4,1,9,12)            65.4685         estimate D2E/DX2                !
 ! D19   D(13,1,9,10)          -59.1261         estimate D2E/DX2                !
 ! D20   D(13,1,9,11)           61.3991         estimate D2E/DX2                !
 ! D21   D(13,1,9,12)         -177.7635         estimate D2E/DX2                !
 ! D22   D(3,1,13,14)           13.9129         estimate D2E/DX2                !
 ! D23   D(3,1,13,15)         -170.2718         estimate D2E/DX2                !
 ! D24   D(4,1,13,14)          -95.9109         estimate D2E/DX2                !
 ! D25   D(4,1,13,15)           79.9044         estimate D2E/DX2                !
 ! D26   D(9,1,13,14)          145.6902         estimate D2E/DX2                !
 ! D27   D(9,1,13,15)          -38.4945         estimate D2E/DX2                !
 ! D28   D(1,4,6,2)            -80.8775         estimate D2E/DX2                !
 ! D29   D(5,4,6,2)            162.5191         estimate D2E/DX2                !
 ! D30   D(8,4,6,2)             42.788          estimate D2E/DX2                !
 ! D31   D(1,13,14,16)         176.3207         estimate D2E/DX2                !
 ! D32   D(1,13,14,17)          -4.7405         estimate D2E/DX2                !
 ! D33   D(15,13,14,16)          0.387          estimate D2E/DX2                !
 ! D34   D(15,13,14,17)        179.3259         estimate D2E/DX2                !
 ! D35   D(1,13,15,18)        -176.2715         estimate D2E/DX2                !
 ! D36   D(1,13,15,19)           3.8431         estimate D2E/DX2                !
 ! D37   D(14,13,15,18)         -0.4356         estimate D2E/DX2                !
 ! D38   D(14,13,15,19)        179.6791         estimate D2E/DX2                !
 ! D39   D(13,14,16,20)         -0.1599         estimate D2E/DX2                !
 ! D40   D(13,14,16,21)        179.7195         estimate D2E/DX2                !
 ! D41   D(17,14,16,20)       -179.0791         estimate D2E/DX2                !
 ! D42   D(17,14,16,21)          0.8003         estimate D2E/DX2                !
 ! D43   D(13,15,18,20)          0.2572         estimate D2E/DX2                !
 ! D44   D(13,15,18,22)       -179.6734         estimate D2E/DX2                !
 ! D45   D(19,15,18,20)       -179.8558         estimate D2E/DX2                !
 ! D46   D(19,15,18,22)          0.2136         estimate D2E/DX2                !
 ! D47   D(14,16,20,18)         -0.0257         estimate D2E/DX2                !
 ! D48   D(14,16,20,23)        179.8807         estimate D2E/DX2                !
 ! D49   D(21,16,20,18)       -179.9046         estimate D2E/DX2                !
 ! D50   D(21,16,20,23)          0.0018         estimate D2E/DX2                !
 ! D51   D(15,18,20,16)         -0.023          estimate D2E/DX2                !
 ! D52   D(15,18,20,23)       -179.9294         estimate D2E/DX2                !
 ! D53   D(22,18,20,16)        179.9073         estimate D2E/DX2                !
 ! D54   D(22,18,20,23)          0.0008         estimate D2E/DX2                !
 --------------------------------------------------------------------------------
 Trust Radius=3.00D-01 FncErr=1.00D-07 GrdErr=1.00D-06 EigMax=2.50D+02 EigMin=1.00D-04
 Number of steps in this run=    125 maximum allowed number of steps=    138.
 GradGradGradGradGradGradGradGradGradGradGradGradGradGradGradGradGradGrad

 Leave Link  103 at Tue Jun 11 10:39:23 2019, MaxMem=   104857600 cpu:               6.3 elap:               0.3
 (Enter /project/6004141/group/g16/g16/l202.exe)
                          Input orientation:                          
 ---------------------------------------------------------------------
 Center     Atomic      Atomic             Coordinates (Angstroms)
 Number     Number       Type             X           Y           Z
 ---------------------------------------------------------------------
      1          6           0        1.200450    0.341669   -0.374415
      2          1           0        1.208149   -1.914500    1.307396
      3          8           0        1.773294   -0.600638   -1.191537
      4          7           0        1.806694   -0.090393    1.094733
      5          1           0        2.677686    0.429697    1.218491
      6          7           0        2.123685   -1.482115    1.132772
      7          1           0        2.043919   -1.294790   -0.524518
      8          1           0        1.155212    0.240959    1.813757
      9          6           0        1.697400    1.744806   -0.685324
     10          1           0        1.255802    2.095422   -1.621561
     11          1           0        1.443611    2.460549    0.101386
     12          1           0        2.783919    1.719552   -0.804169
     13          6           0       -0.305895    0.193846   -0.231189
     14          6           0       -0.923479   -0.989251   -0.657037
     15          6           0       -1.086507    1.177519    0.396472
     16          6           0       -2.292832   -1.183882   -0.468199
     17          1           0       -0.321912   -1.742981   -1.151275
     18          6           0       -2.455573    0.983054    0.584178
     19          1           0       -0.633847    2.101823    0.741373
     20          6           0       -3.063250   -0.198652    0.152564
     21          1           0       -2.757599   -2.104786   -0.808112
     22          1           0       -3.046971    1.755557    1.066611
     23          1           0       -4.128862   -0.348496    0.298079
 ---------------------------------------------------------------------
                    Distance matrix (angstroms):
                    1          2          3          4          5
     1  C    0.000000
     2  H    2.814044   0.000000
     3  O    1.372509   2.879286   0.000000
     4  N    1.646999   1.931540   2.342754   0.000000
     5  H    2.174241   2.768159   2.772679   1.021977   0.000000
     6  N    2.539717   1.027451   2.510416   1.427873   1.992308
     7  H    1.847152   2.106766   1.000000   2.031950   2.532508
     8  H    2.190955   2.214770   3.181525   1.025289   1.645567
     9  C    1.520663   4.195333   2.400650   2.559004   2.512963
    10  H    2.152693   4.965937   2.778751   3.529805   3.586403
    11  H    2.185215   4.544332   3.339342   2.761498   2.625876
    12  H    2.142574   4.488663   2.560215   2.799410   2.401284
    13  C    1.520342   3.017399   2.424149   2.510357   3.325500
    14  C    2.522360   3.042847   2.776562   3.366079   4.301094
    15  C    2.554033   3.956742   3.723181   3.235086   3.924806
    16  C    3.813020   3.992920   4.170944   4.521569   5.491321
    17  H    2.695712   2.900960   2.386725   3.508071   4.397034
    18  C    3.833638   4.726703   4.852274   4.424915   5.201817
    19  H    2.776287   4.454681   4.102897   3.299532   3.740307
    20  C    4.329987   4.745800   5.035907   4.961427   5.872765
    21  H    4.673263   4.498749   4.789412   5.339604   6.330328
    22  H    4.702789   5.624353   5.821155   5.192917   5.878152
    23  H    5.415731   5.652856   6.092452   5.994339   6.912441
                    6          7          8          9         10
     6  N    0.000000
     7  H    1.669750   0.000000
     8  H    2.090613   2.935278   0.000000
     9  C    3.728299   3.063507   2.966636   0.000000
    10  H    4.597645   3.649407   3.905197   1.092923   0.000000
    11  H    4.131689   3.854179   2.818150   1.093439   1.771196
    12  H    3.799779   3.116418   3.419424   1.093291   1.773288
    13  C    3.251476   2.797089   2.513734   2.573889   2.826309
    14  C    3.568128   2.986029   3.455314   3.787463   3.898048
    15  C    4.233335   4.093910   2.812676   3.040104   3.225122
    16  C    4.707194   4.338535   4.373386   4.954423   4.967583
    17  H    3.356466   2.488143   3.861260   4.057017   4.176564
    18  C    5.229495   5.163643   3.885915   4.408978   4.458357
    19  H    4.538919   4.506650   2.795274   2.756381   3.025603
    20  C    5.432530   5.267175   4.555024   5.209882   5.202356
    21  H    5.289772   4.877612   5.261825   5.889096   5.866075
    22  H    6.101031   6.144385   4.528860   5.057514   5.084843
    23  H    6.409068   6.298838   5.528668   6.268518   6.217102
                   11         12         13         14         15
    11  H    0.000000
    12  H    1.779194   0.000000
    13  C    2.882589   3.493284   0.000000
    14  C    4.251993   4.593916   1.400884   0.000000
    15  C    2.852146   4.088464   1.403897   2.414819   0.000000
    16  C    5.250458   5.858004   2.429450   1.395947   2.789102
    17  H    4.728202   4.664312   2.144321   1.083634   3.392558
    18  C    4.197584   5.470120   2.430800   2.788891   1.395490
    19  H    2.203202   3.770405   2.166519   3.405022   1.085447
    20  C    5.233141   6.227699   2.811464   2.420562   2.420919
    21  H    6.270537   6.733053   3.409898   2.152031   3.875190
    22  H    4.646934   6.123756   3.411264   3.874810   2.150961
    23  H    6.243547   7.299200   3.897350   3.405480   3.405044
                   16         17         18         19         20
    16  C    0.000000
    17  H    2.159562   0.000000
    18  C    2.414455   3.872412   0.000000
    19  H    3.874423   4.296736   2.143604   0.000000
    20  C    1.396270   3.405860   1.397137   3.397187   0.000000
    21  H    1.086100   2.486209   3.400654   4.960523   2.156309
    22  H    3.400687   4.958299   1.085935   2.459440   2.157471
    23  H    2.157790   4.305588   2.157493   4.291352   1.085890
                   21         22         23
    21  H    0.000000
    22  H    4.301229   0.000000
    23  H    2.487685   2.487603   0.000000
 Stoichiometry    C8H12N2O
 Framework group  C1[X(C8H12N2O)]
 Deg. of freedom    63
 Full point group                 C1      NOp   1
 Largest Abelian subgroup         C1      NOp   1
 Largest concise Abelian subgroup C1      NOp   1
                         Standard orientation:                         
 ---------------------------------------------------------------------
 Center     Atomic      Atomic             Coordinates (Angstroms)
 Number     Number       Type             X           Y           Z
 ---------------------------------------------------------------------
      1          6           0        1.200450    0.341669   -0.374415
      2          1           0        1.208149   -1.914500    1.307396
      3          8           0        1.773294   -0.600638   -1.191537
      4          7           0        1.806694   -0.090393    1.094733
      5          1           0        2.677686    0.429697    1.218491
      6          7           0        2.123685   -1.482115    1.132772
      7          1           0        2.043919   -1.294790   -0.524518
      8          1           0        1.155212    0.240959    1.813757
      9          6           0        1.697400    1.744806   -0.685324
     10          1           0        1.255802    2.095422   -1.621561
     11          1           0        1.443611    2.460549    0.101386
     12          1           0        2.783919    1.719552   -0.804169
     13          6           0       -0.305895    0.193846   -0.231189
     14          6           0       -0.923479   -0.989251   -0.657037
     15          6           0       -1.086507    1.177519    0.396472
     16          6           0       -2.292832   -1.183882   -0.468199
     17          1           0       -0.321912   -1.742981   -1.151275
     18          6           0       -2.455573    0.983054    0.584178
     19          1           0       -0.633847    2.101823    0.741373
     20          6           0       -3.063250   -0.198652    0.152564
     21          1           0       -2.757599   -2.104786   -0.808112
     22          1           0       -3.046971    1.755557    1.066611
     23          1           0       -4.128862   -0.348496    0.298079
 ---------------------------------------------------------------------
 Rotational constants (GHZ):           1.9455961           0.7914158           0.7101552
 Leave Link  202 at Tue Jun 11 10:39:24 2019, MaxMem=   104857600 cpu:               5.1 elap:               0.2
 (Enter /project/6004141/group/g16/g16/l301.exe)
 Standard basis: 6-31G(d,p) (6D, 7F)
 Ernie: Thresh=  0.10000D-02 Tol=  0.10000D-05 Strict=F.
 There are   225 symmetry adapted cartesian basis functions of A   symmetry.
 There are   225 symmetry adapted basis functions of A   symmetry.
   225 basis functions,   392 primitive gaussians,   225 cartesian basis functions
    41 alpha electrons       41 beta electrons
       nuclear repulsion energy       623.7998735066 Hartrees.
 IExCor=  402 DFT=T Ex+Corr=B3LYP ExCW=0 ScaHFX=  0.200000
 ScaDFX=  0.800000  0.720000  1.000000  0.810000 ScalE2=  1.000000  1.000000
 IRadAn=      5 IRanWt=     -1 IRanGd=            0 ICorTp=0 IEmpDi=131
 NAtoms=   23 NActive=   23 NUniq=   23 SFac= 1.00D+00 NAtFMM=   60 NAOKFM=F Big=F
 Integral buffers will be    131072 words long.
 Raffenetti 2 integral format.
 Two-electron integral symmetry is turned on.
 R6Disp:  Grimme-D3 Dispersion energy=       -0.0209657185 Hartrees.
 Nuclear repulsion after empirical dispersion term =      623.7789077881 Hartrees.
 ------------------------------------------------------------------------------
 Polarizable Continuum Model (PCM)
 =================================
 Model                : PCM.
 Atomic radii         : UFF (Universal Force Field).
 Polarization charges : Total charges.
 Charge compensation  : None.
 Solution method      : On-the-fly selection.
 Cavity type          : Scaled VdW (van der Waals Surface) (Alpha=1.100).
 Cavity algorithm     : GePol (No added spheres)
                        Default sphere list used, NSphG=   23.
                        Lebedev-Laikov grids with approx.  5.0 points / Ang**2.
                        Smoothing algorithm: York/Karplus (Gamma=1.0000).
                        Polarization charges: spherical gaussians, with
                                              point-specific exponents (IZeta= 3).
                        Self-potential: point-specific (ISelfS= 7).
                        Self-field    : sphere-specific E.n sum rule (ISelfD= 2).
 1st derivatives      : Analytical E(r).r(x)/FMM algorithm (CHGder, D1EAlg=3).
                        Cavity 1st derivative terms included.
 Solvent              : Acetonitrile, Eps=  35.688000 Eps(inf)=   1.806874
 ------------------------------------------------------------------------------
 GePol: Number of generator spheres                  =      23
 GePol: Total number of spheres                      =      23
 GePol: Number of exposed spheres                    =      23 (100.00%)
 GePol: Number of points                             =    1714
 GePol: Average weight of points                     =       0.13
 GePol: Minimum weight of points                     =   0.15D-09
 GePol: Maximum weight of points                     =    0.20577
 GePol: Number of points with low weight             =     131
 GePol: Fraction of low-weight points (<1% of avg)   =       7.64%
 GePol: Cavity surface area                          =    221.515 Ang**2
 GePol: Cavity volume                                =    230.184 Ang**3
 Leave Link  301 at Tue Jun 11 10:39:24 2019, MaxMem=   104857600 cpu:               9.0 elap:               0.3
 (Enter /project/6004141/group/g16/g16/l302.exe)
 NPDir=0 NMtPBC=     1 NCelOv=     1 NCel=       1 NClECP=     1 NCelD=      1
         NCelK=      1 NCelE2=     1 NClLst=     1 CellRange=     0.0.
 One-electron integrals computed using PRISM.
 One-electron integral symmetry used in STVInt
 PrsmSu:  requested number of processors reduced to:  29 ShMem   1 Linda.
 NBasis=   225 RedAO= T EigKep=  4.63D-04  NBF=   225
 NBsUse=   225 1.00D-06 EigRej= -1.00D+00 NBFU=   225
 Precomputing XC quadrature grid using
 IXCGrd= 4 IRadAn=           5 IRanWt=          -1 IRanGd=           0 AccXCQ= 0.00D+00.
 Generated NRdTot=       0 NPtTot=           0 NUsed=           0 NTot=          32
 NSgBfM=   225   225   225   225   225 MxSgAt=    23 MxSgA2=    23.
 Leave Link  302 at Tue Jun 11 10:39:25 2019, MaxMem=   104857600 cpu:              16.0 elap:               0.5
 (Enter /project/6004141/group/g16/g16/l303.exe)
 DipDrv:  MaxL=1.
 Leave Link  303 at Tue Jun 11 10:39:26 2019, MaxMem=   104857600 cpu:               5.2 elap:               0.2
 (Enter /project/6004141/group/g16/g16/l401.exe)
 ExpMin= 1.61D-01 ExpMax= 5.48D+03 ExpMxC= 8.25D+02 IAcc=3 IRadAn=         5 AccDes= 0.00D+00
 Harris functional with IExCor=  402 and IRadAn=       5 diagonalized for initial guess.
 HarFok:  IExCor=  402 AccDes= 0.00D+00 IRadAn=         5 IDoV= 1 UseB2=F ITyADJ=14
 ICtDFT=  3500011 ScaDFX=  1.000000  1.000000  1.000000  1.000000
 FoFCou: FMM=F IPFlag=           0 FMFlag=      100000 FMFlg1=           0
         NFxFlg=           0 DoJE=T BraDBF=F KetDBF=T FulRan=T
         wScrn=  0.000000 ICntrl=       500 IOpCl=  0 I1Cent=   200000004 NGrid=           0
         NMat0=    1 NMatS0=      1 NMatT0=    0 NMatD0=    1 NMtDS0=    0 NMtDT0=    0
 Petite list used in FoFCou.
 Harris En= -496.796505262038    
 JPrj=0 DoOrth=F DoCkMO=F.
 Leave Link  401 at Tue Jun 11 10:39:27 2019, MaxMem=   104857600 cpu:              19.9 elap:               0.5
 (Enter /project/6004141/group/g16/g16/l502.exe)
 Integral symmetry usage will be decided dynamically.
 Closed shell SCF:
 Using DIIS extrapolation, IDIIS=  1040.
 NGot=   104857600 LenX=   104744810 LenY=   104693744
 Requested convergence on RMS density matrix=1.00D-08 within 128 cycles.
 Requested convergence on MAX density matrix=1.00D-06.
 Requested convergence on             energy=1.00D-06.
 No special actions if energy rises.
 Fock matrices will be formed incrementally for  20 cycles.

 Cycle   1  Pass 1  IDiag  1:
 FoFJK:  IHMeth= 1 ICntrl=       0 DoSepK=F KAlg= 0 I1Cent=           0 FoldK=F
 IRaf= 910000000 NMat=       1 IRICut=       1 DoRegI=T DoRafI=F ISym2E= 0 IDoP0=0 IntGTp=1.
 FoFCou: FMM=F IPFlag=           0 FMFlag=      100000 FMFlg1=           0
         NFxFlg=           0 DoJE=F BraDBF=F KetDBF=F FulRan=T
         wScrn=  0.000000 ICntrl=         0 IOpCl=  0 I1Cent=           0 NGrid=           0
         NMat0=    1 NMatS0=      1 NMatT0=    0 NMatD0=    1 NMtDS0=    0 NMtDT0=    0
 Symmetry not used in FoFCou.
 Inv3:  Mode=1 IEnd=     8813388.
 Iteration    1 A*A^-1 deviation from unit magnitude is 3.44D-15 for    195.
 Iteration    1 A*A^-1 deviation from orthogonality  is 2.77D-15 for   1087    595.
 Iteration    1 A^-1*A deviation from unit magnitude is 3.00D-15 for    195.
 Iteration    1 A^-1*A deviation from orthogonality  is 1.78D-15 for   1465   1407.
 E= -496.468637797417    
 DIIS: error= 3.03D-02 at cycle   1 NSaved=   1.
 NSaved= 1 IEnMin= 1 EnMin= -496.468637797417     IErMin= 1 ErrMin= 3.03D-02
 ErrMax= 3.03D-02  0.00D+00 EMaxC= 1.00D-01 BMatC= 3.14D-01 BMatP= 3.14D-01
 IDIUse=3 WtCom= 6.97D-01 WtEn= 3.03D-01
 Coeff-Com:  0.100D+01
 Coeff-En:   0.100D+01
 Coeff:      0.100D+01
 Gap=     0.168 Goal=   None    Shift=    0.000
 GapD=    0.168 DampG=1.000 DampE=0.500 DampFc=0.5000 IDamp=-1.
 Damping current iteration by 5.00D-01
 RMSDP=5.48D-03 MaxDP=1.71D-01              OVMax= 2.12D-01

 Cycle   2  Pass 1  IDiag  1:
 RMSU=  2.72D-03    CP:  9.84D-01
 E= -496.594866712479     Delta-E=       -0.126228915061 Rises=F Damp=T
 DIIS: error= 6.81D-03 at cycle   2 NSaved=   2.
 NSaved= 2 IEnMin= 2 EnMin= -496.594866712479     IErMin= 2 ErrMin= 6.81D-03
 ErrMax= 6.81D-03  0.00D+00 EMaxC= 1.00D-01 BMatC= 2.39D-02 BMatP= 3.14D-01
 IDIUse=3 WtCom= 9.32D-01 WtEn= 6.81D-02
 Coeff-Com:  0.102D+00 0.898D+00
 Coeff-En:   0.153D+00 0.847D+00
 Coeff:      0.106D+00 0.894D+00
 Gap=     0.209 Goal=   None    Shift=    0.000
 RMSDP=1.46D-03 MaxDP=6.69D-02 DE=-1.26D-01 OVMax= 1.71D-01

 Cycle   3  Pass 1  IDiag  1:
 RMSU=  1.36D-03    CP:  9.74D-01  8.25D-01
 E= -496.750798725993     Delta-E=       -0.155932013514 Rises=F Damp=F
 DIIS: error= 5.60D-03 at cycle   3 NSaved=   3.
 NSaved= 3 IEnMin= 3 EnMin= -496.750798725993     IErMin= 3 ErrMin= 5.60D-03
 ErrMax= 5.60D-03  0.00D+00 EMaxC= 1.00D-01 BMatC= 1.99D-02 BMatP= 2.39D-02
 IDIUse=3 WtCom= 9.44D-01 WtEn= 5.60D-02
 Coeff-Com:  0.398D-02 0.473D+00 0.523D+00
 Coeff-En:   0.000D+00 0.000D+00 0.100D+01
 Coeff:      0.375D-02 0.447D+00 0.549D+00
 Gap=     0.176 Goal=   None    Shift=    0.000
 RMSDP=8.87D-04 MaxDP=2.79D-02 DE=-1.56D-01 OVMax= 4.73D-02

 Cycle   4  Pass 1  IDiag  1:
 RMSU=  5.82D-04    CP:  9.78D-01  9.05D-01  5.42D-01
 E= -496.766238706048     Delta-E=       -0.015439980055 Rises=F Damp=F
 DIIS: error= 2.47D-03 at cycle   4 NSaved=   4.
 NSaved= 4 IEnMin= 4 EnMin= -496.766238706048     IErMin= 4 ErrMin= 2.47D-03
 ErrMax= 2.47D-03  0.00D+00 EMaxC= 1.00D-01 BMatC= 2.76D-03 BMatP= 1.99D-02
 IDIUse=3 WtCom= 9.75D-01 WtEn= 2.47D-02
 Coeff-Com: -0.891D-02 0.807D-01 0.290D+00 0.638D+00
 Coeff-En:   0.000D+00 0.000D+00 0.133D+00 0.867D+00
 Coeff:     -0.869D-02 0.787D-01 0.286D+00 0.644D+00
 Gap=     0.181 Goal=   None    Shift=    0.000
 RMSDP=3.14D-04 MaxDP=8.52D-03 DE=-1.54D-02 OVMax= 1.73D-02

 Cycle   5  Pass 1  IDiag  1:
 RMSU=  1.24D-04    CP:  9.77D-01  8.84D-01  6.73D-01  6.27D-01
 E= -496.768812652987     Delta-E=       -0.002573946939 Rises=F Damp=F
 DIIS: error= 9.77D-04 at cycle   5 NSaved=   5.
 NSaved= 5 IEnMin= 5 EnMin= -496.768812652987     IErMin= 5 ErrMin= 9.77D-04
 ErrMax= 9.77D-04  0.00D+00 EMaxC= 1.00D-01 BMatC= 1.65D-04 BMatP= 2.76D-03
 IDIUse=3 WtCom= 9.90D-01 WtEn= 9.77D-03
 Coeff-Com: -0.476D-02 0.194D-01 0.113D+00 0.325D+00 0.547D+00
 Coeff-En:   0.000D+00 0.000D+00 0.000D+00 0.000D+00 0.100D+01
 Coeff:     -0.471D-02 0.192D-01 0.112D+00 0.322D+00 0.551D+00
 Gap=     0.181 Goal=   None    Shift=    0.000
 RMSDP=7.34D-05 MaxDP=2.68D-03 DE=-2.57D-03 OVMax= 6.35D-03

 Cycle   6  Pass 1  IDiag  1:
 RMSU=  4.66D-05    CP:  9.77D-01  8.88D-01  6.69D-01  6.82D-01  6.34D-01
 E= -496.768966376119     Delta-E=       -0.000153723133 Rises=F Damp=F
 DIIS: error= 3.48D-04 at cycle   6 NSaved=   6.
 NSaved= 6 IEnMin= 6 EnMin= -496.768966376119     IErMin= 6 ErrMin= 3.48D-04
 ErrMax= 3.48D-04  0.00D+00 EMaxC= 1.00D-01 BMatC= 2.25D-05 BMatP= 1.65D-04
 IDIUse=3 WtCom= 9.97D-01 WtEn= 3.48D-03
 Coeff-Com: -0.184D-02 0.183D-02 0.297D-01 0.113D+00 0.320D+00 0.538D+00
 Coeff-En:   0.000D+00 0.000D+00 0.000D+00 0.000D+00 0.805D-01 0.920D+00
 Coeff:     -0.183D-02 0.182D-02 0.296D-01 0.112D+00 0.319D+00 0.539D+00
 Gap=     0.181 Goal=   None    Shift=    0.000
 RMSDP=2.18D-05 MaxDP=6.65D-04 DE=-1.54D-04 OVMax= 1.78D-03

 Cycle   7  Pass 1  IDiag  1:
 RMSU=  9.65D-06    CP:  9.77D-01  8.87D-01  6.70D-01  6.80D-01  7.06D-01
                    CP:  6.31D-01
 E= -496.768988577389     Delta-E=       -0.000022201270 Rises=F Damp=F
 DIIS: error= 3.97D-05 at cycle   7 NSaved=   7.
 NSaved= 7 IEnMin= 7 EnMin= -496.768988577389     IErMin= 7 ErrMin= 3.97D-05
 ErrMax= 3.97D-05  0.00D+00 EMaxC= 1.00D-01 BMatC= 5.60D-07 BMatP= 2.25D-05
 IDIUse=1 WtCom= 1.00D+00 WtEn= 0.00D+00
 Coeff-Com: -0.694D-03 0.180D-03 0.808D-02 0.370D-01 0.119D+00 0.233D+00
 Coeff-Com:  0.604D+00
 Coeff:     -0.694D-03 0.180D-03 0.808D-02 0.370D-01 0.119D+00 0.233D+00
 Coeff:      0.604D+00
 Gap=     0.181 Goal=   None    Shift=    0.000
 RMSDP=4.30D-06 MaxDP=1.32D-04 DE=-2.22D-05 OVMax= 2.24D-04

 Cycle   8  Pass 1  IDiag  1:
 RMSU=  3.24D-06    CP:  9.77D-01  8.87D-01  6.70D-01  6.83D-01  7.05D-01
                    CP:  6.59D-01  8.10D-01
 E= -496.768989051850     Delta-E=       -0.000000474461 Rises=F Damp=F
 DIIS: error= 1.28D-05 at cycle   8 NSaved=   8.
 NSaved= 8 IEnMin= 8 EnMin= -496.768989051850     IErMin= 8 ErrMin= 1.28D-05
 ErrMax= 1.28D-05  0.00D+00 EMaxC= 1.00D-01 BMatC= 9.47D-08 BMatP= 5.60D-07
 IDIUse=1 WtCom= 1.00D+00 WtEn= 0.00D+00
 Coeff-Com: -0.496D-04-0.185D-03-0.142D-02-0.102D-02 0.452D-02 0.218D-01
 Coeff-Com:  0.302D+00 0.675D+00
 Coeff:     -0.496D-04-0.185D-03-0.142D-02-0.102D-02 0.452D-02 0.218D-01
 Coeff:      0.302D+00 0.675D+00
 Gap=     0.181 Goal=   None    Shift=    0.000
 RMSDP=1.46D-06 MaxDP=5.96D-05 DE=-4.74D-07 OVMax= 8.17D-05

 Cycle   9  Pass 1  IDiag  1:
 RMSU=  9.19D-07    CP:  9.77D-01  8.87D-01  6.70D-01  6.83D-01  7.08D-01
                    CP:  6.64D-01  8.99D-01  8.31D-01
 E= -496.768989132717     Delta-E=       -0.000000080867 Rises=F Damp=F
 DIIS: error= 4.53D-06 at cycle   9 NSaved=   9.
 NSaved= 9 IEnMin= 9 EnMin= -496.768989132717     IErMin= 9 ErrMin= 4.53D-06
 ErrMax= 4.53D-06  0.00D+00 EMaxC= 1.00D-01 BMatC= 7.12D-09 BMatP= 9.47D-08
 IDIUse=1 WtCom= 1.00D+00 WtEn= 0.00D+00
 Coeff-Com:  0.298D-05-0.843D-04-0.113D-02-0.234D-02-0.373D-02-0.188D-02
 Coeff-Com:  0.113D+00 0.332D+00 0.564D+00
 Coeff:      0.298D-05-0.843D-04-0.113D-02-0.234D-02-0.373D-02-0.188D-02
 Coeff:      0.113D+00 0.332D+00 0.564D+00
 Gap=     0.181 Goal=   None    Shift=    0.000
 RMSDP=4.12D-07 MaxDP=1.49D-05 DE=-8.09D-08 OVMax= 2.09D-05

 Cycle  10  Pass 1  IDiag  1:
 RMSU=  2.90D-07    CP:  9.77D-01  8.87D-01  6.70D-01  6.83D-01  7.09D-01
                    CP:  6.65D-01  9.11D-01  8.71D-01  7.64D-01
 E= -496.768989138248     Delta-E=       -0.000000005531 Rises=F Damp=F
 DIIS: error= 9.49D-07 at cycle  10 NSaved=  10.
 NSaved=10 IEnMin=10 EnMin= -496.768989138248     IErMin=10 ErrMin= 9.49D-07
 ErrMax= 9.49D-07  0.00D+00 EMaxC= 1.00D-01 BMatC= 5.71D-10 BMatP= 7.12D-09
 IDIUse=1 WtCom= 1.00D+00 WtEn= 0.00D+00
 Coeff-Com:  0.654D-05-0.847D-05-0.368D-03-0.102D-02-0.251D-02-0.438D-02
 Coeff-Com:  0.888D-02 0.606D-01 0.249D+00 0.690D+00
 Coeff:      0.654D-05-0.847D-05-0.368D-03-0.102D-02-0.251D-02-0.438D-02
 Coeff:      0.888D-02 0.606D-01 0.249D+00 0.690D+00
 Gap=     0.181 Goal=   None    Shift=    0.000
 RMSDP=1.28D-07 MaxDP=3.14D-06 DE=-5.53D-09 OVMax= 5.90D-06

 Cycle  11  Pass 1  IDiag  1:
 RMSU=  6.55D-08    CP:  9.77D-01  8.87D-01  6.70D-01  6.83D-01  7.09D-01
                    CP:  6.65D-01  9.16D-01  8.81D-01  8.15D-01  7.49D-01
 E= -496.768989138759     Delta-E=       -0.000000000511 Rises=F Damp=F
 DIIS: error= 2.10D-07 at cycle  11 NSaved=  11.
 NSaved=11 IEnMin=11 EnMin= -496.768989138759     IErMin=11 ErrMin= 2.10D-07
 ErrMax= 2.10D-07  0.00D+00 EMaxC= 1.00D-01 BMatC= 2.78D-11 BMatP= 5.71D-10
 IDIUse=1 WtCom= 1.00D+00 WtEn= 0.00D+00
 Coeff-Com:  0.146D-05 0.256D-05-0.991D-04-0.292D-03-0.776D-03-0.159D-02
 Coeff-Com: -0.110D-02 0.107D-01 0.721D-01 0.267D+00 0.654D+00
 Coeff:      0.146D-05 0.256D-05-0.991D-04-0.292D-03-0.776D-03-0.159D-02
 Coeff:     -0.110D-02 0.107D-01 0.721D-01 0.267D+00 0.654D+00
 Gap=     0.181 Goal=   None    Shift=    0.000
 RMSDP=3.55D-08 MaxDP=1.29D-06 DE=-5.11D-10 OVMax= 2.56D-06

 Cycle  12  Pass 1  IDiag  1:
 RMSU=  2.24D-08    CP:  9.77D-01  8.87D-01  6.70D-01  6.83D-01  7.09D-01
                    CP:  6.65D-01  9.17D-01  8.85D-01  8.22D-01  7.97D-01
                    CP:  7.43D-01
 E= -496.768989138776     Delta-E=       -0.000000000017 Rises=F Damp=F
 DIIS: error= 9.19D-08 at cycle  12 NSaved=  12.
 NSaved=12 IEnMin=12 EnMin= -496.768989138776     IErMin=12 ErrMin= 9.19D-08
 ErrMax= 9.19D-08  0.00D+00 EMaxC= 1.00D-01 BMatC= 7.17D-12 BMatP= 2.78D-11
 IDIUse=1 WtCom= 1.00D+00 WtEn= 0.00D+00
 Coeff-Com: -0.270D-07 0.258D-05-0.532D-05-0.270D-04-0.108D-03-0.349D-03
 Coeff-Com: -0.253D-02-0.373D-02 0.450D-02 0.520D-01 0.369D+00 0.581D+00
 Coeff:     -0.270D-07 0.258D-05-0.532D-05-0.270D-04-0.108D-03-0.349D-03
 Coeff:     -0.253D-02-0.373D-02 0.450D-02 0.520D-01 0.369D+00 0.581D+00
 Gap=     0.181 Goal=   None    Shift=    0.000
 RMSDP=1.30D-08 MaxDP=4.39D-07 DE=-1.73D-11 OVMax= 4.85D-07

 Cycle  13  Pass 1  IDiag  1:
 RMSU=  5.82D-09    CP:  9.77D-01  8.87D-01  6.70D-01  6.83D-01  7.09D-01
                    CP:  6.66D-01  9.17D-01  8.85D-01  8.25D-01  7.98D-01
                    CP:  8.15D-01  6.18D-01
 E= -496.768989138783     Delta-E=       -0.000000000007 Rises=F Damp=F
 DIIS: error= 1.46D-08 at cycle  13 NSaved=  13.
 NSaved=13 IEnMin=13 EnMin= -496.768989138783     IErMin=13 ErrMin= 1.46D-08
 ErrMax= 1.46D-08  0.00D+00 EMaxC= 1.00D-01 BMatC= 1.34D-13 BMatP= 7.17D-12
 IDIUse=1 WtCom= 1.00D+00 WtEn= 0.00D+00
 Coeff-Com: -0.915D-07 0.673D-06 0.250D-05 0.487D-05 0.350D-05-0.332D-04
 Coeff-Com: -0.733D-03-0.156D-02-0.179D-02 0.316D-02 0.942D-01 0.198D+00
 Coeff-Com:  0.709D+00
 Coeff:     -0.915D-07 0.673D-06 0.250D-05 0.487D-05 0.350D-05-0.332D-04
 Coeff:     -0.733D-03-0.156D-02-0.179D-02 0.316D-02 0.942D-01 0.198D+00
 Coeff:      0.709D+00
 Gap=     0.181 Goal=   None    Shift=    0.000
 RMSDP=2.52D-09 MaxDP=8.23D-08 DE=-7.16D-12 OVMax= 1.81D-07

 Error on total polarization charges =  0.00823
 SCF Done:  E(RB3LYP) =  -496.768989139     A.U. after   13 cycles
            NFock= 13  Conv=0.25D-08     -V/T= 2.0094
 KE= 4.921591505083D+02 PE=-2.402618863008D+03 EE= 7.899118155728D+02
 Leave Link  502 at Tue Jun 11 10:39:36 2019, MaxMem=   104857600 cpu:             362.6 elap:               9.5
 (Enter /project/6004141/group/g16/g16/l601.exe)
 Copying SCF densities to generalized density rwf, IOpCl= 0 IROHF=0.

 **********************************************************************

            Population analysis using the SCF density.

 **********************************************************************

 Orbital symmetries:
       Occupied  (A) (A) (A) (A) (A) (A) (A) (A) (A) (A) (A) (A)
                 (A) (A) (A) (A) (A) (A) (A) (A) (A) (A) (A) (A)
                 (A) (A) (A) (A) (A) (A) (A) (A) (A) (A) (A) (A)
                 (A) (A) (A) (A) (A)
       Virtual   (A) (A) (A) (A) (A) (A) (A) (A) (A) (A) (A) (A)
                 (A) (A) (A) (A) (A) (A) (A) (A) (A) (A) (A) (A)
                 (A) (A) (A) (A) (A) (A) (A) (A) (A) (A) (A) (A)
                 (A) (A) (A) (A) (A) (A) (A) (A) (A) (A) (A) (A)
                 (A) (A) (A) (A) (A) (A) (A) (A) (A) (A) (A) (A)
                 (A) (A) (A) (A) (A) (A) (A) (A) (A) (A) (A) (A)
                 (A) (A) (A) (A) (A) (A) (A) (A) (A) (A) (A) (A)
                 (A) (A) (A) (A) (A) (A) (A) (A) (A) (A) (A) (A)
                 (A) (A) (A) (A) (A) (A) (A) (A) (A) (A) (A) (A)
                 (A) (A) (A) (A) (A) (A) (A) (A) (A) (A) (A) (A)
                 (A) (A) (A) (A) (A) (A) (A) (A) (A) (A) (A) (A)
                 (A) (A) (A) (A) (A) (A) (A) (A) (A) (A) (A) (A)
                 (A) (A) (A) (A) (A) (A) (A) (A) (A) (A) (A) (A)
                 (A) (A) (A) (A) (A) (A) (A) (A) (A) (A) (A) (A)
                 (A) (A) (A) (A) (A) (A) (A) (A) (A) (A) (A) (A)
                 (A) (A) (A) (A)
 The electronic state is 1-A.
 Alpha  occ. eigenvalues --  -19.12986 -14.43741 -14.28639 -10.28130 -10.19958
 Alpha  occ. eigenvalues --  -10.19615 -10.19462 -10.19390 -10.19334 -10.19134
 Alpha  occ. eigenvalues --  -10.18666  -1.04659  -0.96724  -0.85837  -0.78785
 Alpha  occ. eigenvalues --   -0.74816  -0.74265  -0.71482  -0.63621  -0.60610
 Alpha  occ. eigenvalues --   -0.57164  -0.56120  -0.53169  -0.51750  -0.46801
 Alpha  occ. eigenvalues --   -0.46516  -0.45000  -0.44140  -0.42235  -0.40787
 Alpha  occ. eigenvalues --   -0.39810  -0.38833  -0.36851  -0.35267  -0.34941
 Alpha  occ. eigenvalues --   -0.34207  -0.27928  -0.26785  -0.25480  -0.25394
 Alpha  occ. eigenvalues --   -0.19606
 Alpha virt. eigenvalues --   -0.01527  -0.00809   0.06785   0.09409   0.10192
 Alpha virt. eigenvalues --    0.11215   0.12193   0.13783   0.14821   0.15571
 Alpha virt. eigenvalues --    0.16292   0.17345   0.18808   0.19205   0.20444
 Alpha virt. eigenvalues --    0.21572   0.23619   0.24896   0.26259   0.27826
 Alpha virt. eigenvalues --    0.30332   0.32338   0.34373   0.36507   0.46943
 Alpha virt. eigenvalues --    0.51047   0.52728   0.53059   0.53640   0.55238
 Alpha virt. eigenvalues --    0.55947   0.57464   0.58205   0.59120   0.59523
 Alpha virt. eigenvalues --    0.60608   0.61325   0.62153   0.62650   0.64288
 Alpha virt. eigenvalues --    0.66166   0.68525   0.70703   0.71050   0.73364
 Alpha virt. eigenvalues --    0.74953   0.75538   0.77652   0.79751   0.82008
 Alpha virt. eigenvalues --    0.82317   0.82714   0.84716   0.85710   0.86668
 Alpha virt. eigenvalues --    0.87299   0.88485   0.88937   0.90699   0.92477
 Alpha virt. eigenvalues --    0.94200   0.94889   0.95374   0.96853   0.98716
 Alpha virt. eigenvalues --    1.01634   1.02767   1.08182   1.08343   1.12866
 Alpha virt. eigenvalues --    1.15427   1.16961   1.18256   1.19818   1.23102
 Alpha virt. eigenvalues --    1.24204   1.32918   1.34383   1.39259   1.40078
 Alpha virt. eigenvalues --    1.40807   1.41506   1.42436   1.43140   1.45065
 Alpha virt. eigenvalues --    1.52067   1.54975   1.59474   1.60636   1.65952
 Alpha virt. eigenvalues --    1.68244   1.71460   1.75033   1.78388   1.79124
 Alpha virt. eigenvalues --    1.81313   1.81947   1.84128   1.86172   1.87765
 Alpha virt. eigenvalues --    1.89265   1.92079   1.93342   1.96731   1.97348
 Alpha virt. eigenvalues --    1.98383   2.00483   2.02800   2.03750   2.06061
 Alpha virt. eigenvalues --    2.06627   2.07561   2.10666   2.11799   2.14747
 Alpha virt. eigenvalues --    2.16860   2.20245   2.24118   2.26000   2.27371
 Alpha virt. eigenvalues --    2.27838   2.30385   2.32230   2.33710   2.36441
 Alpha virt. eigenvalues --    2.37593   2.38247   2.40983   2.41867   2.44761
 Alpha virt. eigenvalues --    2.47203   2.48821   2.50643   2.51013   2.52700
 Alpha virt. eigenvalues --    2.53538   2.54733   2.59710   2.60783   2.61502
 Alpha virt. eigenvalues --    2.63420   2.63948   2.65448   2.68780   2.70862
 Alpha virt. eigenvalues --    2.73948   2.75075   2.76003   2.79406   2.80575
 Alpha virt. eigenvalues --    2.84310   2.85761   2.87839   2.95154   2.97161
 Alpha virt. eigenvalues --    2.99906   3.04589   3.06212   3.07612   3.19816
 Alpha virt. eigenvalues --    3.21245   3.23811   3.24571   3.25659   3.35779
 Alpha virt. eigenvalues --    3.37697   3.42310   3.45178   3.45982   3.48557
 Alpha virt. eigenvalues --    3.51238   3.54870   3.86639   3.89071   4.10862
 Alpha virt. eigenvalues --    4.14369   4.16101   4.19992   4.29744   4.43899
 Alpha virt. eigenvalues --    4.47864   4.50547   4.66703   4.85330
          Condensed to atoms (all electrons):
               1          2          3          4          5          6
     1  C    4.983259   0.001643   0.293233   0.132914  -0.027712  -0.069430
     2  H    0.001643   0.538191   0.001817  -0.047977   0.007155   0.292328
     3  O    0.293233   0.001817   8.305693  -0.057196   0.001705  -0.072323
     4  N    0.132914  -0.047977  -0.057196   6.647480   0.328566   0.183150
     5  H   -0.027712   0.007155   0.001705   0.328566   0.407624  -0.038488
     6  N   -0.069430   0.292328  -0.072323   0.183150  -0.038488   7.210390
     7  H   -0.050435  -0.013764   0.224059  -0.034562   0.000557   0.159967
     8  H   -0.030083  -0.012865   0.001807   0.316189  -0.020309  -0.018321
     9  C    0.348985   0.000124  -0.072237  -0.040339  -0.000993   0.004402
    10  H   -0.023546   0.000006  -0.000570   0.003319  -0.000214  -0.000129
    11  H   -0.025972  -0.000022   0.003699  -0.001055   0.001008   0.000220
    12  H   -0.022932   0.000000   0.003097  -0.003997   0.004541   0.000027
    13  C    0.283906   0.004657  -0.064473  -0.070380   0.005259  -0.006795
    14  C   -0.036450   0.004468  -0.004671   0.000657  -0.000059   0.002928
    15  C   -0.050098  -0.000156   0.003113  -0.002884   0.000062  -0.000045
    16  C    0.006827  -0.000007   0.000913   0.000053   0.000002  -0.000030
    17  H   -0.013127   0.000451   0.018900   0.000736  -0.000033   0.000514
    18  C    0.004567  -0.000025  -0.000067  -0.000097   0.000008   0.000008
    19  H   -0.008170  -0.000006   0.000037   0.000355  -0.000132   0.000005
    20  C    0.000157  -0.000011  -0.000012   0.000035  -0.000001   0.000000
    21  H   -0.000166  -0.000004   0.000002   0.000000  -0.000000  -0.000002
    22  H   -0.000135  -0.000000   0.000000  -0.000000  -0.000000   0.000000
    23  H    0.000008  -0.000000   0.000000   0.000000   0.000000   0.000000
               7          8          9         10         11         12
     1  C   -0.050435  -0.030083   0.348985  -0.023546  -0.025972  -0.022932
     2  H   -0.013764  -0.012865   0.000124   0.000006  -0.000022   0.000000
     3  O    0.224059   0.001807  -0.072237  -0.000570   0.003699   0.003097
     4  N   -0.034562   0.316189  -0.040339   0.003319  -0.001055  -0.003997
     5  H    0.000557  -0.020309  -0.000993  -0.000214   0.001008   0.004541
     6  N    0.159967  -0.018321   0.004402  -0.000129   0.000220   0.000027
     7  H    0.400749   0.004771   0.007313  -0.000338  -0.000093   0.000582
     8  H    0.004771   0.430479   0.000645  -0.000237   0.001993  -0.000067
     9  C    0.007313   0.000645   5.063427   0.380549   0.358976   0.359653
    10  H   -0.000338  -0.000237   0.380549   0.556761  -0.027960  -0.024684
    11  H   -0.000093   0.001993   0.358976  -0.027960   0.590855  -0.025359
    12  H    0.000582  -0.000067   0.359653  -0.024684  -0.025359   0.578015
    13  C   -0.001554   0.000658  -0.075844  -0.002925  -0.002977   0.006020
    14  C    0.001877  -0.000092   0.005435   0.000289  -0.000308  -0.000127
    15  C   -0.000286   0.007548  -0.005618   0.000560   0.001595   0.000033
    16  C   -0.000002  -0.000139  -0.000140  -0.000004   0.000002   0.000002
    17  H   -0.000122  -0.000056   0.000545   0.000004  -0.000017  -0.000021
    18  C    0.000008  -0.000006   0.000072  -0.000067   0.000221  -0.000000
    19  H   -0.000007   0.000783   0.002544   0.000182   0.001510  -0.000127
    20  C    0.000000  -0.000031   0.000002  -0.000004  -0.000001   0.000000
    21  H   -0.000002   0.000001   0.000002   0.000000   0.000000  -0.000000
    22  H   -0.000000   0.000005   0.000004   0.000001  -0.000003  -0.000000
    23  H    0.000000  -0.000000  -0.000000  -0.000000  -0.000000  -0.000000
              13         14         15         16         17         18
     1  C    0.283906  -0.036450  -0.050098   0.006827  -0.013127   0.004567
     2  H    0.004657   0.004468  -0.000156  -0.000007   0.000451  -0.000025
     3  O   -0.064473  -0.004671   0.003113   0.000913   0.018900  -0.000067
     4  N   -0.070380   0.000657  -0.002884   0.000053   0.000736  -0.000097
     5  H    0.005259  -0.000059   0.000062   0.000002  -0.000033   0.000008
     6  N   -0.006795   0.002928  -0.000045  -0.000030   0.000514   0.000008
     7  H   -0.001554   0.001877  -0.000286  -0.000002  -0.000122   0.000008
     8  H    0.000658  -0.000092   0.007548  -0.000139  -0.000056  -0.000006
     9  C   -0.075844   0.005435  -0.005618  -0.000140   0.000545   0.000072
    10  H   -0.002925   0.000289   0.000560  -0.000004   0.000004  -0.000067
    11  H   -0.002977  -0.000308   0.001595   0.000002  -0.000017   0.000221
    12  H    0.006020  -0.000127   0.000033   0.000002  -0.000021  -0.000000
    13  C    4.972232   0.520769   0.499564  -0.028332  -0.045799  -0.019994
    14  C    0.520769   4.933068  -0.053046   0.494999   0.365203  -0.042167
    15  C    0.499564  -0.053046   4.951989  -0.043152   0.006551   0.519514
    16  C   -0.028332   0.494999  -0.043152   4.867585  -0.040362  -0.031996
    17  H   -0.045799   0.365203   0.006551  -0.040362   0.603029   0.000153
    18  C   -0.019994  -0.042167   0.519514  -0.031996   0.000153   4.834384
    19  H   -0.049031   0.005429   0.372514   0.000352  -0.000150  -0.037704
    20  C   -0.035307  -0.038260  -0.041681   0.539472   0.004661   0.543078
    21  H    0.003888  -0.037296   0.000834   0.371268  -0.005418   0.004446
    22  H    0.003481   0.000782  -0.036532   0.004467   0.000016   0.371070
    23  H    0.000684   0.004391   0.004744  -0.040398  -0.000162  -0.040187
              19         20         21         22         23
     1  C   -0.008170   0.000157  -0.000166  -0.000135   0.000008
     2  H   -0.000006  -0.000011  -0.000004  -0.000000  -0.000000
     3  O    0.000037  -0.000012   0.000002   0.000000   0.000000
     4  N    0.000355   0.000035   0.000000  -0.000000   0.000000
     5  H   -0.000132  -0.000001  -0.000000  -0.000000   0.000000
     6  N    0.000005   0.000000  -0.000002   0.000000   0.000000
     7  H   -0.000007   0.000000  -0.000002  -0.000000   0.000000
     8  H    0.000783  -0.000031   0.000001   0.000005  -0.000000
     9  C    0.002544   0.000002   0.000002   0.000004  -0.000000
    10  H    0.000182  -0.000004   0.000000   0.000001  -0.000000
    11  H    0.001510  -0.000001   0.000000  -0.000003  -0.000000
    12  H   -0.000127   0.000000  -0.000000  -0.000000  -0.000000
    13  C   -0.049031  -0.035307   0.003888   0.003481   0.000684
    14  C    0.005429  -0.038260  -0.037296   0.000782   0.004391
    15  C    0.372514  -0.041681   0.000834  -0.036532   0.004744
    16  C    0.000352   0.539472   0.371268   0.004467  -0.040398
    17  H   -0.000150   0.004661  -0.005418   0.000016  -0.000162
    18  C   -0.037704   0.543078   0.004446   0.371070  -0.040187
    19  H    0.608095   0.004710   0.000016  -0.005772  -0.000176
    20  C    0.004710   4.826976  -0.041344  -0.040322   0.373014
    21  H    0.000016  -0.041344   0.605031  -0.000178  -0.005719
    22  H   -0.005772  -0.040322  -0.000178   0.602610  -0.005651
    23  H   -0.000176   0.373014  -0.005719  -0.005651   0.604619
 Mulliken charges:
               1
     1  C    0.302758
     2  H    0.223999
     3  O   -0.586524
     4  N   -0.354967
     5  H    0.331456
     6  N   -0.648374
     7  H    0.301284
     8  H    0.317329
     9  C   -0.337506
    10  H    0.139007
    11  H    0.123687
    12  H    0.125347
    13  C    0.102294
    14  C   -0.127819
    15  C   -0.135119
    16  C   -0.101379
    17  H    0.104505
    18  C   -0.105220
    19  H    0.104742
    20  C   -0.095131
    21  H    0.104643
    22  H    0.106157
    23  H    0.104833
 Sum of Mulliken charges =  -0.00000
 Mulliken charges with hydrogens summed into heavy atoms:
               1
     1  C    0.302758
     3  O   -0.285240
     4  N    0.293818
     6  N   -0.424376
     9  C    0.050535
    13  C    0.102294
    14  C   -0.023313
    15  C   -0.030378
    16  C    0.003264
    18  C    0.000937
    20  C    0.009702
 Electronic spatial extent (au):  <R**2>=           1776.7347
 Charge=             -0.0000 electrons
 Dipole moment (field-independent basis, Debye):
    X=             -2.6426    Y=              4.6187    Z=              2.4516  Tot=              5.8588
 Quadrupole moment (field-independent basis, Debye-Ang):
   XX=            -66.9973   YY=            -64.1528   ZZ=            -68.0910
   XY=             12.5103   XZ=              0.4900   YZ=              5.8536
 Traceless Quadrupole moment (field-independent basis, Debye-Ang):
   XX=             -0.5836   YY=              2.2609   ZZ=             -1.6773
   XY=             12.5103   XZ=              0.4900   YZ=              5.8536
 Octapole moment (field-independent basis, Debye-Ang**2):
  XXX=            -22.2197  YYY=              5.3654  ZZZ=              7.5870  XYY=            -10.2228
  XXY=             28.1336  XXZ=              3.2978  XZZ=              0.4535  YZZ=              9.8446
  YYZ=             -5.6190  XYZ=              6.1703
 Hexadecapole moment (field-independent basis, Debye-Ang**3):
 XXXX=          -1427.9940 YYYY=           -527.9244 ZZZZ=           -308.5214 XXXY=             87.8573
 XXXZ=            -27.4002 YYYX=             22.6894 YYYZ=             24.3420 ZZZX=              3.4614
 ZZZY=             10.2708 XXYY=           -357.1451 XXZZ=           -330.0679 YYZZ=           -141.8568
 XXYZ=             48.3724 YYXZ=            -19.6253 ZZXY=             21.7505
 N-N= 6.237789077881D+02 E-N=-2.402618864675D+03  KE= 4.921591505083D+02
 No NMR shielding tensors so no spin-rotation constants.
 Leave Link  601 at Tue Jun 11 10:39:37 2019, MaxMem=   104857600 cpu:              11.5 elap:               0.4
 (Enter /project/6004141/group/g16/g16/l701.exe)
 ... and contract with generalized density number  0.
 Compute integral first derivatives.
 R6Disp: Adding Grimme-D3 dispersion energy 1st derivatives to the gradient.
 PrsmSu:  requested number of processors reduced to:  29 ShMem   1 Linda.
 D1PCM: PCM CHGder 1st derivatives, ID1Alg=3 FixD1E=F DoIter=F DoCFld=F I1PDM=0.
 GePol: Maximum number of non-zero 1st derivatives   =     200
 CoulSu:  requested number of processors reduced to:  29 ShMem   1 Linda.
 CoulSu:  requested number of processors reduced to:  30 ShMem   1 Linda.
 Leave Link  701 at Tue Jun 11 10:39:39 2019, MaxMem=   104857600 cpu:              38.2 elap:               1.1
 (Enter /project/6004141/group/g16/g16/l702.exe)
 L702 exits ... SP integral derivatives will be done elsewhere.
 Leave Link  702 at Tue Jun 11 10:39:39 2019, MaxMem=   104857600 cpu:               1.5 elap:               0.1
 (Enter /project/6004141/group/g16/g16/l703.exe)
 Integral derivatives from FoFJK, PRISM(SPDF).
 Compute integral first derivatives, UseDBF=F ICtDFT=           0.
 Calling FoFJK, ICntrl=      2127 FMM=F ISym2X=0 I1Cent= 0 IOpClX= 0 NMat=1 NMatS=1 NMatT=0.
 FoFJK:  IHMeth= 1 ICntrl=    2127 DoSepK=F KAlg= 0 I1Cent=           0 FoldK=F
 IRaf=         0 NMat=       1 IRICut=       1 DoRegI=T DoRafI=F ISym2E= 0 IDoP0=0 IntGTp=1.
 FoFCou: FMM=F IPFlag=           0 FMFlag=      100000 FMFlg1=         800
         NFxFlg=           0 DoJE=F BraDBF=F KetDBF=F FulRan=T
         wScrn=  0.000000 ICntrl=      2127 IOpCl=  0 I1Cent=           0 NGrid=           0
         NMat0=    1 NMatS0=      1 NMatT0=    0 NMatD0=    1 NMtDS0=    0 NMtDT0=    0
 Symmetry not used in FoFCou.
 Leave Link  703 at Tue Jun 11 10:39:41 2019, MaxMem=   104857600 cpu:              69.4 elap:               1.9
 (Enter /project/6004141/group/g16/g16/l716.exe)
 Dipole        =-1.03967219D+00 1.81714806D+00 9.64514726D-01
 ***** Axes restored to original set *****
 -------------------------------------------------------------------
 Center     Atomic                   Forces (Hartrees/Bohr)
 Number     Number              X              Y              Z
 -------------------------------------------------------------------
      1        6           0.000002434   -0.000023892    0.000032080
      2        1          -0.000003093    0.000007295    0.000006186
      3        8          -0.007375643    0.018956982   -0.018290290
      4        7          -0.000007725   -0.000005990   -0.000024557
      5        1           0.000007554   -0.000000804    0.000017987
      6        7           0.000009147    0.000011361   -0.000011967
      7        1           0.007368057   -0.018943841    0.018284164
      8        1          -0.000012459    0.000011947    0.000011905
      9        6           0.000029196   -0.000011071    0.000011737
     10        1           0.000000313    0.000001147   -0.000007055
     11        1          -0.000001787    0.000006037   -0.000012279
     12        1          -0.000023444    0.000002291    0.000004080
     13        6           0.000002187   -0.000002075    0.000005154
     14        6           0.000000170    0.000000453   -0.000000670
     15        6           0.000009782   -0.000006723   -0.000009570
     16        6           0.000004762    0.000000951   -0.000002352
     17        1           0.000001076   -0.000002149    0.000007335
     18        6          -0.000007770    0.000005074   -0.000004055
     19        1          -0.000000892    0.000000902    0.000001111
     20        6          -0.000004937   -0.000011527   -0.000008500
     21        1           0.000005817   -0.000001320    0.000000590
     22        1          -0.000002413    0.000002948   -0.000005729
     23        1          -0.000000330    0.000002002   -0.000005304
 -------------------------------------------------------------------
 Cartesian Forces:  Max     0.018956982 RMS     0.004655955
 Leave Link  716 at Tue Jun 11 10:39:42 2019, MaxMem=   104857600 cpu:               3.5 elap:               0.1
 (Enter /project/6004141/group/g16/g16/l103.exe)

 GradGradGradGradGradGradGradGradGradGradGradGradGradGradGradGradGradGrad
 Berny optimization.
 FormGI is forming the generalized inverse of G from B-inverse, IUseBI=4.
 Internal  Forces:  Max     0.027335013 RMS     0.002549036
 Search for a local minimum.
 Step number   1 out of a maximum of  125
 All quantities printed in internal units (Hartrees-Bohrs-Radians)
 RMS Force = .25490D-02 SwitMx=.10000D-02 MixMth= 1
 Mixed Optimization -- RFO/linear search
 Second derivative matrix not updated -- first step.
 ITU=  0
     Eigenvalues ---    0.00230   0.00493   0.00497   0.00926   0.01436
     Eigenvalues ---    0.02055   0.02065   0.02092   0.02110   0.02126
     Eigenvalues ---    0.02132   0.02136   0.02139   0.02140   0.04608
     Eigenvalues ---    0.04758   0.05539   0.05882   0.06086   0.06139
     Eigenvalues ---    0.08327   0.11064   0.13804   0.15997   0.16000
     Eigenvalues ---    0.16000   0.16000   0.16000   0.16000   0.16000
     Eigenvalues ---    0.16000   0.16000   0.16000   0.16202   0.16704
     Eigenvalues ---    0.20809   0.22000   0.22000   0.22018   0.23452
     Eigenvalues ---    0.24931   0.30303   0.30334   0.34418   0.34435
     Eigenvalues ---    0.34477   0.35267   0.35287   0.35292   0.35344
     Eigenvalues ---    0.35559   0.41296   0.41650   0.41805   0.43170
     Eigenvalues ---    0.43505   0.44024   0.45410   0.45784   0.46211
     Eigenvalues ---    0.46341   0.47688   0.50497
 RFO step:  Lambda=-1.56187734D-03 EMin= 2.30000000D-03
 Linear search not attempted -- first point.
 Iteration  1 RMS(Cart)=  0.00514049 RMS(Int)=  0.00000065
 Iteration  2 RMS(Cart)=  0.00000120 RMS(Int)=  0.00000000
 Iteration  3 RMS(Cart)=  0.00000000 RMS(Int)=  0.00000000
 ITry= 1 IFail=0 DXMaxC= 3.60D-02 DCOld= 1.00D+10 DXMaxT= 3.00D-01 DXLimC= 3.00D+00 Rises=F
 Variable       Old X    -DE/DX   Delta X   Delta X   Delta X     New X
                                 (Linear)    (Quad)   (Total)
    R1        2.59367  -0.00001   0.00000  -0.00001  -0.00001   2.59366
    R2        3.11238  -0.00002   0.00000  -0.00010  -0.00010   3.11228
    R3        2.87364   0.00000   0.00000   0.00001   0.00001   2.87365
    R4        2.87303  -0.00000   0.00000  -0.00001  -0.00001   2.87302
    R5        1.94160  -0.00000   0.00000  -0.00000  -0.00000   1.94160
    R6        1.88973   0.02734   0.00000   0.05713   0.05713   1.94686
    R7        1.93126   0.00001   0.00000   0.00002   0.00002   1.93127
    R8        2.69829  -0.00001   0.00000  -0.00003  -0.00003   2.69826
    R9        1.93752   0.00002   0.00000   0.00004   0.00004   1.93755
   R10        2.06532   0.00001   0.00000   0.00002   0.00002   2.06534
   R11        2.06630  -0.00000   0.00000  -0.00001  -0.00001   2.06629
   R12        2.06602  -0.00002   0.00000  -0.00007  -0.00007   2.06595
   R13        2.64729  -0.00000   0.00000  -0.00001  -0.00001   2.64727
   R14        2.65298  -0.00001   0.00000  -0.00001  -0.00001   2.65297
   R15        2.63796  -0.00000   0.00000  -0.00001  -0.00001   2.63795
   R16        2.04777  -0.00000   0.00000  -0.00001  -0.00001   2.04776
   R17        2.63709   0.00001   0.00000   0.00002   0.00002   2.63711
   R18        2.05120   0.00000   0.00000   0.00001   0.00001   2.05120
   R19        2.63857  -0.00000   0.00000  -0.00000  -0.00000   2.63857
   R20        2.05243  -0.00000   0.00000  -0.00001  -0.00001   2.05242
   R21        2.64021   0.00001   0.00000   0.00002   0.00002   2.64022
   R22        2.05212   0.00000   0.00000   0.00001   0.00001   2.05213
   R23        2.05203  -0.00000   0.00000  -0.00000  -0.00000   2.05203
    A1        1.76942  -0.00001   0.00000  -0.00016  -0.00016   1.76927
    A2        1.95560   0.00001   0.00000   0.00005   0.00005   1.95565
    A3        1.98543  -0.00000   0.00000  -0.00002  -0.00002   1.98541
    A4        1.87984   0.00001   0.00000   0.00005   0.00005   1.87989
    A5        1.82881   0.00000   0.00000  -0.00000  -0.00000   1.82881
    A6        2.01836  -0.00000   0.00000   0.00005   0.00005   2.01840
    A7        1.76442  -0.00012   0.00000  -0.00073  -0.00073   1.76369
    A8        1.86317   0.00002   0.00000   0.00013   0.00013   1.86330
    A9        1.94032  -0.00003   0.00000  -0.00014  -0.00014   1.94018
   A10        1.88272   0.00001   0.00000   0.00003   0.00003   1.88275
   A11        1.87926  -0.00000   0.00000  -0.00009  -0.00009   1.87916
   A12        1.86727  -0.00001   0.00000  -0.00001  -0.00001   1.86725
   A13        2.02348   0.00002   0.00000   0.00009   0.00009   2.02357
   A14        1.78942  -0.00001   0.00000  -0.00006  -0.00006   1.78936
   A15        1.91677  -0.00000   0.00000  -0.00002  -0.00002   1.91675
   A16        1.96171   0.00001   0.00000   0.00008   0.00008   1.96179
   A17        1.90253   0.00000   0.00000   0.00002   0.00002   1.90255
   A18        1.88868  -0.00001   0.00000  -0.00006  -0.00006   1.88862
   A19        1.89214  -0.00000   0.00000  -0.00002  -0.00002   1.89212
   A20        1.90075  -0.00000   0.00000  -0.00000  -0.00000   1.90074
   A21        2.08320  -0.00000   0.00000  -0.00001  -0.00001   2.08319
   A22        2.12340   0.00000   0.00000   0.00002   0.00002   2.12342
   A23        2.07433  -0.00000   0.00000  -0.00001  -0.00001   2.07432
   A24        2.10492   0.00000   0.00000   0.00001   0.00001   2.10492
   A25        2.07297  -0.00000   0.00000  -0.00000  -0.00000   2.07297
   A26        2.10515  -0.00000   0.00000  -0.00001  -0.00001   2.10514
   A27        2.10366   0.00000   0.00000   0.00001   0.00001   2.10366
   A28        2.10230   0.00000   0.00000   0.00000   0.00000   2.10231
   A29        2.07722  -0.00000   0.00000  -0.00001  -0.00001   2.07721
   A30        2.09788   0.00000   0.00000   0.00001   0.00001   2.09789
   A31        2.08938  -0.00000   0.00000  -0.00002  -0.00002   2.08936
   A32        2.09592   0.00000   0.00000   0.00001   0.00001   2.09593
   A33        2.09789  -0.00000   0.00000  -0.00001  -0.00001   2.09788
   A34        2.08853   0.00000   0.00000  -0.00000  -0.00000   2.08852
   A35        2.09677   0.00000   0.00000   0.00001   0.00001   2.09678
   A36        2.08768  -0.00000   0.00000  -0.00001  -0.00001   2.08766
   A37        2.09864   0.00000   0.00000   0.00002   0.00002   2.09866
   A38        2.09687  -0.00000   0.00000  -0.00001  -0.00001   2.09686
    D1        0.31504   0.00000   0.00000   0.00021   0.00021   0.31524
    D2        2.31514   0.00001   0.00000   0.00021   0.00021   2.31535
    D3       -1.63797   0.00001   0.00000   0.00031   0.00031  -1.63766
    D4        1.58028   0.00000   0.00000   0.00068   0.00068   1.58097
    D5       -0.46466   0.00001   0.00000   0.00079   0.00079  -0.46387
    D6       -2.70128   0.00001   0.00000   0.00075   0.00075  -2.70053
    D7       -0.47552  -0.00000   0.00000   0.00068   0.00068  -0.47484
    D8       -2.52046   0.00001   0.00000   0.00078   0.00078  -2.51967
    D9        1.52610   0.00000   0.00000   0.00074   0.00074   1.52685
   D10       -2.63359  -0.00001   0.00000   0.00059   0.00059  -2.63300
   D11        1.60466   0.00000   0.00000   0.00070   0.00070   1.60536
   D12       -0.63197   0.00000   0.00000   0.00066   0.00066  -0.63131
   D13        1.28191   0.00000   0.00000  -0.00016  -0.00016   1.28176
   D14       -2.89771   0.00000   0.00000  -0.00019  -0.00019  -2.89790
   D15       -0.78870   0.00000   0.00000  -0.00013  -0.00013  -0.78883
   D16       -3.06993  -0.00001   0.00000  -0.00029  -0.00029  -3.07022
   D17       -0.96637  -0.00001   0.00000  -0.00033  -0.00033  -0.96669
   D18        1.14264  -0.00000   0.00000  -0.00026  -0.00026   1.14238
   D19       -1.03195  -0.00000   0.00000  -0.00022  -0.00022  -1.03217
   D20        1.07162  -0.00000   0.00000  -0.00026  -0.00026   1.07136
   D21       -3.10256   0.00000   0.00000  -0.00020  -0.00020  -3.10275
   D22        0.24283  -0.00001   0.00000  -0.00049  -0.00049   0.24234
   D23       -2.97180  -0.00001   0.00000  -0.00049  -0.00049  -2.97229
   D24       -1.67396   0.00001   0.00000  -0.00029  -0.00029  -1.67425
   D25        1.39459   0.00001   0.00000  -0.00029  -0.00029   1.39430
   D26        2.54277  -0.00000   0.00000  -0.00038  -0.00038   2.54239
   D27       -0.67186  -0.00000   0.00000  -0.00038  -0.00038  -0.67224
   D28       -1.41158   0.00000   0.00000  -0.00001  -0.00001  -1.41159
   D29        2.83649  -0.00000   0.00000  -0.00003  -0.00003   2.83646
   D30        0.74679  -0.00000   0.00000  -0.00001  -0.00001   0.74678
   D31        3.07738   0.00000   0.00000   0.00009   0.00009   3.07747
   D32       -0.08274   0.00000   0.00000   0.00010   0.00010  -0.08263
   D33        0.00675   0.00000   0.00000   0.00009   0.00009   0.00685
   D34        3.12983   0.00000   0.00000   0.00010   0.00010   3.12993
   D35       -3.07652  -0.00000   0.00000  -0.00009  -0.00009  -3.07660
   D36        0.06707  -0.00000   0.00000  -0.00015  -0.00015   0.06692
   D37       -0.00760  -0.00000   0.00000  -0.00009  -0.00009  -0.00769
   D38        3.13599  -0.00000   0.00000  -0.00015  -0.00015   3.13584
   D39       -0.00279  -0.00000   0.00000  -0.00003  -0.00003  -0.00282
   D40        3.13670  -0.00000   0.00000  -0.00001  -0.00001   3.13669
   D41       -3.12552  -0.00000   0.00000  -0.00004  -0.00004  -3.12556
   D42        0.01397  -0.00000   0.00000  -0.00002  -0.00002   0.01395
   D43        0.00449   0.00000   0.00000   0.00002   0.00002   0.00451
   D44       -3.13589  -0.00000   0.00000  -0.00002  -0.00002  -3.13591
   D45       -3.13908   0.00000   0.00000   0.00008   0.00008  -3.13899
   D46        0.00373   0.00000   0.00000   0.00005   0.00005   0.00378
   D47       -0.00045  -0.00000   0.00000  -0.00004  -0.00004  -0.00049
   D48        3.13951   0.00000   0.00000   0.00000   0.00000   3.13951
   D49       -3.13993  -0.00000   0.00000  -0.00007  -0.00007  -3.13999
   D50        0.00003  -0.00000   0.00000  -0.00002  -0.00002   0.00001
   D51       -0.00040   0.00000   0.00000   0.00005   0.00005  -0.00035
   D52       -3.14036   0.00000   0.00000   0.00001   0.00001  -3.14036
   D53        3.13997   0.00000   0.00000   0.00008   0.00008   3.14006
   D54        0.00001   0.00000   0.00000   0.00004   0.00004   0.00005
         Item               Value     Threshold  Converged?
 Maximum Force            0.027335     0.000450     NO 
 RMS     Force            0.002549     0.000300     NO 
 Maximum Displacement     0.035993     0.001800     NO 
 RMS     Displacement     0.005141     0.001200     NO 
 Predicted change in Energy=-7.834932D-04
 Lowest energy point so far.  Saving SCF results.
 GradGradGradGradGradGradGradGradGradGradGradGradGradGradGradGradGradGrad

 Leave Link  103 at Tue Jun 11 10:39:42 2019, MaxMem=   104857600 cpu:               7.9 elap:               0.2
 (Enter /project/6004141/group/g16/g16/l202.exe)
                          Input orientation:                          
 ---------------------------------------------------------------------
 Center     Atomic      Atomic             Coordinates (Angstroms)
 Number     Number       Type             X           Y           Z
 ---------------------------------------------------------------------
      1          6           0        1.199825    0.343099   -0.375635
      2          1           0        1.209704   -1.914394    1.304014
      3          8           0        1.772494   -0.598775   -1.193368
      4          7           0        1.806792   -0.089684    1.092944
      5          1           0        2.677467    0.430887    1.216988
      6          7           0        2.124876   -1.481181    1.129537
      7          1           0        2.051193   -1.313837   -0.506059
      8          1           0        1.155254    0.240556    1.812455
      9          6           0        1.696416    1.746473   -0.686073
     10          1           0        1.254522    2.097372   -1.622076
     11          1           0        1.442662    2.461904    0.100925
     12          1           0        2.782873    1.721512   -0.805198
     13          6           0       -0.306418    0.194890   -0.231823
     14          6           0       -0.923982   -0.987944   -0.658409
     15          6           0       -1.086919    1.177863    0.397059
     16          6           0       -2.293223   -1.182955   -0.469203
     17          1           0       -0.322491   -1.741171   -1.153497
     18          6           0       -2.455891    0.983024    0.585147
     19          1           0       -0.634249    2.101895    0.742685
     20          6           0       -3.063566   -0.198391    0.152707
     21          1           0       -2.757950   -2.103654   -0.809714
     22          1           0       -3.047199    1.754995    1.068550
     23          1           0       -4.129097   -0.348517    0.298518
 ---------------------------------------------------------------------
                    Distance matrix (angstroms):
                    1          2          3          4          5
     1  C    0.000000
     2  H    2.813822   0.000000
     3  O    1.372503   2.878282   0.000000
     4  N    1.646946   1.931485   2.342557   0.000000
     5  H    2.174300   2.768077   2.772904   1.021986   0.000000
     6  N    2.539539   1.027451   2.509721   1.427858   1.992237
     7  H    1.867424   2.084500   1.030233   2.028569   2.530844
     8  H    2.190945   2.214789   3.181264   1.025309   1.645582
     9  C    1.520668   4.195150   2.400693   2.559014   2.512940
    10  H    2.152692   4.965711   2.778722   3.529808   3.586394
    11  H    2.185272   4.544632   3.339422   2.761756   2.625904
    12  H    2.142566   4.488145   2.560327   2.799304   2.401261
    13  C    1.520334   3.017699   2.424119   2.510308   3.325405
    14  C    2.522339   3.043358   2.776439   3.366190   4.301236
    15  C    2.554033   3.957158   3.723190   3.234888   3.924393
    16  C    3.813002   3.993721   4.170820   4.521689   5.491402
    17  H    2.695681   2.901205   2.386549   3.508240   4.397360
    18  C    3.833649   4.727408   4.852262   4.424820   5.201484
    19  H    2.776298   4.454866   4.102967   3.299149   3.739612
    20  C    4.329995   4.746684   5.035842   4.961477   5.872660
    21  H    4.673222   4.499550   4.789235   5.339762   6.330496
    22  H    4.702801   5.625041   5.821164   5.192752   5.877678
    23  H    5.415739   5.653830   6.092383   5.994405   6.912335
                    6          7          8          9         10
     6  N    0.000000
     7  H    1.645785   0.000000
     8  H    2.090675   2.931613   0.000000
     9  C    3.727970   3.086060   2.967033   0.000000
    10  H    4.597274   3.676483   3.905589   1.092933   0.000000
    11  H    4.131752   3.872332   2.818923   1.093434   1.771161
    12  H    3.799131   3.136587   3.419719   1.093254   1.773251
    13  C    3.251723   2.812436   2.513492   2.573926   2.826442
    14  C    3.568692   2.996845   3.455084   3.787385   3.897911
    15  C    4.233517   4.107547   2.812336   3.040303   3.225639
    16  C    4.707920   4.346544   4.373139   4.954372   4.967511
    17  H    3.356999   2.497232   3.861067   4.056862   4.176236
    18  C    5.229922   5.174950   3.885603   4.409139   4.458785
    19  H    4.538817   4.520861   2.794873   2.756751   3.026478
    20  C    5.433201   5.276263   4.554764   5.209940   5.202525
    21  H    5.290573   4.883019   5.261583   5.888984   5.865874
    22  H    6.101386   6.155544   4.528524   5.057732   5.085419
    23  H    6.409813   6.306757   5.528416   6.268573   6.217267
                   11         12         13         14         15
    11  H    0.000000
    12  H    1.779159   0.000000
    13  C    2.882595   3.493287   0.000000
    14  C    4.251946   4.593851   1.400877   0.000000
    15  C    2.852233   4.088553   1.403891   2.414805   0.000000
    16  C    5.250417   5.857950   2.429445   1.395941   2.789094
    17  H    4.728126   4.664200   2.144312   1.083630   3.392540
    18  C    4.197650   5.470198   2.430808   2.788888   1.395501
[...]
 ---------------------------------------------------------------------
 Center     Atomic      Atomic             Coordinates (Angstroms)
 Number     Number       Type             X           Y           Z
 ---------------------------------------------------------------------
      1          6           0        1.174525    1.000536   -0.526028
      2          1           0        0.808324   -2.736818    0.004993
      3          8           0        1.845899    0.471493   -1.409150
      4          7           0        1.586773   -1.453671    1.389425
      5          1           0        1.784460   -2.053481    2.186806
      6          7           0        1.698044   -2.280003    0.209508
      7          1           0        1.866545   -1.640452   -0.564871
      8          1           0        0.629782   -1.120989    1.511832
      9          6           0        1.775422    2.069243    0.359999
     10          1           0        1.172368    2.982251    0.352491
     11          1           0        1.818720    1.704542    1.391286
     12          1           0        2.785259    2.291188    0.014422
     13          6           0       -0.243943    0.581240   -0.299124
     14          6           0       -0.797965   -0.393376   -1.146404
     15          6           0       -1.023976    1.101543    0.746515
     16          6           0       -2.100962   -0.841433   -0.951615
     17          1           0       -0.189176   -0.785129   -1.953608
     18          6           0       -2.329543    0.650376    0.942288
     19          1           0       -0.617072    1.851942    1.415222
     20          6           0       -2.868810   -0.321170    0.095754
     21          1           0       -2.519950   -1.594468   -1.611850
     22          1           0       -2.923941    1.055288    1.755242
     23          1           0       -3.884724   -0.671853    0.250396
 ---------------------------------------------------------------------
 Rotational constants (GHZ):           1.3438560           0.8374071           0.7024265
 Leave Link  202 at Tue Jun 11 10:49:01 2019, MaxMem=   104857600 cpu:               0.6 elap:               0.0
 (Enter /project/6004141/group/g16/g16/l601.exe)
 Copying SCF densities to generalized density rwf, IOpCl= 0 IROHF=0.

 **********************************************************************

            Population analysis using the SCF density.

 **********************************************************************

 Orbital symmetries:
       Occupied  (A) (A) (A) (A) (A) (A) (A) (A) (A) (A) (A) (A)
                 (A) (A) (A) (A) (A) (A) (A) (A) (A) (A) (A) (A)
                 (A) (A) (A) (A) (A) (A) (A) (A) (A) (A) (A) (A)
                 (A) (A) (A) (A) (A)
       Virtual   (A) (A) (A) (A) (A) (A) (A) (A) (A) (A) (A) (A)
                 (A) (A) (A) (A) (A) (A) (A) (A) (A) (A) (A) (A)
                 (A) (A) (A) (A) (A) (A) (A) (A) (A) (A) (A) (A)
                 (A) (A) (A) (A) (A) (A) (A) (A) (A) (A) (A) (A)
                 (A) (A) (A) (A) (A) (A) (A) (A) (A) (A) (A) (A)
                 (A) (A) (A) (A) (A) (A) (A) (A) (A) (A) (A) (A)
                 (A) (A) (A) (A) (A) (A) (A) (A) (A) (A) (A) (A)
                 (A) (A) (A) (A) (A) (A) (A) (A) (A) (A) (A) (A)
                 (A) (A) (A) (A) (A) (A) (A) (A) (A) (A) (A) (A)
                 (A) (A) (A) (A) (A) (A) (A) (A) (A) (A) (A) (A)
                 (A) (A) (A) (A) (A) (A) (A) (A) (A) (A) (A) (A)
                 (A) (A) (A) (A) (A) (A) (A) (A) (A) (A) (A) (A)
                 (A) (A) (A) (A) (A) (A) (A) (A) (A) (A) (A) (A)
                 (A) (A) (A) (A) (A) (A) (A) (A) (A) (A) (A) (A)
                 (A) (A) (A) (A) (A) (A) (A) (A) (A) (A) (A) (A)
                 (A) (A) (A) (A)
 The electronic state is 1-A.
 Alpha  occ. eigenvalues --  -19.14391 -14.33536 -14.33192 -10.28410 -10.20548
 Alpha  occ. eigenvalues --  -10.20494 -10.20379 -10.20110 -10.20022 -10.19965
 Alpha  occ. eigenvalues --  -10.18623  -1.04136  -0.93584  -0.86495  -0.77621
 Alpha  occ. eigenvalues --   -0.75575  -0.74020  -0.73123  -0.63240  -0.61117
 Alpha  occ. eigenvalues --   -0.55498  -0.51428  -0.48929  -0.48292  -0.46782
 Alpha  occ. eigenvalues --   -0.46254  -0.44865  -0.44118  -0.43462  -0.42861
 Alpha  occ. eigenvalues --   -0.41886  -0.39099  -0.38016  -0.36118  -0.35581
 Alpha  occ. eigenvalues --   -0.34900  -0.26658  -0.26242  -0.25893  -0.24787
 Alpha  occ. eigenvalues --   -0.24435
 Alpha virt. eigenvalues --   -0.06172  -0.01219   0.03506   0.08503   0.09741
 Alpha virt. eigenvalues --    0.11030   0.12700   0.14847   0.15048   0.15921
 Alpha virt. eigenvalues --    0.16608   0.16905   0.18072   0.18882   0.19670
 Alpha virt. eigenvalues --    0.21839   0.22312   0.23110   0.26810   0.28800
 Alpha virt. eigenvalues --    0.29951   0.32320   0.35777   0.36509   0.47319
 Alpha virt. eigenvalues --    0.51214   0.51543   0.52757   0.53255   0.55434
 Alpha virt. eigenvalues --    0.55865   0.57055   0.58120   0.59479   0.60028
 Alpha virt. eigenvalues --    0.60308   0.61126   0.63450   0.64692   0.65781
 Alpha virt. eigenvalues --    0.67159   0.68050   0.68768   0.69815   0.72727
 Alpha virt. eigenvalues --    0.74000   0.74398   0.77491   0.80136   0.80702
 Alpha virt. eigenvalues --    0.81328   0.82429   0.83399   0.85769   0.86058
 Alpha virt. eigenvalues --    0.87335   0.88641   0.88856   0.90434   0.91348
 Alpha virt. eigenvalues --    0.92488   0.93837   0.95802   0.98061   0.99134
 Alpha virt. eigenvalues --    1.02359   1.04257   1.05285   1.08332   1.11992
 Alpha virt. eigenvalues --    1.12517   1.14573   1.17281   1.21810   1.24234
 Alpha virt. eigenvalues --    1.25594   1.27263   1.29382   1.31768   1.35097
 Alpha virt. eigenvalues --    1.36556   1.38621   1.39559   1.39866   1.41079
 Alpha virt. eigenvalues --    1.42293   1.43265   1.44841   1.45076   1.60306
 Alpha virt. eigenvalues --    1.67791   1.72224   1.75271   1.75833   1.77192
 Alpha virt. eigenvalues --    1.78955   1.81175   1.83042   1.85898   1.87863
 Alpha virt. eigenvalues --    1.91350   1.91733   1.92646   1.94065   1.94245
 Alpha virt. eigenvalues --    1.96772   1.97511   1.99621   2.02775   2.03152
 Alpha virt. eigenvalues --    2.05777   2.06242   2.07327   2.09320   2.10911
 Alpha virt. eigenvalues --    2.12067   2.16260   2.17778   2.23386   2.25357
 Alpha virt. eigenvalues --    2.26419   2.27236   2.28900   2.29605   2.34625
 Alpha virt. eigenvalues --    2.36563   2.37678   2.39070   2.39946   2.41190
 Alpha virt. eigenvalues --    2.44063   2.45141   2.46240   2.48223   2.49700
 Alpha virt. eigenvalues --    2.51445   2.53441   2.55578   2.56744   2.58765
 Alpha virt. eigenvalues --    2.59297   2.63623   2.64909   2.65169   2.68565
 Alpha virt. eigenvalues --    2.72335   2.74328   2.75374   2.77308   2.81526
 Alpha virt. eigenvalues --    2.82866   2.84971   2.87720   2.94084   2.96423
 Alpha virt. eigenvalues --    3.02857   3.05132   3.05511   3.08200   3.18971
 Alpha virt. eigenvalues --    3.22607   3.23697   3.25035   3.29377   3.33307
 Alpha virt. eigenvalues --    3.37816   3.39551   3.41917   3.42541   3.45626
 Alpha virt. eigenvalues --    3.50879   3.58227   3.78154   3.88934   4.05692
 Alpha virt. eigenvalues --    4.13144   4.16030   4.17603   4.19848   4.37067
 Alpha virt. eigenvalues --    4.42844   4.43683   4.60000   4.83588
          Condensed to atoms (all electrons):
               1          2          3          4          5          6
     1  C    4.575286   0.000692   0.517553   0.008124   0.000010  -0.001019
     2  H    0.000692   0.495952  -0.000078  -0.040375  -0.000129   0.342181
     3  O    0.517553  -0.000078   8.120826  -0.000741   0.000011  -0.006908
     4  N    0.008124  -0.040375  -0.000741   6.728686   0.344471   0.216629
     5  H    0.000010  -0.000129   0.000011   0.344471   0.468586  -0.047299
     6  N   -0.001019   0.342181  -0.006908   0.216629  -0.047299   6.731651
     7  H   -0.000389  -0.044388   0.023917  -0.053384   0.005574   0.343436
     8  H   -0.002946  -0.010494  -0.000017   0.328153  -0.037695  -0.042303
     9  C    0.342839  -0.000008  -0.085022  -0.001884   0.000006  -0.000112
    10  H   -0.018003   0.000001   0.001862   0.000102  -0.000001  -0.000003
    11  H   -0.020135   0.000018   0.000578   0.005276  -0.000088   0.000011
    12  H   -0.021913   0.000000   0.005345   0.000000   0.000001   0.000002
    13  C    0.282751  -0.000141  -0.083091  -0.004745   0.000141  -0.000817
    14  C   -0.034415   0.003146  -0.003735  -0.000934   0.000095   0.002532
    15  C   -0.039219  -0.000202   0.004507  -0.001838   0.000063  -0.000164
    16  C    0.006419   0.000884   0.001060   0.000075  -0.000008  -0.000584
    17  H   -0.011157   0.000314   0.016186  -0.000050   0.000002   0.000113
    18  C    0.004750  -0.000015  -0.000073  -0.000152  -0.000000   0.000027
    19  H   -0.011445  -0.000002   0.000070  -0.000086   0.000004   0.000001
    20  C    0.000078   0.000027  -0.000016   0.000026  -0.000004  -0.000015
    21  H   -0.000144   0.000019   0.000004  -0.000001  -0.000000  -0.000007
    22  H   -0.000121   0.000000   0.000000  -0.000001  -0.000000   0.000000
    23  H    0.000007  -0.000000   0.000000   0.000000   0.000000   0.000000
               7          8          9         10         11         12
     1  C   -0.000389  -0.002946   0.342839  -0.018003  -0.020135  -0.021913
     2  H   -0.044388  -0.010494  -0.000008   0.000001   0.000018   0.000000
     3  O    0.023917  -0.000017  -0.085022   0.001862   0.000578   0.005345
     4  N   -0.053384   0.328153  -0.001884   0.000102   0.005276   0.000000
     5  H    0.005574  -0.037695   0.000006  -0.000001  -0.000088   0.000001
     6  N    0.343436  -0.042303  -0.000112  -0.000003   0.000011   0.000002
     7  H    0.453167   0.001660   0.000703  -0.000004  -0.000313  -0.000006
     8  H    0.001660   0.496297   0.000089  -0.000020  -0.000369  -0.000004
     9  C    0.000703   0.000089   5.164126   0.358177   0.361397   0.359856
    10  H   -0.000004  -0.000020   0.358177   0.560974  -0.025321  -0.022747
    11  H   -0.000313  -0.000369   0.361397  -0.025321   0.546969  -0.021162
    12  H   -0.000006  -0.000004   0.359856  -0.022747  -0.021162   0.563337
    13  C   -0.003353   0.005266  -0.110587   0.000535   0.000607   0.005892
    14  C    0.000564  -0.001439   0.009068  -0.000397  -0.000233  -0.000146
    15  C   -0.000039   0.006405  -0.006938   0.000493  -0.000231   0.000060
    16  C    0.000116   0.000001  -0.000114  -0.000005  -0.000002   0.000002
    17  H    0.001741  -0.000018   0.000647  -0.000026  -0.000016  -0.000018
    18  C   -0.000003   0.000413  -0.000052   0.000126   0.000090  -0.000002
    19  H    0.000000   0.000139   0.007380   0.000716   0.000521  -0.000103
    20  C    0.000006   0.000097  -0.000010   0.000001   0.000001   0.000000
    21  H   -0.000001   0.000003   0.000002   0.000000  -0.000000  -0.000000
    22  H    0.000000   0.000002   0.000008  -0.000004  -0.000003  -0.000000
    23  H    0.000000  -0.000001  -0.000000   0.000000   0.000000  -0.000000
              13         14         15         16         17         18
     1  C    0.282751  -0.034415  -0.039219   0.006419  -0.011157   0.004750
     2  H   -0.000141   0.003146  -0.000202   0.000884   0.000314  -0.000015
     3  O   -0.083091  -0.003735   0.004507   0.001060   0.016186  -0.000073
     4  N   -0.004745  -0.000934  -0.001838   0.000075  -0.000050  -0.000152
     5  H    0.000141   0.000095   0.000063  -0.000008   0.000002  -0.000000
     6  N   -0.000817   0.002532  -0.000164  -0.000584   0.000113   0.000027
     7  H   -0.003353   0.000564  -0.000039   0.000116   0.001741  -0.000003
     8  H    0.005266  -0.001439   0.006405   0.000001  -0.000018   0.000413
     9  C   -0.110587   0.009068  -0.006938  -0.000114   0.000647  -0.000052
    10  H    0.000535  -0.000397   0.000493  -0.000005  -0.000026   0.000126
    11  H    0.000607  -0.000233  -0.000231  -0.000002  -0.000016   0.000090
    12  H    0.005892  -0.000146   0.000060   0.000002  -0.000018  -0.000002
    13  C    5.050924   0.486140   0.494970  -0.026224  -0.047361  -0.021097
    14  C    0.486140   4.971167  -0.075518   0.492886   0.369089  -0.040079
    15  C    0.494970  -0.075518   4.963408  -0.038942   0.005879   0.514996
    16  C   -0.026224   0.492886  -0.038942   4.865141  -0.038864  -0.032408
    17  H   -0.047361   0.369089   0.005879  -0.038864   0.589598   0.000198
    18  C   -0.021097  -0.040079   0.514996  -0.032408   0.000198   4.835255
    19  H   -0.039306   0.005377   0.371158   0.000266  -0.000147  -0.039556
    20  C   -0.035507  -0.036212  -0.039941   0.530391   0.004517   0.540977
    21  H    0.003594  -0.037548   0.000754   0.374162  -0.005152   0.004388
    22  H    0.003461   0.000740  -0.035838   0.004370   0.000016   0.373080
    23  H    0.000638   0.004391   0.004682  -0.039691  -0.000157  -0.039462
              19         20         21         22         23
     1  C   -0.011445   0.000078  -0.000144  -0.000121   0.000007
     2  H   -0.000002   0.000027   0.000019   0.000000  -0.000000
     3  O    0.000070  -0.000016   0.000004   0.000000   0.000000
     4  N   -0.000086   0.000026  -0.000001  -0.000001   0.000000
     5  H    0.000004  -0.000004  -0.000000  -0.000000   0.000000
     6  N    0.000001  -0.000015  -0.000007   0.000000   0.000000
     7  H    0.000000   0.000006  -0.000001   0.000000   0.000000
     8  H    0.000139   0.000097   0.000003   0.000002  -0.000001
     9  C    0.007380  -0.000010   0.000002   0.000008  -0.000000
    10  H    0.000716   0.000001   0.000000  -0.000004   0.000000
    11  H    0.000521   0.000001  -0.000000  -0.000003   0.000000
    12  H   -0.000103   0.000000  -0.000000  -0.000000  -0.000000
    13  C   -0.039306  -0.035507   0.003594   0.003461   0.000638
    14  C    0.005377  -0.036212  -0.037548   0.000740   0.004391
    15  C    0.371158  -0.039941   0.000754  -0.035838   0.004682
    16  C    0.000266   0.530391   0.374162   0.004370  -0.039691
    17  H   -0.000147   0.004517  -0.005152   0.000016  -0.000157
    18  C   -0.039556   0.540977   0.004388   0.373080  -0.039462
    19  H    0.590742   0.004644   0.000015  -0.005572  -0.000167
    20  C    0.004644   4.821856  -0.040117  -0.039740   0.374200
    21  H    0.000015  -0.040117   0.592970  -0.000167  -0.005534
    22  H   -0.005572  -0.039740  -0.000167   0.591640  -0.005583
    23  H   -0.000167   0.374200  -0.005534  -0.005583   0.591936
 Mulliken charges:
               1
     1  C    0.422398
     2  H    0.252599
     3  O   -0.512237
     4  N   -0.527349
     5  H    0.266263
     6  N   -0.537349
     7  H    0.270997
     8  H    0.256780
     9  C   -0.399571
    10  H    0.143545
    11  H    0.152406
    12  H    0.131605
    13  C    0.037310
    14  C   -0.114537
    15  C   -0.128504
    16  C   -0.098929
    17  H    0.114666
    18  C   -0.101400
    19  H    0.115352
    20  C   -0.085258
    21  H    0.112760
    22  H    0.113712
    23  H    0.114741
 Sum of Mulliken charges =   0.00000
 Mulliken charges with hydrogens summed into heavy atoms:
               1
     1  C    0.422398
     3  O   -0.512237
     4  N   -0.004306
     6  N   -0.013754
     9  C    0.027985
    13  C    0.037310
    14  C    0.000129
    15  C   -0.013152
    16  C    0.013831
    18  C    0.012313
    20  C    0.029483
 Electronic spatial extent (au):  <R**2>=           1861.7339
 Charge=              0.0000 electrons
 Dipole moment (field-independent basis, Debye):
    X=             -5.4148    Y=              1.1726    Z=              2.5193  Tot=              6.0862
 Quadrupole moment (field-independent basis, Debye-Ang):
   XX=            -70.5555   YY=            -61.9796   ZZ=            -63.1176
   XY=              7.8563   XZ=              1.7903   YZ=              3.3219
 Traceless Quadrupole moment (field-independent basis, Debye-Ang):
   XX=             -5.3379   YY=              3.2380   ZZ=              2.0999
   XY=              7.8563   XZ=              1.7903   YZ=              3.3219
 Octapole moment (field-independent basis, Debye-Ang**2):
  XXX=            -36.5260  YYY=              9.0005  ZZZ=             13.1903  XYY=             -6.2967
  XXY=              8.4745  XXZ=              9.7141  XZZ=             -2.5714  YZZ=            -11.4692
  YYZ=              4.3825  XYZ=             -4.5191
 Hexadecapole moment (field-independent basis, Debye-Ang**3):
 XXXX=          -1270.1561 YYYY=           -733.4670 ZZZZ=           -381.2351 XXXY=             61.2162
 XXXZ=            -17.5810 YYYX=             50.7318 YYYZ=             -5.6372 ZZZX=             14.3779
 ZZZY=            -11.7138 XXYY=           -366.9723 XXZZ=           -286.6043 YYZZ=           -160.5256
 XXYZ=             17.5885 YYXZ=              4.7916 ZZXY=            -18.1667
 N-N= 5.993252309963D+02 E-N=-2.353978261031D+03  KE= 4.920905223808D+02
 No NMR shielding tensors so no spin-rotation constants.
 Leave Link  601 at Tue Jun 11 10:49:01 2019, MaxMem=   104857600 cpu:              14.6 elap:               0.4
 (Enter /project/6004141/group/g16/g16/l9999.exe)
 1\1\GINC-BLG9134\FOpt\RB3LYP\6-31G(d,p)\C8H12N2O1\RZK\11-Jun-2019\0\\#
 p opt rb3lyp/6-31g(d,p) scrf=(iefpcm,solvent=acetonitrile) empiricaldi
 spersion=gd3\\Title Card Required\\0,1\C,1.0696965895,0.6468830409,-1.
 1907620145\H,1.0615675023,-2.2026588355,1.3120259753\O,1.7315570896,-0
 .2511015075,-1.7066096419\N,1.8053851006,-0.3407255739,1.6980846997\H,
 2.1009000913,-0.3980568775,2.6697084765\N,1.9186657238,-1.6724971585,1
 .1494838298\H,1.9852142373,-1.5544024991,0.1401742722\H,0.8319300652,-
 0.0346731351,1.71258705\C,1.6263468137,2.0496517537,-1.087641963\H,0.9
 468064948,2.7843445239,-1.5300957557\H,1.761605959,2.3105432143,-0.033
 09194\H,2.5910495005,2.0874507924,-1.5939765158\C,-0.2911886939,0.3624
 709905,-0.6371836119\C,-0.8071285172,-0.938515874,-0.7634293726\C,-1.0
 508151274,1.33760185,0.0296112991\C,-2.0525629722,-1.2598264532,-0.232
 2491514\H,-0.2149904832,-1.6827346862,-1.2841816646\C,-2.2984774076,1.
 0141232691,0.5635460962\H,-0.6721638916,2.3474271631,0.1423663587\C,-2
 .7999671293,-0.2832857136,0.4348353315\H,-2.4425047248,-2.2677160014,-
 0.3353341284\H,-2.8771109257,1.7730792606,1.0805835956\H,-3.7707212948
 ,-0.5334125431,0.852024775\\Version=ES64L-G16RevA.03\State=1-A\HF=-496
 .8137832\RMSD=6.299e-09\RMSF=1.473e-05\Dipole=-2.1005539,0.8408856,0.7
 83668\Quadrupole=-4.7812371,4.8609737,-0.0797366,5.2812095,-1.6854822,
 0.0058277\PG=C01 [X(C8H12N2O1)]\\@


 EXPERIMENTALISTS THINK SILICON IS REALLY FUN TO USE
     ITS PLACE IN NOVEL COMPOUNDS IS CERTAIN TO AMUSE
 THEY SIT ALL DAY IN LABORATORIES MAKING ALL THIS SLUDGE
     "LOADED WITH THE SILICON THEY SAY", TO ME IT LOOKS LIKE FUDGE.
 FOR HAPPY THOUGH THEY BE WITH CRUD, I'D LIKE TO KNOW A LITTLE
      ABOUT THE PI BONDS ON THE EDGE AND SIGMAS IN THE MIDDLE.

 SO LETS DERIVE A WAVEFUNCTION.....6-31G*
     USE AN OPTIMAL GEOMETRY AND SEE WHERE ELECTRONS ARE.
 BUT WHAT OF CORRELATION?  ASKS THE WIRY LITTLE SKEPTIC.
     WE'LL THROW IN PERTURBATION AS AN ELECTRON ANTISEPTIC.
 AND WHEN THE PROGRAM GIVES US ANSWERS IN THEM WE CAN TRUST
     SINCE NOBODY CAN MAKE THE STUFF, WE HAVE NO CHOICE, WE MUST.

 SO THEORY GUYS HAVE GOT IT MADE, IN ROOMS FREE OF POLLUTION.
     INSTEAD OF PROBLEMS WITH THE REFLUX, THEY HAVE ONLY SOLUTIONS.
 AND WHEN THE FEDS ANNOUNCE THE LIST OF CARCINOGENIC TERRORS,
     THE THEORISTS SIT SAFELY AT THEIR TERMINALS FIXING ERRORS.
 IN OTHER WORDS, EXPERIMENTALISTS WILL LIKELY DIE OF CANCER
     FROM WORKING HARD YET FRUITLESSLY...TILL THEORY GIVES THE ANSWER.
          -- THOMAS A. HOLME, 1983
 Job cpu time:       0 days  5 hours 49 minutes 52.4 seconds.
 Elapsed time:       0 days  0 hours  9 minutes 28.0 seconds.
 File lengths (MBytes):  RWF=    149 Int=      0 D2E=      0 Chk=      9 Scr=      2
 Normal termination of Gaussian 16 at Tue Jun 11 10:49:02 2019.
