 Entering Gaussian System, Link 0=g16
 Initial command:
 /opt/software/gaussian/g16.b01/l1.exe "/localscratch/rzk.14754390.0/Gau-7635.inp" -scrdir="/localscratch/rzk.14754390.0/"
 Entering Link 1 = /opt/software/gaussian/g16.b01/l1.exe PID=      7641.
  
 Copyright (c) 1988-2017, Gaussian, Inc.  All Rights Reserved.
  
 This is part of the Gaussian(R) 16 program.  It is based on
 the Gaussian(R) 09 system (copyright 2009, Gaussian, Inc.),
 the Gaussian(R) 03 system (copyright 2003, Gaussian, Inc.),
 the Gaussian(R) 98 system (copyright 1998, Gaussian, Inc.),
 the Gaussian(R) 94 system (copyright 1995, Gaussian, Inc.),
 the Gaussian 92(TM) system (copyright 1992, Gaussian, Inc.),
 the Gaussian 90(TM) system (copyright 1990, Gaussian, Inc.),
 the Gaussian 88(TM) system (copyright 1988, Gaussian, Inc.),
 the Gaussian 86(TM) system (copyright 1986, Carnegie Mellon
 University), and the Gaussian 82(TM) system (copyright 1983,
 Carnegie Mellon University). Gaussian is a federally registered
 trademark of Gaussian, Inc.
  
 This software contains proprietary and confidential information,
 including trade secrets, belonging to Gaussian, Inc.
  
 This software is provided under written license and may be
 used, copied, transmitted, or stored only in accord with that
 written license.
  
 The following legend is applicable only to US Government
 contracts under FAR:
  
                    RESTRICTED RIGHTS LEGEND
  
 Use, reproduction and disclosure by the US Government is
 subject to restrictions as set forth in subparagraphs (a)
 and (c) of the Commercial Computer Software - Restricted
 Rights clause in FAR 52.227-19.
  
 Gaussian, Inc.
 340 Quinnipiac St., Bldg. 40, Wallingford CT 06492
  
  
 ---------------------------------------------------------------
 Warning -- This program may not be used in any manner that
 competes with the business of Gaussian, Inc. or will provide
 assistance to any competitor of Gaussian, Inc.  The licensee
 of this program is prohibited from giving any competitor of
 Gaussian, Inc. access to this program.  By using this program,
 the user acknowledges that Gaussian, Inc. is engaged in the
 business of creating and licensing software in the field of
 computational chemistry and represents and warrants to the
 licensee that it is not a competitor of Gaussian, Inc. and that
 it will not use this program in any manner prohibited above.
 ---------------------------------------------------------------
  

 Cite this work as:
 Gaussian 16, Revision B.01,
 M. J. Frisch, G. W. Trucks, H. B. Schlegel, G. E. Scuseria, 
 M. A. Robb, J. R. Cheeseman, G. Scalmani, V. Barone, 
 G. A. Petersson, H. Nakatsuji, X. Li, M. Caricato, A. V. Marenich, 
 J. Bloino, B. G. Janesko, R. Gomperts, B. Mennucci, H. P. Hratchian, 
 J. V. Ortiz, A. F. Izmaylov, J. L. Sonnenberg, D. Williams-Young, 
 F. Ding, F. Lipparini, F. Egidi, J. Goings, B. Peng, A. Petrone, 
 T. Henderson, D. Ranasinghe, V. G. Zakrzewski, J. Gao, N. Rega, 
 G. Zheng, W. Liang, M. Hada, M. Ehara, K. Toyota, R. Fukuda, 
 J. Hasegawa, M. Ishida, T. Nakajima, Y. Honda, O. Kitao, H. Nakai, 
 T. Vreven, K. Throssell, J. A. Montgomery, Jr., J. E. Peralta, 
 F. Ogliaro, M. J. Bearpark, J. J. Heyd, E. N. Brothers, K. N. Kudin, 
 V. N. Staroverov, T. A. Keith, R. Kobayashi, J. Normand, 
 K. Raghavachari, A. P. Rendell, J. C. Burant, S. S. Iyengar, 
 J. Tomasi, M. Cossi, J. M. Millam, M. Klene, C. Adamo, R. Cammi, 
 J. W. Ochterski, R. L. Martin, K. Morokuma, O. Farkas, 
 J. B. Foresman, and D. J. Fox, Gaussian, Inc., Wallingford CT, 2016.
 
 ******************************************
 Gaussian 16:  ES64L-G16RevB.01 20-Dec-2017
                14-May-2019 
 ******************************************
 %NProcShared=32
 Will use up to   32 processors via shared memory.
 %chk=AH-A.chk
 ----------------------------------------------------------------------
 #p opt freq ub3lyp/6-31g(d,p) scrf=(iefpcm,solvent=acetonitrile) empir
 icaldispersion=gd3
 ----------------------------------------------------------------------
 1/18=20,19=15,26=3,38=1/1,3;
 2/9=110,12=2,17=6,18=5,40=1/2;
 3/5=1,6=6,7=101,11=2,25=1,30=1,70=2201,71=1,72=2,74=-5,116=2,124=31/1,2,3;
 4//1;
 5/5=2,38=5,53=2/2;
 6/7=2,8=2,9=2,10=2,28=1/1;
 7//1,2,3,16;
 1/18=20,19=15,26=3/3(2);
 2/9=110/2;
 99//99;
 2/9=110/2;
 3/5=1,6=6,7=101,11=2,25=1,30=1,70=2205,71=1,72=2,74=-5,116=2,124=31/1,2,3;
 4/5=5,16=3,69=1/1;
 5/5=2,38=5,53=2/2;
 7//1,2,3,16;
 1/18=20,19=15,26=3/3(-5);
 2/9=110/2;
 6/7=2,8=2,9=2,10=2,19=2,28=1/1;
 99/9=1/99;
 Leave Link    1 at Tue May 14 12:39:40 2019, MaxMem=           0 cpu:               2.6 elap:               0.1
 (Enter /opt/software/gaussian/g16.b01/l101.exe)
 -------------------
 Title Card Required
 -------------------
 Symbolic Z-matrix:
 Charge =  0 Multiplicity = 2
 C                    -0.58619  -1.28297  -0.5054 
 C                     0.61273  -1.27297   0.55408 
 O                    -1.19904  -2.50082  -0.37817 
 C                     0.00396  -1.33742  -1.95848 
 H                    -0.81204  -1.42633  -2.67626 
 H                     0.56191  -0.41921  -2.14596 
 H                     0.67727  -2.18831  -2.045 
 C                     0.01928  -1.31789   1.97475 
 H                    -0.60815  -0.45546   2.20263 
 H                    -0.59625  -2.21717   2.07302 
 H                     0.834    -1.36701   2.70068 
 C                    -1.56928  -0.12094  -0.34634 
 C                    -2.76856  -0.33629   0.34775 
 C                    -1.3149    1.1584   -0.86066 
 C                    -3.68676   0.69744   0.53029 
 H                    -2.97808  -1.32513   0.74179 
 C                    -2.23214   2.19501  -0.67865 
 H                    -0.39594   1.35966  -1.39839 
 C                    -3.42079   1.96956   0.01799 
 H                    -4.60873   0.50938   1.07268 
 H                    -2.01565   3.17882  -1.08432 
 H                    -4.13339   2.77668   0.15931 
 C                     1.56095  -0.09892   0.35825 
 C                     2.7169   -0.24822  -0.42446 
 C                     1.30607   1.15392   0.93711 
 C                     3.58864   0.82244  -0.62515 
 H                     2.93037  -1.2138   -0.86596 
 C                     2.17603   2.22572   0.73499 
 H                     0.41843   1.30617   1.5392 
 C                     3.32122   2.0654   -0.04775 
 H                     4.47843   0.68335  -1.23226 
 H                     1.95677   3.18643   1.19134 
 H                     3.99872   2.89961  -0.20376 
 O                     1.35488  -2.46964   0.34309 
 H                     0.68264  -3.15765   0.20194 
 
 ITRead=  0  0  0  0  0  0  0  0  0  0  0  0  0  0  0  0  0  0  0  0
 ITRead=  0  0  0  0  0  0  0  0  0  0  0  0  0  0  0
 MicOpt= -1 -1 -1 -1 -1 -1 -1 -1 -1 -1 -1 -1 -1 -1 -1 -1 -1 -1 -1 -1
 MicOpt= -1 -1 -1 -1 -1 -1 -1 -1 -1 -1 -1 -1 -1 -1 -1
 NAtoms=     35 NQM=       35 NQMF=       0 NMMI=      0 NMMIF=      0
                NMic=       0 NMicF=      0.
                    Isotopes and Nuclear Properties:
 (Nuclear quadrupole moments (NQMom) in fm**2, nuclear magnetic moments (NMagM)
  in nuclear magnetons)

  Atom         1           2           3           4           5           6           7           8           9          10
 IAtWgt=          12          12          16          12           1           1           1          12           1           1
 AtmWgt=  12.0000000  12.0000000  15.9949146  12.0000000   1.0078250   1.0078250   1.0078250  12.0000000   1.0078250   1.0078250
 NucSpn=           0           0           0           0           1           1           1           0           1           1
 AtZEff=  -0.0000000  -0.0000000  -0.0000000  -0.0000000  -0.0000000  -0.0000000  -0.0000000  -0.0000000  -0.0000000  -0.0000000
 NQMom=    0.0000000   0.0000000   0.0000000   0.0000000   0.0000000   0.0000000   0.0000000   0.0000000   0.0000000   0.0000000
 NMagM=    0.0000000   0.0000000   0.0000000   0.0000000   2.7928460   2.7928460   2.7928460   0.0000000   2.7928460   2.7928460
 AtZNuc=   6.0000000   6.0000000   8.0000000   6.0000000   1.0000000   1.0000000   1.0000000   6.0000000   1.0000000   1.0000000

  Atom        11          12          13          14          15          16          17          18          19          20
 IAtWgt=           1          12          12          12          12           1          12           1          12           1
 AtmWgt=   1.0078250  12.0000000  12.0000000  12.0000000  12.0000000   1.0078250  12.0000000   1.0078250  12.0000000   1.0078250
 NucSpn=           1           0           0           0           0           1           0           1           0           1
 AtZEff=  -0.0000000  -0.0000000  -0.0000000  -0.0000000  -0.0000000  -0.0000000  -0.0000000  -0.0000000  -0.0000000  -0.0000000
 NQMom=    0.0000000   0.0000000   0.0000000   0.0000000   0.0000000   0.0000000   0.0000000   0.0000000   0.0000000   0.0000000
 NMagM=    2.7928460   0.0000000   0.0000000   0.0000000   0.0000000   2.7928460   0.0000000   2.7928460   0.0000000   2.7928460
 AtZNuc=   1.0000000   6.0000000   6.0000000   6.0000000   6.0000000   1.0000000   6.0000000   1.0000000   6.0000000   1.0000000

  Atom        21          22          23          24          25          26          27          28          29          30
 IAtWgt=           1           1          12          12          12          12           1          12           1          12
 AtmWgt=   1.0078250   1.0078250  12.0000000  12.0000000  12.0000000  12.0000000   1.0078250  12.0000000   1.0078250  12.0000000
 NucSpn=           1           1           0           0           0           0           1           0           1           0
 AtZEff=  -0.0000000  -0.0000000  -0.0000000  -0.0000000  -0.0000000  -0.0000000  -0.0000000  -0.0000000  -0.0000000  -0.0000000
 NQMom=    0.0000000   0.0000000   0.0000000   0.0000000   0.0000000   0.0000000   0.0000000   0.0000000   0.0000000   0.0000000
 NMagM=    2.7928460   2.7928460   0.0000000   0.0000000   0.0000000   0.0000000   2.7928460   0.0000000   2.7928460   0.0000000
 AtZNuc=   1.0000000   1.0000000   6.0000000   6.0000000   6.0000000   6.0000000   1.0000000   6.0000000   1.0000000   6.0000000

  Atom        31          32          33          34          35
 IAtWgt=           1           1           1          16           1
 AtmWgt=   1.0078250   1.0078250   1.0078250  15.9949146   1.0078250
 NucSpn=           1           1           1           0           1
 AtZEff=  -0.0000000  -0.0000000  -0.0000000  -0.0000000  -0.0000000
 NQMom=    0.0000000   0.0000000   0.0000000   0.0000000   0.0000000
 NMagM=    2.7928460   2.7928460   2.7928460   0.0000000   2.7928460
 AtZNuc=   1.0000000   1.0000000   1.0000000   8.0000000   1.0000000
 Leave Link  101 at Tue May 14 12:39:40 2019, MaxMem=   104857600 cpu:               5.8 elap:               0.2
 (Enter /opt/software/gaussian/g16.b01/l103.exe)

 GradGradGradGradGradGradGradGradGradGradGradGradGradGradGradGradGradGrad
 Berny optimization.
 Initialization pass.
                           ----------------------------
                           !    Initial Parameters    !
                           ! (Angstroms and Degrees)  !
 --------------------------                            --------------------------
 ! Name  Definition              Value          Derivative Info.                !
 --------------------------------------------------------------------------------
 ! R1    R(1,2)                  1.6            estimate D2E/DX2                !
 ! R2    R(1,3)                  1.3693         estimate D2E/DX2                !
 ! R3    R(1,4)                  1.5693         estimate D2E/DX2                !
 ! R4    R(1,12)                 1.5304         estimate D2E/DX2                !
 ! R5    R(2,8)                  1.5403         estimate D2E/DX2                !
 ! R6    R(2,23)                 1.5218         estimate D2E/DX2                !
 ! R7    R(2,34)                 1.4238         estimate D2E/DX2                !
 ! R8    R(4,5)                  1.0904         estimate D2E/DX2                !
 ! R9    R(4,6)                  1.0907         estimate D2E/DX2                !
 ! R10   R(4,7)                  1.0885         estimate D2E/DX2                !
 ! R11   R(8,9)                  1.0906         estimate D2E/DX2                !
 ! R12   R(8,10)                 1.0942         estimate D2E/DX2                !
 ! R13   R(8,11)                 1.0923         estimate D2E/DX2                !
 ! R14   R(12,13)                1.4023         estimate D2E/DX2                !
 ! R15   R(12,14)                1.4021         estimate D2E/DX2                !
 ! R16   R(13,15)                1.3946         estimate D2E/DX2                !
 ! R17   R(13,16)                1.0849         estimate D2E/DX2                !
 ! R18   R(14,17)                1.3961         estimate D2E/DX2                !
 ! R19   R(14,18)                1.0836         estimate D2E/DX2                !
 ! R20   R(15,19)                1.397          estimate D2E/DX2                !
 ! R21   R(15,20)                1.0861         estimate D2E/DX2                !
 ! R22   R(17,19)                1.3961         estimate D2E/DX2                !
 ! R23   R(17,21)                1.086          estimate D2E/DX2                !
 ! R24   R(19,22)                1.0859         estimate D2E/DX2                !
 ! R25   R(23,24)                1.404          estimate D2E/DX2                !
 ! R26   R(23,25)                1.4034         estimate D2E/DX2                !
 ! R27   R(24,26)                1.3952         estimate D2E/DX2                !
 ! R28   R(24,27)                1.083          estimate D2E/DX2                !
 ! R29   R(25,28)                1.3951         estimate D2E/DX2                !
 ! R30   R(25,29)                1.0833         estimate D2E/DX2                !
 ! R31   R(26,30)                1.3964         estimate D2E/DX2                !
 ! R32   R(26,31)                1.0861         estimate D2E/DX2                !
 ! R33   R(28,30)                1.3964         estimate D2E/DX2                !
 ! R34   R(28,32)                1.086          estimate D2E/DX2                !
 ! R35   R(30,33)                1.0859         estimate D2E/DX2                !
 ! R36   R(34,35)                0.9722         estimate D2E/DX2                !
 ! A1    A(2,1,3)              106.2248         estimate D2E/DX2                !
 ! A2    A(2,1,4)              109.3634         estimate D2E/DX2                !
 ! A3    A(2,1,12)             114.0659         estimate D2E/DX2                !
 ! A4    A(3,1,4)              102.9142         estimate D2E/DX2                !
 ! A5    A(3,1,12)             112.22           estimate D2E/DX2                !
 ! A6    A(4,1,12)             111.3555         estimate D2E/DX2                !
 ! A7    A(1,2,8)              108.7759         estimate D2E/DX2                !
 ! A8    A(1,2,23)             112.7375         estimate D2E/DX2                !
 ! A9    A(1,2,34)             106.6901         estimate D2E/DX2                !
 ! A10   A(8,2,23)             112.411          estimate D2E/DX2                !
 ! A11   A(8,2,34)             108.2397         estimate D2E/DX2                !
 ! A12   A(23,2,34)            107.7314         estimate D2E/DX2                !
 ! A13   A(1,4,5)              109.3248         estimate D2E/DX2                !
 ! A14   A(1,4,6)              108.804          estimate D2E/DX2                !
 ! A15   A(1,4,7)              109.4716         estimate D2E/DX2                !
 ! A16   A(5,4,6)              109.7748         estimate D2E/DX2                !
 ! A17   A(5,4,7)              110.2938         estimate D2E/DX2                !
 ! A18   A(6,4,7)              109.148          estimate D2E/DX2                !
 ! A19   A(2,8,9)              113.0366         estimate D2E/DX2                !
 ! A20   A(2,8,10)             108.8767         estimate D2E/DX2                !
 ! A21   A(2,8,11)             109.0814         estimate D2E/DX2                !
 ! A22   A(9,8,10)             107.9098         estimate D2E/DX2                !
 ! A23   A(9,8,11)             109.015          estimate D2E/DX2                !
 ! A24   A(10,8,11)            108.8408         estimate D2E/DX2                !
 ! A25   A(1,12,13)            118.9614         estimate D2E/DX2                !
 ! A26   A(1,12,14)            122.5572         estimate D2E/DX2                !
 ! A27   A(13,12,14)           118.4799         estimate D2E/DX2                !
 ! A28   A(12,13,15)           120.9323         estimate D2E/DX2                !
 ! A29   A(12,13,16)           119.0075         estimate D2E/DX2                !
 ! A30   A(15,13,16)           120.0599         estimate D2E/DX2                !
 ! A31   A(12,14,17)           120.695          estimate D2E/DX2                !
 ! A32   A(12,14,18)           120.3561         estimate D2E/DX2                !
 ! A33   A(17,14,18)           118.9461         estimate D2E/DX2                !
 ! A34   A(13,15,19)           120.1081         estimate D2E/DX2                !
 ! A35   A(13,15,20)           119.7299         estimate D2E/DX2                !
 ! A36   A(19,15,20)           120.1621         estimate D2E/DX2                !
 ! A37   A(14,17,19)           120.3016         estimate D2E/DX2                !
 ! A38   A(14,17,21)           119.5374         estimate D2E/DX2                !
 ! A39   A(19,17,21)           120.161          estimate D2E/DX2                !
 ! A40   A(15,19,17)           119.4822         estimate D2E/DX2                !
 ! A41   A(15,19,22)           120.2769         estimate D2E/DX2                !
 ! A42   A(17,19,22)           120.2409         estimate D2E/DX2                !
 ! A43   A(2,23,24)            120.1797         estimate D2E/DX2                !
 ! A44   A(2,23,25)            121.498          estimate D2E/DX2                !
 ! A45   A(24,23,25)           118.3202         estimate D2E/DX2                !
 ! A46   A(23,24,26)           120.8657         estimate D2E/DX2                !
 ! A47   A(23,24,27)           118.9721         estimate D2E/DX2                !
 ! A48   A(26,24,27)           120.1596         estimate D2E/DX2                !
 ! A49   A(23,25,28)           120.8503         estimate D2E/DX2                !
 ! A50   A(23,25,29)           120.2311         estimate D2E/DX2                !
 ! A51   A(28,25,29)           118.9131         estimate D2E/DX2                !
 ! A52   A(24,26,30)           120.2618         estimate D2E/DX2                !
 ! A53   A(24,26,31)           119.6047         estimate D2E/DX2                !
 ! A54   A(30,26,31)           120.1335         estimate D2E/DX2                !
 ! A55   A(25,28,30)           120.2917         estimate D2E/DX2                !
 ! A56   A(25,28,32)           119.5281         estimate D2E/DX2                !
 ! A57   A(30,28,32)           120.1801         estimate D2E/DX2                !
 ! A58   A(26,30,28)           119.4096         estimate D2E/DX2                !
 ! A59   A(26,30,33)           120.3257         estimate D2E/DX2                !
 ! A60   A(28,30,33)           120.2646         estimate D2E/DX2                !
 ! A61   A(2,34,35)            104.8252         estimate D2E/DX2                !
 ! D1    D(3,1,2,8)            -65.7064         estimate D2E/DX2                !
 ! D2    D(3,1,2,23)           168.908          estimate D2E/DX2                !
 ! D3    D(3,1,2,34)            50.8483         estimate D2E/DX2                !
 ! D4    D(4,1,2,8)           -176.1317         estimate D2E/DX2                !
 ! D5    D(4,1,2,23)            58.4827         estimate D2E/DX2                !
 ! D6    D(4,1,2,34)           -59.577          estimate D2E/DX2                !
 ! D7    D(12,1,2,8)            58.4397         estimate D2E/DX2                !
 ! D8    D(12,1,2,23)          -66.9458         estimate D2E/DX2                !
 ! D9    D(12,1,2,34)          174.9945         estimate D2E/DX2                !
 ! D10   D(2,1,4,5)            175.4204         estimate D2E/DX2                !
 ! D11   D(2,1,4,6)            -64.702          estimate D2E/DX2                !
 ! D12   D(2,1,4,7)             54.5014         estimate D2E/DX2                !
 ! D13   D(3,1,4,5)             62.8123         estimate D2E/DX2                !
 ! D14   D(3,1,4,6)           -177.3102         estimate D2E/DX2                !
 ! D15   D(3,1,4,7)            -58.1067         estimate D2E/DX2                !
 ! D16   D(12,1,4,5)           -57.6011         estimate D2E/DX2                !
 ! D17   D(12,1,4,6)            62.2764         estimate D2E/DX2                !
 ! D18   D(12,1,4,7)          -178.5201         estimate D2E/DX2                !
 ! D19   D(2,1,12,13)          -98.3917         estimate D2E/DX2                !
 ! D20   D(2,1,12,14)           81.165          estimate D2E/DX2                !
 ! D21   D(3,1,12,13)           22.4717         estimate D2E/DX2                !
 ! D22   D(3,1,12,14)         -157.9717         estimate D2E/DX2                !
 ! D23   D(4,1,12,13)          137.2396         estimate D2E/DX2                !
 ! D24   D(4,1,12,14)          -43.2038         estimate D2E/DX2                !
 ! D25   D(1,2,8,9)            -61.6486         estimate D2E/DX2                !
 ! D26   D(1,2,8,10)            58.256          estimate D2E/DX2                !
 ! D27   D(1,2,8,11)           176.9032         estimate D2E/DX2                !
 ! D28   D(23,2,8,9)            63.9274         estimate D2E/DX2                !
 ! D29   D(23,2,8,10)         -176.168          estimate D2E/DX2                !
 ! D30   D(23,2,8,11)          -57.5208         estimate D2E/DX2                !
 ! D31   D(34,2,8,9)          -177.2062         estimate D2E/DX2                !
 ! D32   D(34,2,8,10)          -57.3016         estimate D2E/DX2                !
 ! D33   D(34,2,8,11)           61.3456         estimate D2E/DX2                !
 ! D34   D(1,2,23,24)          -93.7988         estimate D2E/DX2                !
 ! D35   D(1,2,23,25)           85.6733         estimate D2E/DX2                !
 ! D36   D(8,2,23,24)          142.8119         estimate D2E/DX2                !
 ! D37   D(8,2,23,25)          -37.7161         estimate D2E/DX2                !
 ! D38   D(34,2,23,24)          23.648          estimate D2E/DX2                !
 ! D39   D(34,2,23,25)        -156.88           estimate D2E/DX2                !
 ! D40   D(1,2,34,35)          -41.6264         estimate D2E/DX2                !
 ! D41   D(8,2,34,35)           75.2847         estimate D2E/DX2                !
 ! D42   D(23,2,34,35)        -162.9252         estimate D2E/DX2                !
 ! D43   D(1,12,13,15)         179.2554         estimate D2E/DX2                !
 ! D44   D(1,12,13,16)          -0.9559         estimate D2E/DX2                !
 ! D45   D(14,12,13,15)         -0.3195         estimate D2E/DX2                !
 ! D46   D(14,12,13,16)        179.4692         estimate D2E/DX2                !
 ! D47   D(1,12,14,17)        -179.2063         estimate D2E/DX2                !
 ! D48   D(1,12,14,18)           0.1834         estimate D2E/DX2                !
 ! D49   D(13,12,14,17)          0.3524         estimate D2E/DX2                !
 ! D50   D(13,12,14,18)        179.7421         estimate D2E/DX2                !
 ! D51   D(12,13,15,19)          0.0812         estimate D2E/DX2                !
 ! D52   D(12,13,15,20)       -179.8831         estimate D2E/DX2                !
 ! D53   D(16,13,15,19)       -179.7052         estimate D2E/DX2                !
 ! D54   D(16,13,15,20)          0.3305         estimate D2E/DX2                !
 ! D55   D(12,14,17,19)         -0.1484         estimate D2E/DX2                !
 ! D56   D(12,14,17,21)        179.9499         estimate D2E/DX2                !
 ! D57   D(18,14,17,19)       -179.5465         estimate D2E/DX2                !
 ! D58   D(18,14,17,21)          0.5517         estimate D2E/DX2                !
 ! D59   D(13,15,19,17)          0.1298         estimate D2E/DX2                !
 ! D60   D(13,15,19,22)       -179.9439         estimate D2E/DX2                !
 ! D61   D(20,15,19,17)       -179.9061         estimate D2E/DX2                !
 ! D62   D(20,15,19,22)          0.0203         estimate D2E/DX2                !
 ! D63   D(14,17,19,15)         -0.0965         estimate D2E/DX2                !
 ! D64   D(14,17,19,22)        179.9771         estimate D2E/DX2                !
 ! D65   D(21,17,19,15)        179.8046         estimate D2E/DX2                !
 ! D66   D(21,17,19,22)         -0.1217         estimate D2E/DX2                !
 ! D67   D(2,23,24,26)         179.3143         estimate D2E/DX2                !
 ! D68   D(2,23,24,27)          -1.2703         estimate D2E/DX2                !
 ! D69   D(25,23,24,26)         -0.1743         estimate D2E/DX2                !
 ! D70   D(25,23,24,27)        179.2411         estimate D2E/DX2                !
 ! D71   D(2,23,25,28)        -179.1928         estimate D2E/DX2                !
 ! D72   D(2,23,25,29)          -0.0524         estimate D2E/DX2                !
 ! D73   D(24,23,25,28)          0.2888         estimate D2E/DX2                !
 ! D74   D(24,23,25,29)        179.4292         estimate D2E/DX2                !
 ! D75   D(23,24,26,30)         -0.0597         estimate D2E/DX2                !
 ! D76   D(23,24,26,31)        179.8358         estimate D2E/DX2                !
 ! D77   D(27,24,26,30)       -179.4681         estimate D2E/DX2                !
 ! D78   D(27,24,26,31)          0.4273         estimate D2E/DX2                !
 ! D79   D(23,25,28,30)         -0.1702         estimate D2E/DX2                !
 ! D80   D(23,25,28,32)        179.8627         estimate D2E/DX2                !
 ! D81   D(29,25,28,30)       -179.3217         estimate D2E/DX2                !
 ! D82   D(29,25,28,32)          0.7111         estimate D2E/DX2                !
 ! D83   D(24,26,30,28)          0.1826         estimate D2E/DX2                !
 ! D84   D(24,26,30,33)       -179.9629         estimate D2E/DX2                !
 ! D85   D(31,26,30,28)       -179.7122         estimate D2E/DX2                !
 ! D86   D(31,26,30,33)          0.1423         estimate D2E/DX2                !
 ! D87   D(25,28,30,26)         -0.0689         estimate D2E/DX2                !
 ! D88   D(25,28,30,33)       -179.9235         estimate D2E/DX2                !
 ! D89   D(32,28,30,26)        179.8981         estimate D2E/DX2                !
 ! D90   D(32,28,30,33)          0.0435         estimate D2E/DX2                !
 --------------------------------------------------------------------------------
 Trust Radius=3.00D-01 FncErr=1.00D-07 GrdErr=1.00D-06 EigMax=2.50D+02 EigMin=1.00D-04
 Number of steps in this run=    197 maximum allowed number of steps=    210.
 GradGradGradGradGradGradGradGradGradGradGradGradGradGradGradGradGradGrad

 Leave Link  103 at Tue May 14 12:39:40 2019, MaxMem=   104857600 cpu:               0.8 elap:               0.1
 (Enter /opt/software/gaussian/g16.b01/l202.exe)
                          Input orientation:                          
 ---------------------------------------------------------------------
 Center     Atomic      Atomic             Coordinates (Angstroms)
 Number     Number       Type             X           Y           Z
 ---------------------------------------------------------------------
      1          6           0       -0.586193   -1.282970   -0.505397
      2          6           0        0.612727   -1.272973    0.554081
      3          8           0       -1.199044   -2.500819   -0.378169
      4          6           0        0.003962   -1.337416   -1.958480
      5          1           0       -0.812043   -1.426327   -2.676258
      6          1           0        0.561905   -0.419206   -2.145955
      7          1           0        0.677268   -2.188312   -2.045004
      8          6           0        0.019284   -1.317885    1.974754
      9          1           0       -0.608147   -0.455464    2.202626
     10          1           0       -0.596253   -2.217170    2.073016
     11          1           0        0.833997   -1.367013    2.700676
     12          6           0       -1.569284   -0.120938   -0.346342
     13          6           0       -2.768560   -0.336286    0.347747
     14          6           0       -1.314897    1.158396   -0.860664
     15          6           0       -3.686757    0.697440    0.530288
     16          1           0       -2.978084   -1.325132    0.741794
     17          6           0       -2.232139    2.195005   -0.678649
     18          1           0       -0.395936    1.359658   -1.398388
     19          6           0       -3.420790    1.969561    0.017989
     20          1           0       -4.608725    0.509377    1.072681
     21          1           0       -2.015648    3.178823   -1.084320
     22          1           0       -4.133388    2.776678    0.159309
     23          6           0        1.560951   -0.098917    0.358254
     24          6           0        2.716902   -0.248219   -0.424459
     25          6           0        1.306074    1.153924    0.937111
     26          6           0        3.588639    0.822436   -0.625145
     27          1           0        2.930374   -1.213801   -0.865958
     28          6           0        2.176031    2.225718    0.734989
     29          1           0        0.418429    1.306167    1.539200
     30          6           0        3.321220    2.065396   -0.047746
     31          1           0        4.478426    0.683352   -1.232261
     32          1           0        1.956772    3.186427    1.191340
     33          1           0        3.998718    2.899614   -0.203764
     34          8           0        1.354877   -2.469638    0.343086
     35          1           0        0.682637   -3.157645    0.201944
 ---------------------------------------------------------------------
                    Distance matrix (angstroms):
                    1          2          3          4          5
     1  C    0.000000
     2  C    1.600001   0.000000
     3  O    1.369281   2.378909   0.000000
     4  C    1.569298   2.586061   2.301763   0.000000
     5  H    2.187281   3.533918   2.566226   1.090401   0.000000
     6  H    2.180745   2.832260   3.249480   1.090668   1.784166
     7  H    2.187777   2.756312   2.529139   1.088509   1.788058
     8  C    2.553227   1.540293   2.901707   3.933312   4.725968
     9  H    2.831720   2.208292   3.345615   4.297362   4.978720
    10  H    2.742452   2.158774   2.540103   4.169794   4.819502
    11  H    3.507550   2.160017   3.859800   4.732607   5.623556
    12  C    1.530387   2.626617   2.408718   2.560061   2.775962
    13  C    2.527210   3.514692   2.770476   3.742703   3.763078
    14  C    2.572449   3.410102   3.692706   3.028806   3.198443
    15  C    3.822063   4.729551   4.152454   4.894488   4.801698
    16  H    2.697852   3.596092   2.408639   4.022963   4.047846
    17  C    3.851683   4.651855   4.817503   4.372198   4.372775
    18  H    2.795910   3.429327   4.072973   2.783492   3.093188
    19  C    4.346013   5.202949   5.007733   5.154751   5.059307
    20  H    4.677991   5.541595   4.774115   5.820263   5.675939
    21  H    4.720815   5.423209   5.781334   5.023882   5.018998
    22  H    5.431866   6.251490   6.062279   6.207130   6.061107
    23  C    2.599635   1.521803   3.732161   3.053744   4.074479
    24  C    3.462325   2.536772   4.517852   3.301456   4.348792
    25  C    3.405871   2.552895   4.621983   4.035681   4.919405
    26  C    4.677210   3.825881   5.833261   4.392340   5.350701
    27  H    3.535680   2.718731   4.352752   3.126143   4.162696
    28  C    4.634580   3.836338   5.913578   4.966748   5.822596
    29  H    3.448662   2.767702   4.559130   4.403871   5.172105
    30  C    5.166128   4.340834   6.433684   5.121937   6.015403
    31  H    5.481343   4.686348   6.565218   4.963036   5.875792
    32  H    5.414896   4.700937   6.690837   5.848076   6.625870
    33  H    6.213405   5.426762   7.497454   6.081902   6.926068
    34  O    2.428139   1.423837   2.653996   2.898983   3.860114
    35  H    2.371638   1.918561   2.075735   2.905386   3.676354
                    6          7          8          9         10
     6  H    0.000000
     7  H    1.775735   0.000000
     8  C    4.252329   4.165218   0.000000
     9  H    4.503387   4.764180   1.090580   0.000000
    10  H    4.730087   4.310543   1.094191   1.766507   0.000000
    11  H    4.945928   4.818773   1.092307   1.777289   1.778297
    12  C    2.805270   3.493778   3.056749   2.744618   3.345784
    13  C    4.161421   4.585737   3.373835   2.849941   3.351596
    14  C    2.768246   4.070852   3.993946   3.533806   4.529611
    15  C    5.143958   5.831330   4.459008   3.688325   4.519533
    16  H    4.657394   4.676849   3.241058   2.916668   2.870715
    17  C    4.098020   5.435535   4.944679   4.238406   5.451153
    18  H    2.154222   3.762708   4.326630   4.038193   4.988434
    19  C    5.123546   6.191763   5.144933   4.308636   5.452510
    20  H    6.160949   6.703671   5.056786   4.267589   4.953247
    21  H    4.551556   6.081188   5.806829   5.098344   6.410943
    22  H    6.129738   7.256206   6.107861   5.200886   6.411873
    23  C    2.715095   3.304862   2.544738   2.869463   3.475764
    24  C    2.763476   3.248112   3.765309   4.242697   4.592510
    25  C    3.540314   4.523157   2.973612   2.802838   4.034031
    26  C    3.607722   4.422294   4.907213   5.219419   5.833747
    27  H    2.807030   2.723290   4.068774   4.744725   4.699087
    28  C    4.230941   5.427551   4.329630   4.134530   5.405102
    29  H    4.071592   5.012474   2.689735   2.144140   3.705191
    30  C    4.264921   5.391990   5.141972   5.182551   6.179369
    31  H    4.170085   4.832785   5.845840   6.242482   6.714927
    32  H    5.107228   6.403036   4.965524   4.567809   6.041039
    33  H    5.157359   6.348952   6.194282   6.186313   7.244237
    34  O    3.320904   2.498254   2.402641   3.371683   2.619791
    35  H    3.609190   2.447123   2.639623   3.601477   2.453765
                   11         12         13         14         15
    11  H    0.000000
    12  C    4.075878   0.000000
    13  C    4.424601   1.402283   0.000000
    14  C    4.866064   1.402118   2.409869   0.000000
    15  C    5.423077   2.433498   1.394631   2.788001   0.000000
    16  H    4.286133   2.149149   1.084892   3.391456   2.153544
    17  C    5.788696   2.431748   2.783643   1.396073   2.412497
    18  H    5.074426   2.162339   3.399200   1.083579   3.871411
    19  C    6.035955   2.816203   2.418899   2.421736   1.396954
    20  H    5.982845   3.413081   2.151019   3.874061   1.086086
    21  H    6.565919   3.410612   3.869584   2.150163   3.399533
    22  H    6.950082   3.902114   3.404234   3.406328   2.158781
    23  C    2.761063   3.208631   4.336026   3.367061   5.310576
    24  C    3.816215   4.288787   5.540248   4.292347   6.543138
    25  C    3.112578   3.397088   4.378438   3.178286   5.030134
    26  C    4.841779   5.250891   6.534764   4.920671   7.367634
    27  H    4.139945   4.659536   5.892450   4.863093   7.027714
    28  C    4.309605   4.550105   5.582365   3.983951   6.062163
    29  H    2.944081   3.089159   3.778109   2.964052   4.270949
    30  C    5.051884   5.365281   6.558194   4.793440   7.163600
    31  H    5.740545   6.164944   7.486982   5.824632   8.353262
    32  H    4.926716   5.073086   5.953983   4.362046   6.203343
    33  H    6.054365   6.336143   7.521387   5.630085   8.028383
    34  O    2.654304   3.813453   4.642623   4.662546   5.956803
    35  H    3.077813   3.820125   4.460054   4.873139   5.836188
                   16         17         18         19         20
    16  H    0.000000
    17  C    3.868521   0.000000
    18  H    4.296041   2.141838   0.000000
    19  C    3.402188   1.396073   3.395268   0.000000
    20  H    2.476671   3.399509   4.957494   2.157708   0.000000
    21  H    4.954451   1.085972   2.455905   2.156809   4.301470
    22  H    4.301030   2.157606   4.289862   1.085912   2.490150
    23  C    4.717366   4.552447   3.007098   5.404824   6.240619
    24  C    5.912085   5.525121   3.636422   6.541068   7.515330
    25  C    4.953572   4.026597   2.897192   4.883983   5.951358
    26  C    7.042899   5.980658   4.094307   7.131733   8.377195
    27  H    6.124307   6.189231   4.239164   7.159081   7.972809
    28  C    6.258872   4.629393   3.452010   5.648372   7.006624
    29  H    4.369885   3.568529   3.048848   4.182556   5.111242
    30  C    7.197241   5.590584   4.017406   6.743012   8.158467
    31  H    7.970599   6.900961   4.923860   8.100313   9.376531
    32  H    6.701422   4.693267   3.947026   5.636993   7.091292
    33  H    8.210866   6.288527   4.807450   7.480860   9.023892
    34  O    4.499268   5.972397   4.556488   6.528336   6.706071
    35  H    4.129215   6.158102   4.912271   6.569642   6.496441
                   21         22         23         24         25
    21  H    0.000000
    22  H    2.488605   0.000000
    23  C    5.061290   6.382329   0.000000
    24  C    5.880226   7.511142   1.403978   0.000000
    25  C    4.384089   5.729403   1.403442   2.410459   0.000000
    26  C    6.096838   8.004007   2.434642   1.395171   2.785791
    27  H    6.618607   8.177520   2.148716   1.082977   3.390506
    28  C    4.667812   6.359539   2.433964   2.785180   1.395142
    29  H    4.039112   4.978508   2.162002   3.399272   1.083329
    30  C    5.549447   7.491327   2.819155   2.420729   2.421061
    31  H    6.958610   8.971166   3.413699   2.150194   3.871877
    32  H    4.578079   6.190560   3.412359   3.871098   2.149211
    33  H    6.084894   8.141135   3.905094   3.405967   3.405783
    34  O    6.730753   7.594647   2.379709   2.716420   3.672254
    35  H    7.006143   7.642781   3.186171   3.604910   4.418005
                   26         27         28         29         30
    26  C    0.000000
    27  H    2.153501   0.000000
    28  C    2.411354   3.868120   0.000000
    29  H    3.868930   4.294752   2.140443   0.000000
    30  C    1.396371   3.402259   1.396365   3.394263   0.000000
    31  H    1.086119   2.475850   3.398527   4.955045   2.156907
    32  H    3.398685   4.954027   1.085952   2.454156   2.157258
    33  H    2.158795   4.301168   2.158143   4.288994   1.085940
    34  O    4.094498   2.349703   4.782703   4.069930   4.958406
    35  H    4.996996   3.157731   5.612037   4.667299   5.857015
                   31         32         33         34         35
    31  H    0.000000
    32  H    4.300926   0.000000
    33  H    2.489928   2.489602   0.000000
    34  O    4.709525   5.750903   6.009809   0.000000
    35  H    5.587326   6.545959   6.917469   0.972204   0.000000
 Stoichiometry    C16H17O2(2)
 Framework group  C1[X(C16H17O2)]
 Deg. of freedom    99
 Full point group                 C1      NOp   1
 Largest Abelian subgroup         C1      NOp   1
 Largest concise Abelian subgroup C1      NOp   1
                         Standard orientation:                         
 ---------------------------------------------------------------------
 Center     Atomic      Atomic             Coordinates (Angstroms)
 Number     Number       Type             X           Y           Z
 ---------------------------------------------------------------------
      1          6           0       -0.586193   -1.282970   -0.505397
      2          6           0        0.612727   -1.272973    0.554081
      3          8           0       -1.199044   -2.500819   -0.378169
      4          6           0        0.003962   -1.337416   -1.958480
      5          1           0       -0.812043   -1.426327   -2.676258
      6          1           0        0.561905   -0.419206   -2.145955
      7          1           0        0.677268   -2.188312   -2.045004
      8          6           0        0.019284   -1.317885    1.974754
      9          1           0       -0.608147   -0.455464    2.202626
     10          1           0       -0.596253   -2.217170    2.073016
     11          1           0        0.833997   -1.367013    2.700676
     12          6           0       -1.569284   -0.120938   -0.346342
     13          6           0       -2.768560   -0.336286    0.347747
     14          6           0       -1.314897    1.158396   -0.860664
     15          6           0       -3.686757    0.697440    0.530288
     16          1           0       -2.978084   -1.325132    0.741794
     17          6           0       -2.232139    2.195005   -0.678649
     18          1           0       -0.395936    1.359658   -1.398388
     19          6           0       -3.420790    1.969561    0.017989
     20          1           0       -4.608725    0.509377    1.072681
     21          1           0       -2.015648    3.178823   -1.084320
     22          1           0       -4.133388    2.776678    0.159309
     23          6           0        1.560951   -0.098917    0.358254
     24          6           0        2.716902   -0.248219   -0.424459
     25          6           0        1.306074    1.153924    0.937111
     26          6           0        3.588639    0.822436   -0.625145
     27          1           0        2.930374   -1.213801   -0.865958
     28          6           0        2.176031    2.225718    0.734989
     29          1           0        0.418429    1.306167    1.539200
     30          6           0        3.321220    2.065396   -0.047746
     31          1           0        4.478426    0.683352   -1.232261
     32          1           0        1.956772    3.186427    1.191340
     33          1           0        3.998718    2.899614   -0.203764
     34          8           0        1.354877   -2.469638    0.343086
     35          1           0        0.682637   -3.157645    0.201944
 ---------------------------------------------------------------------
 Rotational constants (GHZ):           0.6283186           0.3753618           0.2865286
 Leave Link  202 at Tue May 14 12:39:41 2019, MaxMem=   104857600 cpu:               2.3 elap:               0.1
 (Enter /opt/software/gaussian/g16.b01/l301.exe)
 Standard basis: 6-31G(d,p) (6D, 7F)
 Ernie: Thresh=  0.10000D-02 Tol=  0.10000D-05 Strict=F.
 There are   355 symmetry adapted cartesian basis functions of A   symmetry.
 There are   355 symmetry adapted basis functions of A   symmetry.
   355 basis functions,   623 primitive gaussians,   355 cartesian basis functions
    65 alpha electrons       64 beta electrons
       nuclear repulsion energy      1327.8968522807 Hartrees.
 IExCor=  402 DFT=T Ex+Corr=B3LYP ExCW=0 ScaHFX=  0.200000
 ScaDFX=  0.800000  0.720000  1.000000  0.810000 ScalE2=  1.000000  1.000000
 IRadAn=      5 IRanWt=     -1 IRanGd=            0 ICorTp=0 IEmpDi=131
 NAtoms=   35 NActive=   35 NUniq=   35 SFac= 1.00D+00 NAtFMM=   60 NAOKFM=F Big=F
 Integral buffers will be    131072 words long.
 Raffenetti 2 integral format.
 Two-electron integral symmetry is turned on.
 R6Disp:  Grimme-D3 Dispersion energy=       -0.0415341268 Hartrees.
 Nuclear repulsion after empirical dispersion term =     1327.8553181539 Hartrees.
 ------------------------------------------------------------------------------
 Polarizable Continuum Model (PCM)
 =================================
 Model                : PCM.
 Atomic radii         : UFF (Universal Force Field).
 Polarization charges : Total charges.
 Charge compensation  : None.
 Solution method      : On-the-fly selection.
 Cavity type          : Scaled VdW (van der Waals Surface) (Alpha=1.100).
 Cavity algorithm     : GePol (No added spheres)
                        Default sphere list used, NSphG=   35.
                        Lebedev-Laikov grids with approx.  5.0 points / Ang**2.
                        Smoothing algorithm: York/Karplus (Gamma=1.0000).
                        Polarization charges: spherical gaussians, with
                                              point-specific exponents (IZeta= 3).
                        Self-potential: point-specific (ISelfS= 7).
                        Self-field    : sphere-specific E.n sum rule (ISelfD= 2).
 1st derivatives      : Analytical E(r).r(x)/FMM algorithm (CHGder, D1EAlg=3).
                        Cavity 1st derivative terms included.
 Solvent              : Acetonitrile, Eps=  35.688000 Eps(inf)=   1.806874
 ------------------------------------------------------------------------------
 GePol: Number of generator spheres                  =      35
 GePol: Total number of spheres                      =      35
 GePol: Number of exposed spheres                    =      35 (100.00%)
 GePol: Number of points                             =    2377
 GePol: Average weight of points                     =       0.13
 GePol: Minimum weight of points                     =   0.88D-10
 GePol: Maximum weight of points                     =    0.20577
 GePol: Number of points with low weight             =     152
 GePol: Fraction of low-weight points (<1% of avg)   =       6.39%
 GePol: Cavity surface area                          =    308.630 Ang**2
 GePol: Cavity volume                                =    350.669 Ang**3
 Leave Link  301 at Tue May 14 12:39:41 2019, MaxMem=   104857600 cpu:              12.4 elap:               0.4
 (Enter /opt/software/gaussian/g16.b01/l302.exe)
 NPDir=0 NMtPBC=     1 NCelOv=     1 NCel=       1 NClECP=     1 NCelD=      1
         NCelK=      1 NCelE2=     1 NClLst=     1 CellRange=     0.0.
 One-electron integrals computed using PRISM.
 One-electron integral symmetry used in STVInt
 PrsmSu:  requested number of processors reduced to:  28 ShMem   1 Linda.
 NBasis=   355 RedAO= T EigKep=  4.44D-04  NBF=   355
 NBsUse=   355 1.00D-06 EigRej= -1.00D+00 NBFU=   355
 Precomputing XC quadrature grid using
 IXCGrd= 4 IRadAn=           5 IRanWt=          -1 IRanGd=           0 AccXCQ= 0.00D+00.
 Generated NRdTot=       0 NPtTot=           0 NUsed=           0 NTot=          32
 NSgBfM=   354   354   354   354   354 MxSgAt=    35 MxSgA2=    35.
 Leave Link  302 at Tue May 14 12:39:42 2019, MaxMem=   104857600 cpu:              16.0 elap:               0.6
 (Enter /opt/software/gaussian/g16.b01/l303.exe)
 DipDrv:  MaxL=1.
 Leave Link  303 at Tue May 14 12:39:42 2019, MaxMem=   104857600 cpu:               3.3 elap:               0.2
 (Enter /opt/software/gaussian/g16.b01/l401.exe)
 ExpMin= 1.61D-01 ExpMax= 5.48D+03 ExpMxC= 8.25D+02 IAcc=3 IRadAn=         5 AccDes= 0.00D+00
 Harris functional with IExCor=  402 and IRadAn=       5 diagonalized for initial guess.
 HarFok:  IExCor=  402 AccDes= 0.00D+00 IRadAn=         5 IDoV= 1 UseB2=F ITyADJ=14
 ICtDFT=  3500011 ScaDFX=  1.000000  1.000000  1.000000  1.000000
 FoFCou: FMM=F IPFlag=           0 FMFlag=      100000 FMFlg1=           0
         NFxFlg=           0 DoJE=T BraDBF=F KetDBF=T FulRan=T
         wScrn=  0.000000 ICntrl=       500 IOpCl=  0 I1Cent=   200000004 NGrid=           0
         NMat0=    1 NMatS0=      1 NMatT0=    0 NMatD0=    1 NMtDS0=    0 NMtDT0=    0
 Petite list used in FoFCou.
 Harris En= -770.408960297549    
 JPrj=0 DoOrth=F DoCkMO=F.
 Initial guess <Sx>= 0.0000 <Sy>= 0.0000 <Sz>= 0.5000 <S**2>= 0.7500 S= 0.5000
 Leave Link  401 at Tue May 14 12:39:43 2019, MaxMem=   104857600 cpu:              28.8 elap:               1.0
 (Enter /opt/software/gaussian/g16.b01/l502.exe)
 Integral symmetry usage will be decided dynamically.
 UHF open shell SCF:
 Using DIIS extrapolation, IDIIS=  1040.
 NGot=   104857600 LenX=   104590331 LenY=   104463865
 Requested convergence on RMS density matrix=1.00D-08 within 128 cycles.
 Requested convergence on MAX density matrix=1.00D-06.
 Requested convergence on             energy=1.00D-06.
 No special actions if energy rises.
 Fock matrices will be formed incrementally for  20 cycles.

 Cycle   1  Pass 1  IDiag  1:
 FoFJK:  IHMeth= 1 ICntrl=       0 DoSepK=F KAlg= 0 I1Cent=           0 FoldK=F
 IRaf= 840000000 NMat=       1 IRICut=       1 DoRegI=T DoRafI=F ISym2E= 0 IDoP0=0 IntGTp=1.
 FoFCou: FMM=F IPFlag=           0 FMFlag=      100000 FMFlg1=           0
         NFxFlg=           0 DoJE=F BraDBF=F KetDBF=F FulRan=T
         wScrn=  0.000000 ICntrl=         0 IOpCl=  1 I1Cent=           0 NGrid=           0
         NMat0=    1 NMatS0=      1 NMatT0=    0 NMatD0=    1 NMtDS0=    0 NMtDT0=    0
 Symmetry not used in FoFCou.
 Inv3:  Mode=1 IEnd=    16950387.
 Iteration    1 A*A^-1 deviation from unit magnitude is 3.11D-15 for    275.
 Iteration    1 A*A^-1 deviation from orthogonality  is 2.52D-15 for   1927    568.
 Iteration    1 A^-1*A deviation from unit magnitude is 3.11D-15 for    615.
 Iteration    1 A^-1*A deviation from orthogonality  is 2.48D-14 for   1958   1927.
 E= -769.960836274179    
 DIIS: error= 2.95D-02 at cycle   1 NSaved=   1.
 NSaved= 1 IEnMin= 1 EnMin= -769.960836274179     IErMin= 1 ErrMin= 2.95D-02
 ErrMax= 2.95D-02  0.00D+00 EMaxC= 1.00D-01 BMatC= 1.66D+00 BMatP= 1.66D+00
 IDIUse=3 WtCom= 7.05D-01 WtEn= 2.95D-01
 Coeff-Com:  0.100D+01
 Coeff-En:   0.100D+01
 Coeff:      0.100D+01
 Gap=     0.238 Goal=   None    Shift=    0.000
 Gap=     0.057 Goal=   None    Shift=    0.000
 GapD=    0.057 DampG=0.500 DampE=0.500 DampFc=0.2500 IDamp=-1.
 Damping current iteration by 2.50D-01
 RMSDP=3.76D-03 MaxDP=1.83D-01              OVMax= 2.62D-01

 Cycle   2  Pass 1  IDiag  1:
 RMSU=  9.21D-04    CP:  9.89D-01
 E= -770.112626987949     Delta-E=       -0.151790713770 Rises=F Damp=T
 DIIS: error= 1.71D-02 at cycle   2 NSaved=   2.
 NSaved= 2 IEnMin= 2 EnMin= -770.112626987949     IErMin= 2 ErrMin= 1.71D-02
 ErrMax= 1.71D-02  0.00D+00 EMaxC= 1.00D-01 BMatC= 4.58D-01 BMatP= 1.66D+00
 IDIUse=3 WtCom= 8.29D-01 WtEn= 1.71D-01
 Coeff-Com: -0.886D+00 0.189D+01
 Coeff-En:   0.000D+00 0.100D+01
 Coeff:     -0.734D+00 0.173D+01
 Gap=     0.262 Goal=   None    Shift=    0.000
 Gap=     0.090 Goal=   None    Shift=    0.000
 RMSDP=1.46D-03 MaxDP=4.46D-02 DE=-1.52D-01 OVMax= 1.76D-01

 Cycle   3  Pass 1  IDiag  1:
 RMSU=  9.69D-04    CP:  9.65D-01  2.11D+00
 E= -770.366937750946     Delta-E=       -0.254310762997 Rises=F Damp=F
 DIIS: error= 6.44D-03 at cycle   3 NSaved=   3.
 NSaved= 3 IEnMin= 3 EnMin= -770.366937750946     IErMin= 3 ErrMin= 6.44D-03
 ErrMax= 6.44D-03  0.00D+00 EMaxC= 1.00D-01 BMatC= 8.49D-02 BMatP= 4.58D-01
 IDIUse=3 WtCom= 9.36D-01 WtEn= 6.44D-02
 Coeff-Com: -0.396D+00 0.846D+00 0.551D+00
 Coeff-En:   0.000D+00 0.000D+00 0.100D+01
 Coeff:     -0.371D+00 0.791D+00 0.580D+00
 Gap=     0.232 Goal=   None    Shift=    0.000
 Gap=     0.094 Goal=   None    Shift=    0.000
 RMSDP=7.83D-04 MaxDP=7.99D-02 DE=-2.54D-01 OVMax= 1.70D-01

 Cycle   4  Pass 1  IDiag  1:
 RMSU=  6.48D-04    CP:  9.69D-01  2.10D+00  5.51D-01
 E= -770.378125577151     Delta-E=       -0.011187826205 Rises=F Damp=F
 DIIS: error= 5.47D-03 at cycle   4 NSaved=   4.
 NSaved= 4 IEnMin= 4 EnMin= -770.378125577151     IErMin= 4 ErrMin= 5.47D-03
 ErrMax= 5.47D-03  0.00D+00 EMaxC= 1.00D-01 BMatC= 5.62D-02 BMatP= 8.49D-02
 IDIUse=3 WtCom= 9.45D-01 WtEn= 5.47D-02
 Coeff-Com: -0.284D-01 0.953D-01 0.438D+00 0.495D+00
 Coeff-En:   0.000D+00 0.000D+00 0.364D+00 0.636D+00
 Coeff:     -0.268D-01 0.901D-01 0.434D+00 0.503D+00
 Gap=     0.236 Goal=   None    Shift=    0.000
 Gap=     0.094 Goal=   None    Shift=    0.000
 RMSDP=3.60D-04 MaxDP=2.10D-02 DE=-1.12D-02 OVMax= 3.04D-02

 Cycle   5  Pass 1  IDiag  1:
 RMSU=  2.16D-04    CP:  9.68D-01  2.06D+00  7.60D-01  6.90D-01
 E= -770.389954720110     Delta-E=       -0.011829142959 Rises=F Damp=F
 DIIS: error= 7.06D-04 at cycle   5 NSaved=   5.
 NSaved= 5 IEnMin= 5 EnMin= -770.389954720110     IErMin= 5 ErrMin= 7.06D-04
 ErrMax= 7.06D-04  0.00D+00 EMaxC= 1.00D-01 BMatC= 2.11D-03 BMatP= 5.62D-02
 IDIUse=3 WtCom= 9.93D-01 WtEn= 7.06D-03
 Coeff-Com:  0.277D-01-0.327D-01 0.191D+00 0.197D+00 0.617D+00
 Coeff-En:   0.000D+00 0.000D+00 0.000D+00 0.000D+00 0.100D+01
 Coeff:      0.275D-01-0.325D-01 0.190D+00 0.196D+00 0.620D+00
 Gap=     0.231 Goal=   None    Shift=    0.000
 Gap=     0.092 Goal=   None    Shift=    0.000
 RMSDP=1.11D-04 MaxDP=1.07D-02 DE=-1.18D-02 OVMax= 3.03D-02

 Cycle   6  Pass 1  IDiag  1:
 RMSU=  1.02D-04    CP:  9.67D-01  2.08D+00  7.83D-01  7.41D-01  1.04D+00
 E= -770.390524974291     Delta-E=       -0.000570254181 Rises=F Damp=F
 DIIS: error= 7.44D-04 at cycle   6 NSaved=   6.
 NSaved= 6 IEnMin= 6 EnMin= -770.390524974291     IErMin= 5 ErrMin= 7.06D-04
 ErrMax= 7.44D-04  0.00D+00 EMaxC= 1.00D-01 BMatC= 1.07D-03 BMatP= 2.11D-03
 IDIUse=3 WtCom= 9.93D-01 WtEn= 7.06D-03
 Coeff-Com:  0.240D-01-0.404D-01 0.143D-01-0.591D-01 0.359D+00 0.703D+00
 Coeff-En:   0.000D+00 0.000D+00 0.000D+00 0.000D+00 0.000D+00 0.100D+01
 Coeff:      0.238D-01-0.401D-01 0.142D-01-0.587D-01 0.356D+00 0.705D+00
 Gap=     0.231 Goal=   None    Shift=    0.000
 Gap=     0.092 Goal=   None    Shift=    0.000
 RMSDP=8.49D-05 MaxDP=6.60D-03 DE=-5.70D-04 OVMax= 1.52D-02

 Cycle   7  Pass 1  IDiag  1:
 RMSU=  4.27D-05    CP:  9.67D-01  2.07D+00  8.08D-01  7.76D-01  1.33D+00
                    CP:  1.16D+00
 E= -770.390909076456     Delta-E=       -0.000384102165 Rises=F Damp=F
 DIIS: error= 3.73D-04 at cycle   7 NSaved=   7.
 NSaved= 7 IEnMin= 7 EnMin= -770.390909076456     IErMin= 7 ErrMin= 3.73D-04
 ErrMax= 3.73D-04  0.00D+00 EMaxC= 1.00D-01 BMatC= 1.78D-04 BMatP= 1.07D-03
 IDIUse=3 WtCom= 9.96D-01 WtEn= 3.73D-03
 Coeff-Com:  0.404D-02-0.704D-02-0.267D-01-0.857D-01-0.663D-02 0.145D+00
 Coeff-Com:  0.977D+00
 Coeff-En:   0.000D+00 0.000D+00 0.000D+00 0.000D+00 0.000D+00 0.000D+00
 Coeff-En:   0.100D+01
 Coeff:      0.402D-02-0.701D-02-0.266D-01-0.854D-01-0.661D-02 0.144D+00
 Coeff:      0.977D+00
 Gap=     0.231 Goal=   None    Shift=    0.000
 Gap=     0.093 Goal=   None    Shift=    0.000
 RMSDP=7.85D-05 MaxDP=8.50D-03 DE=-3.84D-04 OVMax= 1.63D-02

 Cycle   8  Pass 1  IDiag  1:
 RMSU=  2.91D-05    CP:  9.66D-01  2.07D+00  8.22D-01  8.04D-01  1.55D+00
                    CP:  1.54D+00  1.71D+00
 E= -770.391103254964     Delta-E=       -0.000194178508 Rises=F Damp=F
 DIIS: error= 3.14D-04 at cycle   8 NSaved=   8.
 NSaved= 8 IEnMin= 8 EnMin= -770.391103254964     IErMin= 8 ErrMin= 3.14D-04
 ErrMax= 3.14D-04  0.00D+00 EMaxC= 1.00D-01 BMatC= 6.72D-05 BMatP= 1.78D-04
 IDIUse=3 WtCom= 9.97D-01 WtEn= 3.14D-03
 Coeff-Com: -0.118D-02 0.228D-02-0.176D-01-0.449D-01-0.787D-01-0.764D-01
 Coeff-Com:  0.624D+00 0.592D+00
 Coeff-En:   0.000D+00 0.000D+00 0.000D+00 0.000D+00 0.000D+00 0.000D+00
 Coeff-En:   0.000D+00 0.100D+01
 Coeff:     -0.117D-02 0.227D-02-0.176D-01-0.448D-01-0.785D-01-0.762D-01
 Coeff:      0.622D+00 0.594D+00
 Gap=     0.231 Goal=   None    Shift=    0.000
 Gap=     0.093 Goal=   None    Shift=    0.000
 RMSDP=4.45D-05 MaxDP=5.72D-03 DE=-1.94D-04 OVMax= 1.06D-02

 Cycle   9  Pass 1  IDiag  1:
 RMSU=  1.43D-05    CP:  9.66D-01  2.08D+00  8.28D-01  8.19D-01  1.66D+00
                    CP:  1.72D+00  2.30D+00  1.43D+00
 E= -770.391198528135     Delta-E=       -0.000095273171 Rises=F Damp=F
 DIIS: error= 2.96D-04 at cycle   9 NSaved=   9.
 NSaved= 9 IEnMin= 9 EnMin= -770.391198528135     IErMin= 9 ErrMin= 2.96D-04
 ErrMax= 2.96D-04  0.00D+00 EMaxC= 1.00D-01 BMatC= 2.25D-05 BMatP= 6.72D-05
 IDIUse=3 WtCom= 9.97D-01 WtEn= 2.96D-03
 Coeff-Com:  0.459D-03 0.304D-03 0.107D-01 0.192D-01-0.805D-02-0.578D-01
 Coeff-Com: -0.138D+00-0.182D-01 0.119D+01
 Coeff-En:   0.000D+00 0.000D+00 0.000D+00 0.000D+00 0.000D+00 0.000D+00
 Coeff-En:   0.000D+00 0.000D+00 0.100D+01
 Coeff:      0.457D-03 0.303D-03 0.106D-01 0.191D-01-0.802D-02-0.576D-01
 Coeff:     -0.138D+00-0.182D-01 0.119D+01
 Gap=     0.231 Goal=   None    Shift=    0.000
 Gap=     0.093 Goal=   None    Shift=    0.000
 RMSDP=5.77D-05 MaxDP=8.20D-03 DE=-9.53D-05 OVMax= 1.50D-02

 Cycle  10  Pass 1  IDiag  1:
 RMSU=  9.91D-06    CP:  9.66D-01  2.08D+00  8.30D-01  8.32D-01  1.76D+00
                    CP:  1.94D+00  3.00D+00  2.48D+00  2.06D+00
 E= -770.391302734356     Delta-E=       -0.000104206221 Rises=F Damp=F
 DIIS: error= 2.61D-04 at cycle  10 NSaved=  10.
 NSaved=10 IEnMin=10 EnMin= -770.391302734356     IErMin=10 ErrMin= 2.61D-04
 ErrMax= 2.61D-04  0.00D+00 EMaxC= 1.00D-01 BMatC= 2.05D-05 BMatP= 2.25D-05
 IDIUse=3 WtCom= 9.97D-01 WtEn= 2.61D-03
 Coeff-Com:  0.243D-02-0.299D-02 0.296D-01 0.652D-01 0.713D-01 0.263D-01
 Coeff-Com: -0.774D+00-0.806D+00 0.119D+01 0.120D+01
 Coeff-En:   0.000D+00 0.000D+00 0.000D+00 0.000D+00 0.000D+00 0.000D+00
 Coeff-En:   0.000D+00 0.000D+00 0.000D+00 0.100D+01
 Coeff:      0.243D-02-0.298D-02 0.295D-01 0.651D-01 0.711D-01 0.262D-01
 Coeff:     -0.772D+00-0.804D+00 0.119D+01 0.120D+01
 Gap=     0.230 Goal=   None    Shift=    0.000
 Gap=     0.093 Goal=   None    Shift=    0.000
 RMSDP=1.09D-04 MaxDP=1.56D-02 DE=-1.04D-04 OVMax= 2.74D-02

 Cycle  11  Pass 1  IDiag  1:
 RMSU=  7.64D-05    CP:  9.66D-01  2.08D+00  8.34D-01  8.59D-01  1.93D+00
                    CP:  2.32D+00  3.00D+00  3.00D+00  3.00D+00  3.00D+00
 E= -770.391456902046     Delta-E=       -0.000154167690 Rises=F Damp=F
 DIIS: error= 1.75D-04 at cycle  11 NSaved=  11.
 NSaved=11 IEnMin=11 EnMin= -770.391456902046     IErMin=11 ErrMin= 1.75D-04
 ErrMax= 1.75D-04  0.00D+00 EMaxC= 1.00D-01 BMatC= 8.20D-06 BMatP= 2.05D-05
 IDIUse=3 WtCom= 9.98D-01 WtEn= 1.75D-03
 Coeff-Com:  0.197D-02-0.292D-02 0.101D-01 0.141D-01 0.566D-01 0.887D-01
 Coeff-Com: -0.194D+00-0.439D+00-0.559D+00 0.416D+00 0.161D+01
 Coeff-En:   0.000D+00 0.000D+00 0.000D+00 0.000D+00 0.000D+00 0.000D+00
 Coeff-En:   0.000D+00 0.000D+00 0.000D+00 0.000D+00 0.100D+01
 Coeff:      0.196D-02-0.291D-02 0.100D-01 0.141D-01 0.565D-01 0.886D-01
 Coeff:     -0.193D+00-0.439D+00-0.558D+00 0.416D+00 0.161D+01
 Gap=     0.230 Goal=   None    Shift=    0.000
 Gap=     0.093 Goal=   None    Shift=    0.000
 RMSDP=1.39D-04 MaxDP=1.99D-02 DE=-1.54D-04 OVMax= 3.27D-02

 Cycle  12  Pass 1  IDiag  1:
 RMSU=  4.04D-05    CP:  9.65D-01  2.08D+00  8.38D-01  8.82D-01  2.13D+00
                    CP:  2.77D+00  3.00D+00  3.00D+00  3.00D+00  3.00D+00
                    CP:  2.52D+00
 E= -770.391565300291     Delta-E=       -0.000108398245 Rises=F Damp=F
 DIIS: error= 6.95D-05 at cycle  12 NSaved=  12.
 NSaved=12 IEnMin=12 EnMin= -770.391565300291     IErMin=12 ErrMin= 6.95D-05
 ErrMax= 6.95D-05  0.00D+00 EMaxC= 1.00D-01 BMatC= 3.46D-06 BMatP= 8.20D-06
 IDIUse=1 WtCom= 1.00D+00 WtEn= 0.00D+00
 Coeff-Com:  0.111D-02-0.171D-02 0.272D-02-0.237D-02 0.280D-01 0.541D-01
 Coeff-Com:  0.283D-02-0.142D+00-0.430D+00-0.360D-02 0.857D+00 0.634D+00
 Coeff:      0.111D-02-0.171D-02 0.272D-02-0.237D-02 0.280D-01 0.541D-01
 Coeff:      0.283D-02-0.142D+00-0.430D+00-0.360D-02 0.857D+00 0.634D+00
 Gap=     0.230 Goal=   None    Shift=    0.000
 Gap=     0.093 Goal=   None    Shift=    0.000
 RMSDP=2.75D-05 MaxDP=3.82D-03 DE=-1.08D-04 OVMax= 6.55D-03

 Cycle  13  Pass 1  IDiag  1:
 RMSU=  4.05D-06    CP:  9.65D-01  2.09D+00  8.39D-01  8.84D-01  2.16D+00
                    CP:  2.84D+00  3.00D+00  3.00D+00  3.00D+00  3.00D+00
                    CP:  2.83D+00  1.21D+00
 E= -770.391575822298     Delta-E=       -0.000010522007 Rises=F Damp=F
 DIIS: error= 4.28D-05 at cycle  13 NSaved=  13.
 NSaved=13 IEnMin=13 EnMin= -770.391575822298     IErMin=13 ErrMin= 4.28D-05
 ErrMax= 4.28D-05  0.00D+00 EMaxC= 1.00D-01 BMatC= 1.15D-06 BMatP= 3.46D-06
 IDIUse=1 WtCom= 1.00D+00 WtEn= 0.00D+00
 Coeff-Com:  0.717D-04 0.761D-04 0.163D-02-0.747D-03 0.241D-02-0.791D-03
 Coeff-Com:  0.127D-01 0.275D-01 0.124D+00-0.107D+00-0.314D+00 0.860D-01
 Coeff-Com:  0.117D+01
 Coeff:      0.717D-04 0.761D-04 0.163D-02-0.747D-03 0.241D-02-0.791D-03
 Coeff:      0.127D-01 0.275D-01 0.124D+00-0.107D+00-0.314D+00 0.860D-01
 Coeff:      0.117D+01
 Gap=     0.230 Goal=   None    Shift=    0.000
 Gap=     0.092 Goal=   None    Shift=    0.000
 RMSDP=2.52D-05 MaxDP=3.43D-03 DE=-1.05D-05 OVMax= 5.92D-03

 Cycle  14  Pass 1  IDiag  1:
 RMSU=  9.32D-06    CP:  9.65D-01  2.09D+00  8.40D-01  8.85D-01  2.19D+00
                    CP:  2.90D+00  3.00D+00  3.00D+00  3.00D+00  3.00D+00
                    CP:  3.00D+00  1.42D+00  1.61D+00
 E= -770.391581511422     Delta-E=       -0.000005689124 Rises=F Damp=F
 DIIS: error= 2.10D-05 at cycle  14 NSaved=  14.
 NSaved=14 IEnMin=14 EnMin= -770.391581511422     IErMin=14 ErrMin= 2.10D-05
 ErrMax= 2.10D-05  0.00D+00 EMaxC= 1.00D-01 BMatC= 3.96D-07 BMatP= 1.15D-06
 IDIUse=1 WtCom= 1.00D+00 WtEn= 0.00D+00
 Coeff-Com: -0.177D-03 0.338D-03 0.597D-03 0.269D-02-0.400D-02-0.107D-01
 Coeff-Com: -0.255D-01-0.597D-02 0.123D+00 0.205D-01-0.284D+00-0.230D+00
 Coeff-Com:  0.546D+00 0.868D+00
 Coeff:     -0.177D-03 0.338D-03 0.597D-03 0.269D-02-0.400D-02-0.107D-01
 Coeff:     -0.255D-01-0.597D-02 0.123D+00 0.205D-01-0.284D+00-0.230D+00
 Coeff:      0.546D+00 0.868D+00
 Gap=     0.230 Goal=   None    Shift=    0.000
 Gap=     0.092 Goal=   None    Shift=    0.000
 RMSDP=2.30D-05 MaxDP=3.17D-03 DE=-5.69D-06 OVMax= 5.29D-03

 Cycle  15  Pass 1  IDiag  1:
 RMSU=  6.84D-06    CP:  9.65D-01  2.09D+00  8.40D-01  8.88D-01  2.22D+00
                    CP:  2.98D+00  3.00D+00  3.00D+00  3.00D+00  3.00D+00
                    CP:  3.00D+00  1.58D+00  2.04D+00  2.94D+00
 E= -770.391583441664     Delta-E=       -0.000001930242 Rises=F Damp=F
 DIIS: error= 7.31D-06 at cycle  15 NSaved=  15.
 NSaved=15 IEnMin=15 EnMin= -770.391583441664     IErMin=15 ErrMin= 7.31D-06
 ErrMax= 7.31D-06  0.00D+00 EMaxC= 1.00D-01 BMatC= 1.33D-07 BMatP= 3.96D-07
 IDIUse=1 WtCom= 1.00D+00 WtEn= 0.00D+00
 Coeff-Com: -0.311D-04 0.613D-04 0.451D-03 0.215D-02-0.110D-02-0.448D-02
 Coeff-Com: -0.227D-01-0.169D-01 0.552D-01 0.332D-01-0.962D-01-0.156D+00
 Coeff-Com:  0.118D+00 0.505D+00 0.582D+00
 Coeff:     -0.311D-04 0.613D-04 0.451D-03 0.215D-02-0.110D-02-0.448D-02
 Coeff:     -0.227D-01-0.169D-01 0.552D-01 0.332D-01-0.962D-01-0.156D+00
 Coeff:      0.118D+00 0.505D+00 0.582D+00
 Gap=     0.230 Goal=   None    Shift=    0.000
 Gap=     0.092 Goal=   None    Shift=    0.000
 RMSDP=2.95D-06 MaxDP=3.87D-04 DE=-1.93D-06 OVMax= 7.14D-04

 Cycle  16  Pass 1  IDiag  1:
 RMSU=  1.94D-06    CP:  9.65D-01  2.09D+00  8.40D-01  8.88D-01  2.22D+00
                    CP:  2.99D+00  3.00D+00  3.00D+00  3.00D+00  3.00D+00
                    CP:  3.00D+00  1.60D+00  2.13D+00  3.00D+00  1.06D+00
 E= -770.391583526041     Delta-E=       -0.000000084377 Rises=F Damp=F
 DIIS: error= 2.92D-06 at cycle  16 NSaved=  16.
 NSaved=16 IEnMin=16 EnMin= -770.391583526041     IErMin=16 ErrMin= 2.92D-06
 ErrMax= 2.92D-06  0.00D+00 EMaxC= 1.00D-01 BMatC= 1.53D-08 BMatP= 1.33D-07
 IDIUse=1 WtCom= 1.00D+00 WtEn= 0.00D+00
 Coeff-Com:  0.260D-04-0.463D-04 0.175D-03 0.566D-03 0.638D-03 0.189D-03
 Coeff-Com: -0.731D-02-0.705D-02 0.836D-02 0.103D-01 0.162D-01-0.310D-01
 Coeff-Com: -0.828D-01 0.276D-01 0.216D+00 0.849D+00
 Coeff:      0.260D-04-0.463D-04 0.175D-03 0.566D-03 0.638D-03 0.189D-03
 Coeff:     -0.731D-02-0.705D-02 0.836D-02 0.103D-01 0.162D-01-0.310D-01
 Coeff:     -0.828D-01 0.276D-01 0.216D+00 0.849D+00
 Gap=     0.230 Goal=   None    Shift=    0.000
 Gap=     0.092 Goal=   None    Shift=    0.000
 RMSDP=1.00D-06 MaxDP=1.11D-04 DE=-8.44D-08 OVMax= 2.36D-04

 Cycle  17  Pass 1  IDiag  1:
 RMSU=  4.58D-07    CP:  9.65D-01  2.09D+00  8.40D-01  8.88D-01  2.22D+00
                    CP:  2.99D+00  3.00D+00  3.00D+00  3.00D+00  3.00D+00
                    CP:  3.00D+00  1.61D+00  2.20D+00  3.00D+00  1.07D+00
                    CP:  1.39D+00
 E= -770.391583543774     Delta-E=       -0.000000017733 Rises=F Damp=F
 DIIS: error= 1.90D-06 at cycle  17 NSaved=  17.
 NSaved=17 IEnMin=17 EnMin= -770.391583543774     IErMin=17 ErrMin= 1.90D-06
 ErrMax= 1.90D-06  0.00D+00 EMaxC= 1.00D-01 BMatC= 3.26D-09 BMatP= 1.53D-08
 IDIUse=1 WtCom= 1.00D+00 WtEn= 0.00D+00
 Coeff-Com:  0.596D-05-0.134D-04-0.898D-04-0.380D-03 0.300D-03 0.107D-02
 Coeff-Com:  0.446D-02 0.345D-02-0.110D-01-0.561D-02 0.214D-01 0.311D-01
 Coeff-Com: -0.447D-01-0.108D+00-0.719D-01 0.212D+00 0.968D+00
 Coeff:      0.596D-05-0.134D-04-0.898D-04-0.380D-03 0.300D-03 0.107D-02
 Coeff:      0.446D-02 0.345D-02-0.110D-01-0.561D-02 0.214D-01 0.311D-01
 Coeff:     -0.447D-01-0.108D+00-0.719D-01 0.212D+00 0.968D+00
 Gap=     0.230 Goal=   None    Shift=    0.000
 Gap=     0.092 Goal=   None    Shift=    0.000
 RMSDP=3.37D-07 MaxDP=2.34D-05 DE=-1.77D-08 OVMax= 6.02D-05

 Cycle  18  Pass 1  IDiag  1:
 RMSU=  1.93D-07    CP:  9.65D-01  2.09D+00  8.40D-01  8.88D-01  2.22D+00
                    CP:  2.99D+00  3.00D+00  3.00D+00  3.00D+00  3.00D+00
                    CP:  3.00D+00  1.61D+00  2.22D+00  3.00D+00  1.07D+00
                    CP:  1.50D+00  1.31D+00
 E= -770.391583548160     Delta-E=       -0.000000004386 Rises=F Damp=F
 DIIS: error= 1.12D-06 at cycle  18 NSaved=  18.
 NSaved=18 IEnMin=18 EnMin= -770.391583548160     IErMin=18 ErrMin= 1.12D-06
 ErrMax= 1.12D-06  0.00D+00 EMaxC= 1.00D-01 BMatC= 1.80D-09 BMatP= 3.26D-09
 IDIUse=1 WtCom= 1.00D+00 WtEn= 0.00D+00
 Coeff-Com: -0.102D-04 0.143D-04-0.171D-03-0.529D-03-0.278D-03 0.422D-03
 Coeff-Com:  0.668D-02 0.600D-02-0.109D-01-0.843D-02 0.353D-02 0.359D-01
 Coeff-Com:  0.117D-01-0.797D-01-0.125D+00-0.185D+00 0.542D+00 0.804D+00
 Coeff:     -0.102D-04 0.143D-04-0.171D-03-0.529D-03-0.278D-03 0.422D-03
 Coeff:      0.668D-02 0.600D-02-0.109D-01-0.843D-02 0.353D-02 0.359D-01
 Coeff:      0.117D-01-0.797D-01-0.125D+00-0.185D+00 0.542D+00 0.804D+00
 Gap=     0.230 Goal=   None    Shift=    0.000
 Gap=     0.092 Goal=   None    Shift=    0.000
 RMSDP=1.86D-07 MaxDP=9.53D-06 DE=-4.39D-09 OVMax= 2.88D-05

 Cycle  19  Pass 1  IDiag  1:
 RMSU=  1.05D-07    CP:  9.65D-01  2.09D+00  8.40D-01  8.88D-01  2.22D+00
                    CP:  2.99D+00  3.00D+00  3.00D+00  3.00D+00  3.00D+00
                    CP:  3.00D+00  1.61D+00  2.22D+00  3.00D+00  1.07D+00
                    CP:  1.52D+00  1.49D+00  1.56D+00
 E= -770.391583549972     Delta-E=       -0.000000001812 Rises=F Damp=F
 DIIS: error= 4.88D-07 at cycle  19 NSaved=  19.
 NSaved=19 IEnMin=19 EnMin= -770.391583549972     IErMin=19 ErrMin= 4.88D-07
 ErrMax= 4.88D-07  0.00D+00 EMaxC= 1.00D-01 BMatC= 3.12D-10 BMatP= 1.80D-09
 IDIUse=1 WtCom= 1.00D+00 WtEn= 0.00D+00
 Coeff-Com: -0.102D-04 0.173D-04-0.594D-04-0.129D-03-0.381D-03-0.448D-03
 Coeff-Com:  0.165D-02 0.219D-02 0.729D-03-0.277D-02-0.918D-02 0.568D-02
 Coeff-Com:  0.240D-01-0.566D-03-0.278D-01-0.130D+00-0.159D+00 0.264D+00
 Coeff-Com:  0.103D+01
 Coeff:     -0.102D-04 0.173D-04-0.594D-04-0.129D-03-0.381D-03-0.448D-03
 Coeff:      0.165D-02 0.219D-02 0.729D-03-0.277D-02-0.918D-02 0.568D-02
 Coeff:      0.240D-01-0.566D-03-0.278D-01-0.130D+00-0.159D+00 0.264D+00
 Coeff:      0.103D+01
 Gap=     0.230 Goal=   None    Shift=    0.000
 Gap=     0.092 Goal=   None    Shift=    0.000
 RMSDP=1.39D-07 MaxDP=9.49D-06 DE=-1.81D-09 OVMax= 2.36D-05

 Cycle  20  Pass 1  IDiag  1:
 RMSU=  4.68D-08    CP:  9.65D-01  2.09D+00  8.40D-01  8.88D-01  2.22D+00
                    CP:  2.99D+00  3.00D+00  3.00D+00  3.00D+00  3.00D+00
                    CP:  3.00D+00  1.61D+00  2.22D+00  3.00D+00  1.07D+00
                    CP:  1.55D+00  1.60D+00  2.02D+00  1.35D+00
 E= -770.391583550422     Delta-E=       -0.000000000449 Rises=F Damp=F
 DIIS: error= 1.79D-07 at cycle  20 NSaved=  20.
 NSaved=20 IEnMin=20 EnMin= -770.391583550422     IErMin=20 ErrMin= 1.79D-07
 ErrMax= 1.79D-07  0.00D+00 EMaxC= 1.00D-01 BMatC= 8.58D-11 BMatP= 3.12D-10
 IDIUse=1 WtCom= 1.00D+00 WtEn= 0.00D+00
 Coeff-Com: -0.363D-05 0.664D-05-0.718D-05-0.287D-05-0.157D-03-0.307D-03
 Coeff-Com: -0.214D-04 0.466D-03 0.233D-02-0.598D-03-0.520D-02-0.179D-02
 Coeff-Com:  0.103D-01 0.762D-02-0.126D-03-0.383D-01-0.140D+00 0.318D-01
 Coeff-Com:  0.515D+00 0.620D+00
 Coeff:     -0.363D-05 0.664D-05-0.718D-05-0.287D-05-0.157D-03-0.307D-03
 Coeff:     -0.214D-04 0.466D-03 0.233D-02-0.598D-03-0.520D-02-0.179D-02
 Coeff:      0.103D-01 0.762D-02-0.126D-03-0.383D-01-0.140D+00 0.318D-01
 Coeff:      0.515D+00 0.620D+00
 Gap=     0.230 Goal=   None    Shift=    0.000
 Gap=     0.092 Goal=   None    Shift=    0.000
 RMSDP=4.76D-08 MaxDP=5.44D-06 DE=-4.49D-10 OVMax= 9.52D-06

 Cycle  21  Pass 1  IDiag  1:
 Restarting incremental Fock formation.
 E= -770.391583550457     Delta-E=       -0.000000000036 Rises=F Damp=F
 DIIS: error= 8.64D-08 at cycle  21 NSaved=  20.
 NSaved=20 IEnMin=20 EnMin= -770.391583550457     IErMin=20 ErrMin= 8.64D-08
 ErrMax= 8.64D-08  0.00D+00 EMaxC= 1.00D-01 BMatC= 1.78D-11 BMatP= 8.58D-11
 IDIUse=1 WtCom= 1.00D+00 WtEn= 0.00D+00
 Coeff-Com:  0.344D-06 0.914D-05 0.261D-04-0.509D-05-0.890D-04-0.384D-03
 Coeff-Com: -0.202D-03 0.129D-02 0.202D-03-0.941D-03-0.267D-02 0.622D-03
 Coeff-Com:  0.485D-02 0.645D-02 0.767D-02-0.411D-01-0.422D-01 0.418D-01
 Coeff-Com:  0.348D+00 0.677D+00
 Coeff:      0.344D-06 0.914D-05 0.261D-04-0.509D-05-0.890D-04-0.384D-03
 Coeff:     -0.202D-03 0.129D-02 0.202D-03-0.941D-03-0.267D-02 0.622D-03
 Coeff:      0.485D-02 0.645D-02 0.767D-02-0.411D-01-0.422D-01 0.418D-01
 Coeff:      0.348D+00 0.677D+00
 Gap=     0.230 Goal=   None    Shift=    0.000
 Gap=     0.092 Goal=   None    Shift=    0.000
 RMSDP=1.66D-08 MaxDP=1.81D-06 DE=-3.57D-11 OVMax= 3.39D-06

 Cycle  22  Pass 1  IDiag  1:
 RMSU=  1.66D-08    CP:  1.00D+00
 E= -770.391583550467     Delta-E=       -0.000000000010 Rises=F Damp=F
 DIIS: error= 2.11D-08 at cycle  22 NSaved=  20.
 NSaved=20 IEnMin=20 EnMin= -770.391583550467     IErMin=20 ErrMin= 2.11D-08
 ErrMax= 2.11D-08  0.00D+00 EMaxC= 1.00D-01 BMatC= 8.12D-13 BMatP= 1.78D-11
 IDIUse=1 WtCom= 1.00D+00 WtEn= 0.00D+00
 Coeff-Com:  0.138D-05 0.325D-05 0.970D-05 0.173D-05-0.566D-04-0.750D-04
 Coeff-Com:  0.193D-04 0.493D-04 0.299D-03-0.384D-03-0.579D-03 0.458D-03
 Coeff-Com:  0.175D-02 0.510D-02 0.235D-02-0.137D-01-0.375D-01 0.189D-01
 Coeff-Com:  0.155D+00 0.869D+00
 Coeff:      0.138D-05 0.325D-05 0.970D-05 0.173D-05-0.566D-04-0.750D-04
 Coeff:      0.193D-04 0.493D-04 0.299D-03-0.384D-03-0.579D-03 0.458D-03
 Coeff:      0.175D-02 0.510D-02 0.235D-02-0.137D-01-0.375D-01 0.189D-01
 Coeff:      0.155D+00 0.869D+00
 Gap=     0.230 Goal=   None    Shift=    0.000
 Gap=     0.092 Goal=   None    Shift=    0.000
 RMSDP=4.27D-09 MaxDP=3.38D-07 DE=-9.55D-12 OVMax= 9.42D-07

 Error on total polarization charges =  0.00982
 SCF Done:  E(UB3LYP) =  -770.391583550     A.U. after   22 cycles
            NFock= 22  Conv=0.43D-08     -V/T= 2.0095
 <Sx>= 0.0000 <Sy>= 0.0000 <Sz>= 0.5000 <S**2>= 0.7538 S= 0.5019
 <L.S>=  0.00000000000    
 KE= 7.631384853663D+02 PE=-4.445898463842D+03 EE= 1.584513076772D+03
 Annihilation of the first spin contaminant:
 S**2 before annihilation     0.7538,   after     0.7500
 Leave Link  502 at Tue May 14 12:40:38 2019, MaxMem=   104857600 cpu:            1713.3 elap:              54.4
 (Enter /opt/software/gaussian/g16.b01/l601.exe)
 Copying SCF densities to generalized density rwf, IOpCl= 1 IROHF=0.

 **********************************************************************

            Population analysis using the SCF Density.

 **********************************************************************

 Orbital symmetries:
 Alpha Orbitals:
       Occupied  (A) (A) (A) (A) (A) (A) (A) (A) (A) (A) (A) (A)
                 (A) (A) (A) (A) (A) (A) (A) (A) (A) (A) (A) (A)
                 (A) (A) (A) (A) (A) (A) (A) (A) (A) (A) (A) (A)
                 (A) (A) (A) (A) (A) (A) (A) (A) (A) (A) (A) (A)
                 (A) (A) (A) (A) (A) (A) (A) (A) (A) (A) (A) (A)
                 (A) (A) (A) (A) (A)
       Virtual   (A) (A) (A) (A) (A) (A) (A) (A) (A) (A) (A) (A)
                 (A) (A) (A) (A) (A) (A) (A) (A) (A) (A) (A) (A)
                 (A) (A) (A) (A) (A) (A) (A) (A) (A) (A) (A) (A)
                 (A) (A) (A) (A) (A) (A) (A) (A) (A) (A) (A) (A)
                 (A) (A) (A) (A) (A) (A) (A) (A) (A) (A) (A) (A)
                 (A) (A) (A) (A) (A) (A) (A) (A) (A) (A) (A) (A)
                 (A) (A) (A) (A) (A) (A) (A) (A) (A) (A) (A) (A)
                 (A) (A) (A) (A) (A) (A) (A) (A) (A) (A) (A) (A)
                 (A) (A) (A) (A) (A) (A) (A) (A) (A) (A) (A) (A)
                 (A) (A) (A) (A) (A) (A) (A) (A) (A) (A) (A) (A)
                 (A) (A) (A) (A) (A) (A) (A) (A) (A) (A) (A) (A)
                 (A) (A) (A) (A) (A) (A) (A) (A) (A) (A) (A) (A)
                 (A) (A) (A) (A) (A) (A) (A) (A) (A) (A) (A) (A)
                 (A) (A) (A) (A) (A) (A) (A) (A) (A) (A) (A) (A)
                 (A) (A) (A) (A) (A) (A) (A) (A) (A) (A) (A) (A)
                 (A) (A) (A) (A) (A) (A) (A) (A) (A) (A) (A) (A)
                 (A) (A) (A) (A) (A) (A) (A) (A) (A) (A) (A) (A)
                 (A) (A) (A) (A) (A) (A) (A) (A) (A) (A) (A) (A)
                 (A) (A) (A) (A) (A) (A) (A) (A) (A) (A) (A) (A)
                 (A) (A) (A) (A) (A) (A) (A) (A) (A) (A) (A) (A)
                 (A) (A) (A) (A) (A) (A) (A) (A) (A) (A) (A) (A)
                 (A) (A) (A) (A) (A) (A) (A) (A) (A) (A) (A) (A)
                 (A) (A) (A) (A) (A) (A) (A) (A) (A) (A) (A) (A)
                 (A) (A) (A) (A) (A) (A) (A) (A) (A) (A) (A) (A)
                 (A) (A)
 Beta  Orbitals:
       Occupied  (A) (A) (A) (A) (A) (A) (A) (A) (A) (A) (A) (A)
                 (A) (A) (A) (A) (A) (A) (A) (A) (A) (A) (A) (A)
                 (A) (A) (A) (A) (A) (A) (A) (A) (A) (A) (A) (A)
                 (A) (A) (A) (A) (A) (A) (A) (A) (A) (A) (A) (A)
                 (A) (A) (A) (A) (A) (A) (A) (A) (A) (A) (A) (A)
                 (A) (A) (A) (A)
       Virtual   (A) (A) (A) (A) (A) (A) (A) (A) (A) (A) (A) (A)
                 (A) (A) (A) (A) (A) (A) (A) (A) (A) (A) (A) (A)
                 (A) (A) (A) (A) (A) (A) (A) (A) (A) (A) (A) (A)
                 (A) (A) (A) (A) (A) (A) (A) (A) (A) (A) (A) (A)
                 (A) (A) (A) (A) (A) (A) (A) (A) (A) (A) (A) (A)
                 (A) (A) (A) (A) (A) (A) (A) (A) (A) (A) (A) (A)
                 (A) (A) (A) (A) (A) (A) (A) (A) (A) (A) (A) (A)
                 (A) (A) (A) (A) (A) (A) (A) (A) (A) (A) (A) (A)
                 (A) (A) (A) (A) (A) (A) (A) (A) (A) (A) (A) (A)
                 (A) (A) (A) (A) (A) (A) (A) (A) (A) (A) (A) (A)
                 (A) (A) (A) (A) (A) (A) (A) (A) (A) (A) (A) (A)
                 (A) (A) (A) (A) (A) (A) (A) (A) (A) (A) (A) (A)
                 (A) (A) (A) (A) (A) (A) (A) (A) (A) (A) (A) (A)
                 (A) (A) (A) (A) (A) (A) (A) (A) (A) (A) (A) (A)
                 (A) (A) (A) (A) (A) (A) (A) (A) (A) (A) (A) (A)
                 (A) (A) (A) (A) (A) (A) (A) (A) (A) (A) (A) (A)
                 (A) (A) (A) (A) (A) (A) (A) (A) (A) (A) (A) (A)
                 (A) (A) (A) (A) (A) (A) (A) (A) (A) (A) (A) (A)
                 (A) (A) (A) (A) (A) (A) (A) (A) (A) (A) (A) (A)
                 (A) (A) (A) (A) (A) (A) (A) (A) (A) (A) (A) (A)
                 (A) (A) (A) (A) (A) (A) (A) (A) (A) (A) (A) (A)
                 (A) (A) (A) (A) (A) (A) (A) (A) (A) (A) (A) (A)
                 (A) (A) (A) (A) (A) (A) (A) (A) (A) (A) (A) (A)
                 (A) (A) (A) (A) (A) (A) (A) (A) (A) (A) (A) (A)
                 (A) (A) (A)
 The electronic state is 2-A.
 Alpha  occ. eigenvalues --  -19.19177 -19.14998 -10.26163 -10.26086 -10.19979
 Alpha  occ. eigenvalues --  -10.19936 -10.19632 -10.19304 -10.19276 -10.19259
 Alpha  occ. eigenvalues --  -10.19225 -10.19211 -10.19190 -10.19158 -10.19126
 Alpha  occ. eigenvalues --  -10.19094 -10.18956 -10.17810  -1.05197  -1.01530
 Alpha  occ. eigenvalues --   -0.86027  -0.85419  -0.79333  -0.76119  -0.74699
 Alpha  occ. eigenvalues --   -0.74658  -0.72903  -0.72492  -0.64873  -0.62451
 Alpha  occ. eigenvalues --   -0.60685  -0.60079  -0.58595  -0.55744  -0.52783
 Alpha  occ. eigenvalues --   -0.51314  -0.50585  -0.47394  -0.46646  -0.46021
 Alpha  occ. eigenvalues --   -0.45073  -0.44530  -0.44380  -0.42552  -0.42242
 Alpha  occ. eigenvalues --   -0.41774  -0.41631  -0.40734  -0.39191  -0.38225
 Alpha  occ. eigenvalues --   -0.37803  -0.37011  -0.36790  -0.36287  -0.34753
 Alpha  occ. eigenvalues --   -0.34361  -0.34060  -0.33451  -0.31522  -0.29476
 Alpha  occ. eigenvalues --   -0.28046  -0.25813  -0.25181  -0.24545  -0.24073
 Alpha virt. eigenvalues --   -0.01082  -0.00949  -0.00767   0.00253   0.08913
 Alpha virt. eigenvalues --    0.09552   0.11292   0.12444   0.13016   0.13580
 Alpha virt. eigenvalues --    0.13930   0.14382   0.14800   0.15397   0.15794
 Alpha virt. eigenvalues --    0.16252   0.17298   0.17729   0.18086   0.19170
 Alpha virt. eigenvalues --    0.19740   0.20748   0.22357   0.22455   0.23295
 Alpha virt. eigenvalues --    0.24635   0.25500   0.26014   0.26517   0.28849
 Alpha virt. eigenvalues --    0.30447   0.30506   0.31806   0.32745   0.34476
 Alpha virt. eigenvalues --    0.34725   0.35452   0.36774   0.45218   0.47151
 Alpha virt. eigenvalues --    0.49193   0.49774   0.52308   0.52556   0.53181
 Alpha virt. eigenvalues --    0.53693   0.54477   0.54669   0.54997   0.55041
 Alpha virt. eigenvalues --    0.56731   0.56834   0.57372   0.58284   0.58449
 Alpha virt. eigenvalues --    0.59773   0.60412   0.60471   0.60637   0.60799
 Alpha virt. eigenvalues --    0.61243   0.61895   0.62689   0.62808   0.63323
 Alpha virt. eigenvalues --    0.65747   0.66535   0.68711   0.69920   0.71588
 Alpha virt. eigenvalues --    0.73412   0.73869   0.75009   0.77377   0.78562
 Alpha virt. eigenvalues --    0.79657   0.80535   0.81516   0.81644   0.82382
 Alpha virt. eigenvalues --    0.82444   0.82722   0.83066   0.83542   0.84064
 Alpha virt. eigenvalues --    0.85434   0.85852   0.86743   0.88989   0.89152
 Alpha virt. eigenvalues --    0.90450   0.90678   0.92343   0.92725   0.93071
 Alpha virt. eigenvalues --    0.95535   0.96090   0.98034   0.98653   0.99338
 Alpha virt. eigenvalues --    0.99831   1.01119   1.02088   1.02966   1.05458
 Alpha virt. eigenvalues --    1.07318   1.08384   1.10207   1.10879   1.12038
 Alpha virt. eigenvalues --    1.13523   1.14636   1.17138   1.17791   1.18276
 Alpha virt. eigenvalues --    1.20126   1.23023   1.24212   1.26008   1.26692
 Alpha virt. eigenvalues --    1.28197   1.31589   1.33703   1.34111   1.35515
 Alpha virt. eigenvalues --    1.39002   1.40066   1.40270   1.40623   1.41204
 Alpha virt. eigenvalues --    1.41674   1.42053   1.42125   1.44029   1.45520
 Alpha virt. eigenvalues --    1.47304   1.48251   1.49449   1.57491   1.58279
 Alpha virt. eigenvalues --    1.63085   1.63429   1.65093   1.69125   1.71007
 Alpha virt. eigenvalues --    1.73626   1.77681   1.77708   1.78463   1.79623
 Alpha virt. eigenvalues --    1.82007   1.83266   1.85114   1.85439   1.86558
 Alpha virt. eigenvalues --    1.87039   1.88631   1.89410   1.90959   1.91487
 Alpha virt. eigenvalues --    1.92050   1.93014   1.93750   1.94547   1.96485
 Alpha virt. eigenvalues --    1.96941   1.97765   1.98500   1.99679   2.00305
 Alpha virt. eigenvalues --    2.00521   2.01417   2.02286   2.05222   2.05715
 Alpha virt. eigenvalues --    2.07043   2.07881   2.09491   2.09786   2.10763
 Alpha virt. eigenvalues --    2.11437   2.12067   2.13276   2.14382   2.15834
 Alpha virt. eigenvalues --    2.17295   2.21225   2.22465   2.25474   2.26223
 Alpha virt. eigenvalues --    2.27454   2.28586   2.28955   2.29753   2.31797
 Alpha virt. eigenvalues --    2.32231   2.36405   2.37327   2.37629   2.38030
 Alpha virt. eigenvalues --    2.38345   2.38505   2.39980   2.41485   2.42099
 Alpha virt. eigenvalues --    2.43073   2.44841   2.45136   2.45646   2.46912
 Alpha virt. eigenvalues --    2.47907   2.48943   2.50222   2.51426   2.52408
 Alpha virt. eigenvalues --    2.52902   2.54992   2.56173   2.56557   2.58512
 Alpha virt. eigenvalues --    2.59841   2.60178   2.60525   2.62991   2.64561
[...]
 010543,0.00014404,0.00000196,-0.00006820,0.00016368,0.00004675,0.00013
 817,0.00003073,0.00005227,-0.00005783,-0.00020682,-0.00020722,0.000421
 86,0.00026504,0.00005886,-0.00009757,-0.00011645,-0.00022762,-0.000074
 03,-0.00022202,-0.00004379,0.00009196,0.00000750,-0.00001646,0.0000028
 6,0.00000332,0.00001475,-0.00004501,-0.00009467,0.00004552,0.00002127,
 0.00007776,0.00002815,-0.00014021,0.00001883,0.00001468,-0.00000280,-0
 .00000791,0.00003976,-0.00005483,0.00004206,0.00000517,-0.00000943,0.0
 0000348,0.01110494,-0.02076184,-0.02282363,-0.02634786,-0.01964849,0.0
 3047224,0.02829013,0.05212911,-0.01179348,0.05676843,-0.04526544,-0.12
 136833,0.00437237,0.00217696,0.00341711,0.12237139,-0.04002252,-0.1867
 5478,0.00312542,0.00068979,0.00443589,-0.26769212,0.01327026,0.3888486
 8,0.00008946,0.00009664,0.00005176,-0.00019644,0.00067844,0.00063872,-
 0.00005752,-0.00011085,-0.00000115,-0.00003505,0.00002345,-0.00001456,
 -0.00001194,-0.00000588,-0.00001520,0.00006695,0.00000599,0.00007662,-
 0.00000093,-0.00000488,-0.00000281,-0.00018043,-0.00019478,-0.00031705
 ,0.00000559,0.00002825,-0.00000314,-0.00011271,-0.00003361,0.00007954,
 0.00001926,-0.00001167,0.00002465,0.00003445,-0.00003400,-0.00001845,-
 0.00000922,0.00000791,0.00000142,-0.00001827,0.00001783,0.00000453,0.0
 0000878,-0.00000095,-0.00000302,0.00000757,0.,-0.00000166,-0.00000975,
 -0.00002095,-0.00000841,0.00000223,-0.00001182,0.00001028,-0.00001140,
 0.00001731,0.00000427,-0.00000408,0.00000139,0.00000333,0.00000292,0.0
 0000797,0.00000011,-0.00000307,0.00000478,0.00000202,0.00398672,-0.003
 15628,0.00332211,-0.00673515,0.00264897,0.00994130,0.00010646,-0.00011
 056,-0.00045234,-0.18554580,0.01144190,0.14921081,-0.00178630,0.000254
 69,-0.00278174,0.00392785,0.00107600,0.00271091,-0.00062816,0.00011997
 ,-0.00050588,-0.00189587,-0.00145545,0.00451930,0.19036246,0.00001524,
 0.00001082,0.00002101,-0.00064442,0.00092558,0.00083883,-0.00000970,-0
 .00000456,-0.00001665,0.00001168,0.00000450,-0.00000807,-0.00000054,-0
 .00000210,-0.00000351,0.00000428,0.00001009,0.00000977,-0.00000296,-0.
 00000314,-0.00000168,-0.00008938,-0.00037329,-0.00001447,0.00002608,0.
 00003045,-0.00001805,-0.00005869,-0.00002514,0.00007385,-0.00003062,-0
 .00002009,0.00002726,0.00000206,-0.00000562,-0.00000432,0.00000173,0.0
 0000099,-0.00000521,-0.00000353,0.00000200,-0.00000339,0.00000121,0.00
 000256,-0.00000180,0.00000257,0.00000006,0.00000057,0.00000474,-0.0000
 0313,-0.00000008,0.00000082,-0.00000408,0.00000435,-0.00000469,0.00000
 206,0.00000523,-0.00000157,0.00000044,0.00000108,-0.00000132,0.0000019
 0,-0.00000207,-0.00000080,0.00000089,0.00000020,-0.00254152,-0.0043357
 1,0.00048384,-0.01932093,0.00568169,0.01957474,-0.00019762,-0.00101768
 ,0.00011729,0.01155582,-0.06104272,-0.01513591,0.00065636,0.00081881,0
 .00023512,0.00017820,-0.00491721,-0.00198973,0.00010082,0.00020898,0.0
 0010005,0.02067889,0.00341586,-0.02039131,-0.01141510,0.05977269,-0.00
 008193,-0.00009754,-0.00006057,0.00062991,-0.00072133,-0.00013299,0.00
 005440,0.00010417,-0.00000131,-0.00000460,-0.00000992,-0.00000089,0.00
 000179,0.00000277,0.00001349,-0.00000751,-0.00002061,-0.00003103,0.000
 00804,0.00000735,0.00000499,-0.00028215,0.00021858,-0.00019574,-0.0000
 2738,-0.00002732,0.00001537,0.00001203,0.00003370,0.00000350,0.0001160
 1,0.00004323,-0.00011101,-0.00003067,0.00003780,0.00002070,0.00000909,
 -0.00000896,-0.00000340,0.00000812,-0.00001036,0.00000227,-0.00000681,
 0.00000406,0.00000434,-0.00000544,0.00000008,0.00000170,0.00000924,0.0
 0001343,-0.00000187,-0.00000793,0.00000610,-0.00001240,0.00001109,-0.0
 0001789,-0.00000363,0.00000376,-0.00000127,-0.00000345,-0.00000259,-0.
 00000607,0.00000008,0.00000311,-0.00000439,-0.00000170,0.00360442,0.00
 111532,0.00461089,0.00638169,-0.00233039,-0.00374986,-0.00051130,0.000
 18967,0.00019382,0.14916140,-0.01485240,-0.18705519,-0.00272376,0.0005
 6421,-0.00187096,0.00250414,-0.00291640,0.00353063,-0.00049156,0.00013
 541,-0.00063710,0.00809069,0.00145005,-0.00492427,-0.16479596,0.016578
 85,0.19191058,-0.00001286,-0.00003945,-0.00001667,0.00095323,-0.000320
 45,-0.00010855,0.00000015,0.00004124,-0.00000958,-0.00000034,0.0000029
 6,-0.00000360,-0.00000102,0.00000012,0.00000194,-0.00000043,-0.0000058
 8,0.00000267,-0.00000121,0.00000059,0.00000076,-0.00000631,0.00000868,
 -0.00000353,-0.00000287,0.00001397,-0.00000100,0.00000116,-0.00001272,
 0.00000799,0.00000696,0.00000995,-0.00002089,-0.00001133,0.00001393,0.
 00001229,0.00001011,-0.00000074,-0.00000750,0.00002102,0.00001199,0.00
 000917,-0.00000087,0.00001110,0.00000159,-0.00000019,-0.00000019,0.000
 00081,0.00003590,0.00000605,0.00001573,-0.00000364,-0.00000006,0.00000
 182,0.00000476,-0.00000014,0.00001422,0.00000029,0.00000031,-0.0000010
 9,-0.00000461,0.00000439,-0.00000640,0.00000133,-0.00000043,0.00000043
 ,0.00240188,-0.00310365,0.00492823,-0.00055201,-0.00046951,0.00005503,
 0.00661227,-0.01386371,-0.00623484,0.00027124,-0.00127071,0.00595160,-
 0.00041975,0.00017140,-0.00061983,-0.06571300,0.05984220,0.03885167,-0
 .00173386,0.00051961,-0.00267987,-0.00116463,0.02081255,0.00729645,-0.
 00011534,0.00108413,0.00054087,0.06111853,0.00012423,0.00011064,0.0000
 6987,0.00071008,0.00012183,-0.00094608,-0.00008338,-0.00012953,-0.0000
 0112,-0.00001956,0.00002466,0.00000124,-0.00000708,-0.00000463,-0.0000
 1897,0.00003234,0.00001100,0.00005320,-0.00000546,-0.00000693,-0.00000
 445,0.00007783,-0.00007247,-0.00004855,0.00002612,0.00001874,-0.000018
 21,-0.00005598,-0.00004509,0.00001650,-0.00004413,-0.00004242,0.000068
 99,0.00003633,-0.00003552,-0.00002345,-0.00000839,0.00001313,-0.000000
 08,-0.00000540,0.00001563,0.00000007,0.00000994,0.00000015,-0.00000100
 ,0.00000895,0.00000025,-0.00000275,0.00002374,-0.00003457,0.00002807,0
 .00000532,-0.00001126,0.00001866,-0.00002080,0.00002857,0.00001313,-0.
 00000541,0.00000233,0.00000347,-0.00000126,0.00002118,-0.00001772,-0.0
 0000675,0.00000652,0.00000207,-0.00380913,-0.00170918,0.00222240,-0.00
 045934,0.00019526,0.00053597,0.00820865,-0.01889248,-0.01167564,-0.000
 41330,0.00179415,-0.00032201,0.00015283,-0.00006729,0.00000366,0.05942
 666,-0.27706272,-0.09766152,0.00028044,0.00079842,0.00062206,-0.001120
 11,0.00212084,0.00104624,-0.00007598,-0.00000543,0.00003847,-0.0633947
 5,0.29311244,0.00002862,0.00003113,0.00001037,-0.00008062,0.00021233,0
 .00070455,-0.00002267,-0.00004100,0.00000978,-0.00000740,0.00001129,0.
 00000181,-0.00000242,-0.00000029,-0.00000554,0.00002055,0.00000342,0.0
 0001651,-0.00000220,-0.00000186,-0.00000113,0.00004622,-0.00002781,0.0
 0002997,0.00001841,0.00001849,-0.00001031,-0.00001026,-0.00002411,-0.0
 0000593,-0.00002064,0.00000705,0.00002496,0.00000315,-0.00001817,0.000
 00035,0.00000462,0.00000364,-0.00000377,0.00002687,0.00002145,0.000009
 66,0.00000111,0.00000802,-0.00000304,0.00000284,0.00000117,-0.00000106
 ,0.00002449,-0.00001565,0.00001819,0.00000737,-0.00000164,0.00000372,-
 0.00000634,0.00001112,0.00001308,0.00000041,0.00000131,-0.00000069,-0.
 00000721,0.00001815,-0.00001889,-0.00000079,0.00000078,0.00000198,0.00
 470159,0.00145752,0.00343285,0.00014439,0.00056616,-0.00051245,-0.0027
 3760,0.01037728,0.00699822,0.00611736,0.00060603,0.00042496,-0.0005921
 2,-0.00000191,-0.00046038,0.03865197,-0.09810770,-0.09076749,-0.002730
 90,0.00032742,-0.00177298,0.00387681,-0.02097233,-0.00446378,0.0003647
 3,-0.00114468,-0.00028136,-0.04551116,0.10585210,0.08815653,0.00001995
 ,0.00004407,0.00005118,-0.00031423,0.00027291,-0.00037736,-0.00002271,
 -0.00003888,-0.00001705,0.00002601,0.00001178,-0.00000588,-0.00000028,
 -0.00000396,-0.00000444,-0.00001466,0.00000781,0.00000297,-0.00000329,
 -0.00000321,-0.00000278,-0.00002275,0.00000441,0.00000604,0.00005202,-
 0.00002925,-0.00001810,0.00000152,-0.00001056,0.00000138,-0.00000315,-
 0.00003201,0.00003294,0.00001681,-0.00001279,-0.00001621,-0.00000976,0
 .00001039,0.00000313,-0.00000662,0.00000804,0.00000019,0.00000668,-0.0
 0001028,-0.00000567,0.00000185,-0.00000259,0.00000071,-0.00001194,-0.0
 0001369,-0.00000637,-0.00000411,-0.00000779,0.00000882,0.00000329,0.00
 001298,-0.00000150,-0.00000441,0.00000088,0.00000341,0.00000223,0.0000
 0181,0.00000304,-0.00000101,0.00000137,0.00000041,-0.00061216,0.000572
 21,-0.00009492,0.00289175,0.00125420,0.00341833,0.00061839,0.00111463,
 0.00562833,0.00641057,0.00793178,-0.00317690,0.00039827,0.00036529,0.0
 0011058,-0.00598647,-0.01933313,0.00487431,-0.00024919,-0.00100814,0.0
 0050411,-0.10405600,-0.10846850,0.05546706,-0.00136789,0.00000153,-0.0
 0219799,-0.00126750,0.00057027,-0.00219471,0.10341134,0.00008732,0.000
 06186,-0.00000845,0.00004329,0.00024278,0.00000226,-0.00004972,-0.0000
 8506,0.00002250,-0.00002560,0.00002938,-0.00000543,-0.00001390,-0.0000
 0770,-0.00001020,0.00005498,0.00000887,0.00006363,-0.00000632,-0.00000
 685,-0.00000252,0.00003530,-0.00005951,-0.00001458,0.00000941,0.000017
 12,-0.00000612,-0.00003270,-0.00002128,0.00000812,-0.00002562,-0.00001
 760,0.00003596,0.00001972,-0.00001601,-0.00000892,-0.00000537,0.000014
 02,-0.00000044,-0.00000947,0.00000847,-0.00000946,0.00001096,-0.000001
 28,-0.00000636,0.00000315,-0.00000561,0.00000022,-0.00001079,-0.000012
 55,-0.00000299,0.00000408,-0.00001164,0.00001862,-0.00000845,0.0000171
 0,0.00000093,-0.00000780,0.00000158,0.00000590,0.00000099,0.00000100,0
 .00000292,-0.00000113,0.00000210,0.00000064,0.00055006,0.00010656,-0.0
 0043668,0.00218598,-0.00293985,-0.00361983,0.00032918,0.00132811,-0.00
 108653,-0.01436374,-0.01737780,0.01119784,-0.00073655,-0.00094104,0.00
 050524,0.00277004,0.00529278,-0.00224967,0.00011405,0.00011820,-0.0001
 5554,-0.10841435,-0.25244904,0.07296976,0.00053585,0.00085753,0.000167
 09,0.00005813,0.00067064,0.00062407,0.11703622,0.26539208,-0.00001087,
 -0.00005481,-0.00000960,-0.00038681,0.00000597,-0.00025114,0.00001088,
 0.00004930,-0.00001185,0.00001038,0.00000044,0.00000230,-0.00000151,0.
 00000114,0.00000078,-0.00000617,0.00000635,-0.00000600,-0.00000059,0.0
 0000152,0.00000147,0.00003183,0.00002181,0.00001333,-0.00006189,-0.000
 01492,0.00003553,-0.00000574,0.00005708,0.00000679,0.00000168,0.000001
 58,0.00000397,-0.00001292,0.00001348,0.00002002,0.00000411,-0.00000801
 ,-0.00000651,0.00000285,0.00000431,-0.00000324,-0.00000597,0.00000510,
 0.00000193,-0.00000097,0.00000210,-0.00000049,0.00001400,0.00000229,-0
 .00000187,0.00000064,-0.00000164,-0.00000830,0.00000172,-0.00000786,0.
 00001309,0.00000357,-0.00000009,-0.00000273,-0.00000154,0.00000159,-0.
 00000126,0.00000048,-0.00000114,-0.00000072,-0.00012666,-0.00045509,-0
 .00072613,0.00349927,-0.00276732,0.00221881,0.00549828,-0.00198942,0.0
 0027071,-0.00668025,-0.01083946,0.00691086,-0.00008462,-0.00057459,0.0
 0043333,0.00853138,0.01991867,-0.00334524,0.00070713,0.00096579,-0.000
 14687,0.05537095,0.07292040,-0.07494482,-0.00211138,0.00068964,-0.0013
 6645,-0.00228006,0.00008711,-0.00126628,-0.06192384,-0.07812493,0.0721
 2580,-0.00415405,-0.00361538,-0.00042157,-0.10157208,0.02827962,0.0507
 5339,-0.00343632,0.00363152,-0.00446337,-0.00016823,0.00033465,-0.0001
 1338,0.00005039,0.00005204,-0.00008352,0.00003856,-0.00001250,-0.00009
 462,-0.00001663,0.00000445,0.00000876,-0.01035716,0.02870943,0.0135301
 4,-0.00318698,-0.00055042,0.00574915,0.00248865,0.00189452,-0.00141057
 ,0.00028705,0.00029089,0.00005184,0.00074415,0.00002176,0.00018963,-0.
 00012479,0.00017496,0.00012204,-0.00013044,0.00015260,0.00014784,0.000
 09170,-0.00006026,-0.00012254,0.00010527,-0.00001547,-0.00003174,-0.00
 003400,-0.00000211,-0.00001316,0.00003414,-0.00002353,0.00000207,-0.00
 010692,0.00016852,0.00001872,-0.00003910,0.00001126,0.00003613,0.00000
 016,0.00005538,-0.00000899,-0.00001261,0.00003173,0.00000974,0.0081551
 0,-0.02082134,-0.00820646,-0.00120098,-0.00098092,-0.00087361,-0.00030
 128,0.00015330,0.00501695,0.00003109,-0.00161457,-0.00078307,0.0000051
 3,-0.00266351,0.00000934,-0.00025175,-0.00233785,0.00053031,-0.0000456
 9,-0.00013903,-0.00029592,0.00088712,0.00097169,-0.00076758,0.00012039
 ,-0.00001476,0.00003057,-0.00043798,-0.00022124,-0.00006616,0.00007352
 ,-0.00011813,-0.00000412,0.43712663,-0.00004571,-0.01011795,0.00255150
 ,0.06450402,-0.24031790,-0.08740349,-0.00321967,0.00794274,-0.00558793
 ,0.00071443,-0.00014913,-0.00067034,-0.00018704,0.00004065,0.00000611,
 -0.00120131,-0.00054819,-0.00034999,0.00006139,0.00028676,0.00038765,0
 .00513257,-0.01016067,-0.00778388,0.00053651,0.00139842,-0.00122538,-0
 .00015025,0.00183492,0.00228530,0.00002915,0.00037759,-0.00031340,-0.0
 0192748,0.00288902,0.00082692,0.00103088,-0.00015343,-0.00093110,0.000
 11115,-0.00161434,0.00037267,-0.00034484,0.00028576,0.00011073,0.00004
 255,-0.00000425,0.00000272,-0.00030192,0.00067529,0.00032789,-0.000033
 07,0.00005323,-0.00013297,0.00061943,-0.00060121,-0.00029886,0.0000846
 6,0.00000402,-0.00006311,-0.00006625,-0.00005415,0.00001304,0.00004363
 ,-0.00004026,-0.00000509,0.01278988,-0.04467000,-0.01842109,0.00064987
 ,0.00027566,0.00055733,-0.00613473,-0.00240584,0.00383476,0.00125051,-
 0.00158748,-0.00102131,-0.00192082,-0.00195554,0.00115569,0.00204728,0
 .00000949,-0.00217671,0.00044371,0.00008901,-0.00044340,-0.00217880,-0
 .00119698,0.00172861,-0.00037188,0.00001536,0.00036049,-0.00002324,-0.
 00090810,0.00015666,-0.00027942,-0.00025567,0.00006235,0.16303849,0.48
 717122,-0.00156310,-0.00708241,-0.00087918,0.06317657,-0.08062118,-0.0
 8718966,-0.00398823,0.00578384,-0.00363565,-0.00054834,0.00071970,-0.0
 0098587,-0.00066768,0.00004835,-0.00012857,-0.00071692,-0.00105609,0.0
 0067123,0.00010673,0.00056737,0.00051493,0.01497907,-0.03440244,-0.009
 97867,0.00470832,0.00153937,-0.00418609,-0.00092375,0.00071140,0.00143
 981,-0.00242193,0.00044096,0.00246925,-0.00022463,0.00110127,0.0006700
 6,0.00044275,0.00009965,-0.00022710,-0.00001359,-0.00049008,0.00018112
 ,-0.00012948,0.00018160,0.00013215,0.00000062,-0.00007524,-0.00005655,
 -0.00015782,0.00021219,0.00009869,-0.00000409,-0.00010364,0.00002991,0
 .00016718,-0.00014253,-0.00011626,-0.00000127,0.00001808,-0.00000322,-
 0.00002359,0.00000970,0.00001041,0.00000059,-0.00000259,0.00000800,-0.
 00202573,0.00360521,0.00502019,0.00005453,0.00099164,-0.00140005,0.002
 28693,-0.00174568,0.00114201,-0.00037456,0.00116231,0.00072777,0.00021
 050,0.00256311,-0.00023168,0.00097199,0.00084341,-0.00021233,-0.000245
 45,0.00037996,0.00000596,-0.00050597,-0.00034721,0.00022778,0.00007454
 ,-0.00005322,0.00012581,-0.00014678,0.00004867,-0.00018943,-0.00005948
 ,0.00009183,0.00002124,-0.05261931,0.13716316,0.11041323,0.00143872,0.
 01025161,-0.00452909,0.01138167,0.00806991,-0.00020585,0.00056079,-0.0
 0709310,0.00639085,-0.00030740,-0.00054193,0.00063862,-0.00012192,-0.0
 0001423,0.00018962,0.00017911,0.00007397,0.00011380,0.00003686,0.00008
 785,-0.00000739,0.00199861,0.00348075,0.00128084,-0.00065350,-0.000041
 72,0.00034071,-0.00114156,-0.00025658,0.00009929,-0.00022786,-0.000170
 37,-0.00046165,0.00031834,-0.00225521,-0.00059457,-0.00043909,-0.00007
 555,0.00056442,0.00022123,0.00076736,-0.00043435,0.00002046,-0.0001771
 2,0.00005698,-0.00014814,0.00005337,0.00004557,0.00029322,-0.00031749,
 -0.00019108,-0.00002907,0.00002835,0.00002118,-0.00017311,0.00001706,0
 .00008464,0.00003347,-0.00002482,-0.00003010,0.00003136,-0.00006210,0.
 00000696,0.00000513,-0.00003196,-0.00001491,-0.00040732,0.00460333,0.0
 0085997,-0.00064245,-0.00005051,0.00029884,0.00048469,0.00007307,-0.00
 046953,0.00011341,0.00019024,-0.00014608,0.00010364,-0.00011975,-0.000
 20480,0.00007095,0.00036426,-0.00001911,0.00001341,-0.00002926,0.00003
 917,-0.00011514,-0.00022519,0.00013524,-0.00001576,0.00001200,-0.00000
 281,0.00001090,0.00006374,-0.00004832,0.00002393,-0.00001909,0.0000167
 7,-0.32466206,-0.23474369,-0.01981861,0.31174447,0.00163880,-0.0022733
 5,0.00160034,-0.02597379,-0.04019292,-0.00354135,-0.00111164,-0.000303
 73,-0.00085094,-0.00018905,0.00024813,0.00015460,-0.00001862,-0.000017
 05,-0.00016787,0.00007808,-0.00013181,0.00016379,0.00002624,0.00004387
 ,0.00007265,-0.00027443,0.00251993,0.00079070,-0.00038196,0.00041589,0
 .00115959,0.00160541,0.00028323,-0.00140870,0.00001885,0.00026232,0.00
 016694,0.00014414,-0.00023850,0.00011728,-0.00004601,0.00018162,-0.000
 02617,-0.00018254,0.00000605,0.00003035,0.00008587,0.00002368,-0.00006
 970,0.00008500,-0.00002017,-0.00002432,-0.00009143,-0.00003406,0.00005
 739,0.00002093,-0.00005167,0.00000704,-0.00010170,0.00018590,0.0000451
 7,-0.00004556,0.00001976,0.00004320,0.00001193,0.00005691,-0.00000257,
 -0.00001977,0.00003285,0.00000665,0.00129957,-0.00266947,-0.00502858,0
 .00052188,0.00034906,-0.00070240,-0.00055238,-0.00067210,0.00100481,-0
 .00029937,-0.00002092,0.00012192,-0.00007495,0.00002646,0.00021291,0.0
 0032614,-0.00044434,-0.00013981,-0.00003601,-0.00002045,-0.00006960,0.
 00023815,0.00037533,-0.00014975,0.00004728,-0.00000333,-0.00004599,-0.
 00010772,-0.00003876,0.00004060,0.00003162,0.00003831,0.00002128,-0.19
 478580,-0.18660804,-0.03216050,0.21811282,0.22867140,-0.00087706,0.006
 19362,-0.00275706,-0.01296983,-0.01619588,-0.00268003,0.00215905,-0.00
 365418,0.00219985,0.00048457,0.00002504,0.00072253,-0.00003845,-0.0001
 4677,0.00024097,0.00010222,0.00015041,-0.00015330,-0.00001455,-0.00016
 436,-0.00033873,-0.00250565,0.00047253,-0.00097438,-0.00012788,0.00057
 059,0.00079099,0.00174194,-0.00030959,0.00009591,0.00024672,-0.0002466
 5,-0.00039385,-0.00029684,-0.00111350,-0.00047304,-0.00013828,-0.00016
 447,0.00023418,0.00022072,0.00015806,-0.00024249,-0.00003434,-0.000116
 41,-0.00000370,-0.00005846,0.00008804,0.00007680,0.00014267,-0.0000933
 0,-0.00006293,-0.00002270,0.00006129,-0.00000794,0.00001558,-0.0000997
 8,-0.00001482,0.00004338,-0.00002413,-0.00003314,0.00001352,-0.0000629
 1,0.00000335,0.00001539,-0.00002611,-0.00000926,0.00190360,0.00075117,
 -0.00053836,0.00011083,0.00050651,-0.00049653,0.00037460,-0.00035513,0
 .00074724,-0.00003583,0.00008788,0.00000629,-0.00055903,0.00001848,0.0
 0054384,0.00025621,0.00034503,-0.00017486,0.00000790,-0.00007457,-0.00
 006053,-0.00026402,-0.00014962,0.00027218,-0.00000818,0.00003247,0.000
 00698,-0.00004189,0.00000960,-0.00009299,-0.00001376,0.00003113,0.0000
 1956,-0.00582694,-0.02507554,-0.01448926,0.01599479,0.03857104,0.01803
 651\\-0.00000635,-0.00000268,0.00001307,0.00000657,-0.00002288,0.00000
 555,0.00000952,0.00001285,-0.00000783,-0.00001348,-0.00000053,-0.00000
 770,0.00000458,-0.00000134,0.00000155,0.00000342,0.00000162,0.00000474
 ,0.00000212,0.00000046,0.00000103,-0.00001112,0.00000371,-0.00001039,0
 .00000157,-0.00000163,-0.00000010,0.00000202,-0.00000101,0.00000023,0.
 00000180,-0.00000072,0.00000158,0.00001308,-0.00000569,-0.00000157,-0.
 00000221,0.00000169,0.00000215,-0.00000397,0.00000564,0.00000009,-0.00
 000127,0.00000120,-0.00000025,0.00000043,0.00000033,-0.00000037,0.0000
 0316,-0.00000429,-0.00000198,0.00000337,-0.00000016,0.00000187,-0.0000
 0218,-0.00000094,0.00000288,0.00000083,-0.00000031,0.00000034,-0.00000
 038,0.00000096,0.00000033,0.00000075,0.00000112,-0.00000128,0.00000024
 ,0.00001072,-0.00000481,-0.00000722,-0.00000647,0.00000406,-0.00000192
 ,-0.00000972,-0.00000243,0.00000239,0.00000365,-0.00000113,0.00000118,
 0.00000122,-0.00000191,0.00000251,0.00000332,-0.00000147,-0.00000036,0
 .00000132,-0.00000077,-0.00000031,-0.00000256,0.00000193,-0.00000004,-
 0.00000076,0.00000068,0.00000030,-0.00000079,0.00000098,-0.00000005,0.
 00000040,0.00000036,-0.00001780,0.00001119,-0.00000582,0.00000880,0.00
 000108,0.00000640\\\@


 CHARLIE BROWN -- WHICH DO YOU THINK LASTS LONGER IN LIFE, THE GOOD THINGS 
                  OR THE BAD THINGS?
 LINUS --         GOOD THINGS LAST EIGHT SECONDS ..
                  BAD THINGS LAST THREE WEEKS
 CHARLIE BROWN -- WHAT ABOUT IN BETWEEN?
 SNOOPY --        IN BETWEEN YOU SHOULD TAKE A NAP ...
 Job cpu time:       0 days  6 hours 54 minutes 12.1 seconds.
 Elapsed time:       0 days  0 hours 13 minutes  2.0 seconds.
 File lengths (MBytes):  RWF=    975 Int=      0 D2E=      0 Chk=     28 Scr=      1
 Normal termination of Gaussian 16 at Tue May 14 13:11:36 2019.
