 Entering Gaussian System, Link 0=g16
 Initial command:
 /project/6004141/group/g16/g16/l1.exe "/scratch/rzk/Gau-203190.inp" -scrdir="/scratch/rzk/"
 Entering Link 1 = /project/6004141/group/g16/g16/l1.exe PID=    203192.
  
 Copyright (c) 1988,1990,1992,1993,1995,1998,2003,2009,2016,
            Gaussian, Inc.  All Rights Reserved.
  
 This is part of the Gaussian(R) 16 program.  It is based on
 the Gaussian(R) 09 system (copyright 2009, Gaussian, Inc.),
 the Gaussian(R) 03 system (copyright 2003, Gaussian, Inc.),
 the Gaussian(R) 98 system (copyright 1998, Gaussian, Inc.),
 the Gaussian(R) 94 system (copyright 1995, Gaussian, Inc.),
 the Gaussian 92(TM) system (copyright 1992, Gaussian, Inc.),
 the Gaussian 90(TM) system (copyright 1990, Gaussian, Inc.),
 the Gaussian 88(TM) system (copyright 1988, Gaussian, Inc.),
 the Gaussian 86(TM) system (copyright 1986, Carnegie Mellon
 University), and the Gaussian 82(TM) system (copyright 1983,
 Carnegie Mellon University). Gaussian is a federally registered
 trademark of Gaussian, Inc.
  
 This software contains proprietary and confidential information,
 including trade secrets, belonging to Gaussian, Inc.
  
 This software is provided under written license and may be
 used, copied, transmitted, or stored only in accord with that
 written license.
  
 The following legend is applicable only to US Government
 contracts under FAR:
  
                    RESTRICTED RIGHTS LEGEND
  
 Use, reproduction and disclosure by the US Government is
 subject to restrictions as set forth in subparagraphs (a)
 and (c) of the Commercial Computer Software - Restricted
 Rights clause in FAR 52.227-19.
  
 Gaussian, Inc.
 340 Quinnipiac St., Bldg. 40, Wallingford CT 06492
  
  
 ---------------------------------------------------------------
 Warning -- This program may not be used in any manner that
 competes with the business of Gaussian, Inc. or will provide
 assistance to any competitor of Gaussian, Inc.  The licensee
 of this program is prohibited from giving any competitor of
 Gaussian, Inc. access to this program.  By using this program,
 the user acknowledges that Gaussian, Inc. is engaged in the
 business of creating and licensing software in the field of
 computational chemistry and represents and warrants to the
 licensee that it is not a competitor of Gaussian, Inc. and that
 it will not use this program in any manner prohibited above.
 ---------------------------------------------------------------
  

 Cite this work as:
 Gaussian 16, Revision A.03,
 M. J. Frisch, G. W. Trucks, H. B. Schlegel, G. E. Scuseria, 
 M. A. Robb, J. R. Cheeseman, G. Scalmani, V. Barone, 
 G. A. Petersson, H. Nakatsuji, X. Li, M. Caricato, A. V. Marenich, 
 J. Bloino, B. G. Janesko, R. Gomperts, B. Mennucci, H. P. Hratchian, 
 J. V. Ortiz, A. F. Izmaylov, J. L. Sonnenberg, D. Williams-Young, 
 F. Ding, F. Lipparini, F. Egidi, J. Goings, B. Peng, A. Petrone, 
 T. Henderson, D. Ranasinghe, V. G. Zakrzewski, J. Gao, N. Rega, 
 G. Zheng, W. Liang, M. Hada, M. Ehara, K. Toyota, R. Fukuda, 
 J. Hasegawa, M. Ishida, T. Nakajima, Y. Honda, O. Kitao, H. Nakai, 
 T. Vreven, K. Throssell, J. A. Montgomery, Jr., J. E. Peralta, 
 F. Ogliaro, M. J. Bearpark, J. J. Heyd, E. N. Brothers, K. N. Kudin, 
 V. N. Staroverov, T. A. Keith, R. Kobayashi, J. Normand, 
 K. Raghavachari, A. P. Rendell, J. C. Burant, S. S. Iyengar, 
 J. Tomasi, M. Cossi, J. M. Millam, M. Klene, C. Adamo, R. Cammi, 
 J. W. Ochterski, R. L. Martin, K. Morokuma, O. Farkas, 
 J. B. Foresman, and D. J. Fox, Gaussian, Inc., Wallingford CT, 2016.
 
 ******************************************
 Gaussian 16:  ES64L-G16RevA.03 25-Dec-2016
                10-Jun-2019 
 ******************************************
 %NProcShared=40
 Will use up to   40 processors via shared memory.
 %chk=ABH.chk
 ----------------------------------------------------------------------
 #p opt=modredundant ub3lyp/6-31g(d,p) scrf=(iefpcm,solvent=acetonitril
 e) empiricaldispersion=gd3
 ----------------------------------------------------------------------
 1/18=120,19=15,26=3,38=1/1,3;
 2/9=110,12=2,17=6,18=5,40=1/2;
 3/5=1,6=6,7=101,11=2,25=1,30=1,70=2201,71=1,72=2,74=-5,116=2,124=31/1,2,3;
 4//1;
 5/5=2,38=5,53=2/2;
 6/7=2,8=2,9=2,10=2,28=1/1;
 7//1,2,3,16;
 1/18=20,19=15,26=3/3(2);
 2/9=110/2;
 99//99;
 2/9=110/2;
 3/5=1,6=6,7=101,11=2,25=1,30=1,70=2205,71=1,72=2,74=-5,116=2,124=31/1,2,3;
 4/5=5,16=3,69=1/1;
 5/5=2,38=5,53=2/2;
 7//1,2,3,16;
 1/18=20,19=15,26=3/3(-5);
 2/9=110/2;
 6/7=2,8=2,9=2,10=2,19=2,28=1/1;
 99/9=1/99;
 Leave Link    1 at Mon Jun 10 11:59:02 2019, MaxMem=           0 cpu:              10.7 elap:               0.3
 (Enter /project/6004141/group/g16/g16/l101.exe)
 -------------------
 Title Card Required
 -------------------
 Symbolic Z-matrix:
 Charge =  0 Multiplicity = 3
 C                     0.54768   1.20273  -0.35461 
 H                     4.20854  -1.24985   1.28803 
 O                     1.70847   0.68486  -0.83931 
 N                     2.60859  -1.62104   0.05015 
 H                     1.77455  -0.30283  -0.72065 
 N                     3.32697  -0.89754   0.92785 
 H                     3.28912   0.09656   0.72448 
 H                     2.84148  -2.60752   0.17987 
 C                     0.65302   2.66054  -0.02897 
 H                     1.4799    3.09782  -0.59495 
 H                    -0.26188   3.20683  -0.27574 
 H                     0.8585    2.8315    1.0382 
 C                    -0.6231    0.42023  -0.17859 
 C                    -0.71511  -0.92978  -0.64033 
 C                    -1.77731   0.95837   0.47157 
 C                    -1.87082  -1.67446  -0.45683 
 H                     0.12498  -1.38186  -1.15589 
 C                    -2.92463   0.1984    0.64631 
 H                    -1.75368   1.97409   0.85186 
 C                    -2.98968  -1.12604   0.18803 
 H                    -1.9073   -2.69642  -0.82533 
 H                    -3.78118   0.6386    1.15026 
 H                    -3.89005  -1.71572   0.32886 
 
 Add virtual bond connecting atoms H5         and N4         Dist= 3.29D+00.
 The following ModRedundant input section has been read:
 
 ITRead=  0  0  0  0  0  0  0  0  0  0  0  0  0  0  0  0  0  0  0  0
 ITRead=  0  0  0
 MicOpt= -1 -1 -1 -1 -1 -1 -1 -1 -1 -1 -1 -1 -1 -1 -1 -1 -1 -1 -1 -1
 MicOpt= -1 -1 -1
 NAtoms=     23 NQM=       23 NQMF=       0 NMMI=      0 NMMIF=      0
                NMic=       0 NMicF=      0.
                    Isotopes and Nuclear Properties:
 (Nuclear quadrupole moments (NQMom) in fm**2, nuclear magnetic moments (NMagM)
  in nuclear magnetons)

  Atom         1           2           3           4           5           6           7           8           9          10
 IAtWgt=          12           1          16          14           1          14           1           1          12           1
 AtmWgt=  12.0000000   1.0078250  15.9949146  14.0030740   1.0078250  14.0030740   1.0078250   1.0078250  12.0000000   1.0078250
 NucSpn=           0           1           0           2           1           2           1           1           0           1
 AtZEff=  -0.0000000  -0.0000000  -0.0000000  -0.0000000  -0.0000000  -0.0000000  -0.0000000  -0.0000000  -0.0000000  -0.0000000
 NQMom=    0.0000000   0.0000000   0.0000000   2.0440000   0.0000000   2.0440000   0.0000000   0.0000000   0.0000000   0.0000000
 NMagM=    0.0000000   2.7928460   0.0000000   0.4037610   2.7928460   0.4037610   2.7928460   2.7928460   0.0000000   2.7928460
 AtZNuc=   6.0000000   1.0000000   8.0000000   7.0000000   1.0000000   7.0000000   1.0000000   1.0000000   6.0000000   1.0000000

  Atom        11          12          13          14          15          16          17          18          19          20
 IAtWgt=           1           1          12          12          12          12           1          12           1          12
 AtmWgt=   1.0078250   1.0078250  12.0000000  12.0000000  12.0000000  12.0000000   1.0078250  12.0000000   1.0078250  12.0000000
 NucSpn=           1           1           0           0           0           0           1           0           1           0
 AtZEff=  -0.0000000  -0.0000000  -0.0000000  -0.0000000  -0.0000000  -0.0000000  -0.0000000  -0.0000000  -0.0000000  -0.0000000
 NQMom=    0.0000000   0.0000000   0.0000000   0.0000000   0.0000000   0.0000000   0.0000000   0.0000000   0.0000000   0.0000000
 NMagM=    2.7928460   2.7928460   0.0000000   0.0000000   0.0000000   0.0000000   2.7928460   0.0000000   2.7928460   0.0000000
 AtZNuc=   1.0000000   1.0000000   6.0000000   6.0000000   6.0000000   6.0000000   1.0000000   6.0000000   1.0000000   6.0000000

  Atom        21          22          23
 IAtWgt=           1           1           1
 AtmWgt=   1.0078250   1.0078250   1.0078250
 NucSpn=           1           1           1
 AtZEff=  -0.0000000  -0.0000000  -0.0000000
 NQMom=    0.0000000   0.0000000   0.0000000
 NMagM=    2.7928460   2.7928460   2.7928460
 AtZNuc=   1.0000000   1.0000000   1.0000000
 Leave Link  101 at Mon Jun 10 11:59:03 2019, MaxMem=   104857600 cpu:               5.5 elap:               0.2
 (Enter /project/6004141/group/g16/g16/l103.exe)

 GradGradGradGradGradGradGradGradGradGradGradGradGradGradGradGradGradGrad
 Berny optimization.
 Initialization pass.
                           ----------------------------
                           !    Initial Parameters    !
                           ! (Angstroms and Degrees)  !
 --------------------------                            --------------------------
 ! Name  Definition              Value          Derivative Info.                !
 --------------------------------------------------------------------------------
 ! R1    R(1,3)                  1.3604         estimate D2E/DX2                !
 ! R2    R(1,9)                  1.4974         estimate D2E/DX2                !
 ! R3    R(1,13)                 1.4192         estimate D2E/DX2                !
 ! R4    R(2,6)                  1.0154         estimate D2E/DX2                !
 ! R5    R(3,5)                  0.997          estimate D2E/DX2                !
 ! R6    R(4,5)                  1.7399         estimate D2E/DX2                !
 ! R7    R(4,6)                  1.3453         estimate D2E/DX2                !
 ! R8    R(4,8)                  1.0219         estimate D2E/DX2                !
 ! R9    R(6,7)                  1.0154         estimate D2E/DX2                !
 ! R10   R(9,10)                 1.0933         estimate D2E/DX2                !
 ! R11   R(9,11)                 1.0938         estimate D2E/DX2                !
 ! R12   R(9,12)                 1.1001         estimate D2E/DX2                !
 ! R13   R(13,14)                1.4298         estimate D2E/DX2                !
 ! R14   R(13,15)                1.4299         estimate D2E/DX2                !
 ! R15   R(14,16)                1.387          estimate D2E/DX2                !
 ! R16   R(14,17)                1.0844         estimate D2E/DX2                !
 ! R17   R(15,18)                1.3872         estimate D2E/DX2                !
 ! R18   R(15,19)                1.0848         estimate D2E/DX2                !
 ! R19   R(16,20)                1.403          estimate D2E/DX2                !
 ! R20   R(16,21)                1.087          estimate D2E/DX2                !
 ! R21   R(18,20)                1.403          estimate D2E/DX2                !
 ! R22   R(18,22)                1.0869         estimate D2E/DX2                !
 ! R23   R(20,23)                1.0855         estimate D2E/DX2                !
 ! A1    A(3,1,9)              112.8341         estimate D2E/DX2                !
 ! A2    A(3,1,13)             122.5644         estimate D2E/DX2                !
 ! A3    A(9,1,13)             124.6005         estimate D2E/DX2                !
 ! A4    A(1,3,5)              113.0348         estimate D2E/DX2                !
 ! A5    A(5,4,6)               97.9063         estimate D2E/DX2                !
 ! A6    A(5,4,8)              153.7484         estimate D2E/DX2                !
 ! A7    A(6,4,8)              108.3394         estimate D2E/DX2                !
 ! A8    A(3,5,4)              146.6206         estimate D2E/DX2                !
 ! A9    A(2,6,4)              120.5602         estimate D2E/DX2                !
 ! A10   A(2,6,7)              116.3019         estimate D2E/DX2                !
 ! A11   A(4,6,7)              112.0823         estimate D2E/DX2                !
 ! A12   A(1,9,10)             109.2694         estimate D2E/DX2                !
 ! A13   A(1,9,11)             112.2294         estimate D2E/DX2                !
 ! A14   A(1,9,12)             112.0467         estimate D2E/DX2                !
 ! A15   A(10,9,11)            108.4261         estimate D2E/DX2                !
 ! A16   A(10,9,12)            107.383          estimate D2E/DX2                !
 ! A17   A(11,9,12)            107.3055         estimate D2E/DX2                !
 ! A18   A(1,13,14)            122.2532         estimate D2E/DX2                !
 ! A19   A(1,13,15)            120.9857         estimate D2E/DX2                !
 ! A20   A(14,13,15)           116.7606         estimate D2E/DX2                !
 ! A21   A(13,14,16)           121.1873         estimate D2E/DX2                !
 ! A22   A(13,14,17)           119.8232         estimate D2E/DX2                !
 ! A23   A(16,14,17)           118.9843         estimate D2E/DX2                !
 ! A24   A(13,15,18)           121.2457         estimate D2E/DX2                !
 ! A25   A(13,15,19)           119.6161         estimate D2E/DX2                !
 ! A26   A(18,15,19)           119.13           estimate D2E/DX2                !
 ! A27   A(14,16,20)           121.0244         estimate D2E/DX2                !
 ! A28   A(14,16,21)           119.2016         estimate D2E/DX2                !
 ! A29   A(20,16,21)           119.773          estimate D2E/DX2                !
 ! A30   A(15,18,20)           120.9545         estimate D2E/DX2                !
 ! A31   A(15,18,22)           119.2277         estimate D2E/DX2                !
 ! A32   A(20,18,22)           119.8172         estimate D2E/DX2                !
 ! A33   A(16,20,18)           118.827          estimate D2E/DX2                !
 ! A34   A(16,20,23)           120.5811         estimate D2E/DX2                !
 ! A35   A(18,20,23)           120.5919         estimate D2E/DX2                !
 ! D1    D(9,1,3,5)            157.2329         estimate D2E/DX2                !
 ! D2    D(13,1,3,5)           -22.4263         estimate D2E/DX2                !
 ! D3    D(3,1,9,10)            22.1781         estimate D2E/DX2                !
 ! D4    D(3,1,9,11)           142.483          estimate D2E/DX2                !
 ! D5    D(3,1,9,12)           -96.7057         estimate D2E/DX2                !
 ! D6    D(13,1,9,10)         -158.1708         estimate D2E/DX2                !
 ! D7    D(13,1,9,11)          -37.8659         estimate D2E/DX2                !
 ! D8    D(13,1,9,12)           82.9454         estimate D2E/DX2                !
 ! D9    D(3,1,13,14)           -7.371          estimate D2E/DX2                !
 ! D10   D(3,1,13,15)          172.9053         estimate D2E/DX2                !
 ! D11   D(9,1,13,14)          173.0106         estimate D2E/DX2                !
 ! D12   D(9,1,13,15)           -6.7132         estimate D2E/DX2                !
 ! D13   D(1,3,5,4)           -114.859          estimate D2E/DX2                !
 ! D14   D(6,4,5,3)             11.1881         estimate D2E/DX2                !
 ! D15   D(8,4,5,3)           -167.5915         estimate D2E/DX2                !
 ! D16   D(5,4,6,2)           -153.9469         estimate D2E/DX2                !
 ! D17   D(5,4,6,7)            -11.3046         estimate D2E/DX2                !
 ! D18   D(8,4,6,2)             25.4845         estimate D2E/DX2                !
 ! D19   D(8,4,6,7)            168.1267         estimate D2E/DX2                !
 ! D20   D(1,13,14,16)        -179.9791         estimate D2E/DX2                !
 ! D21   D(1,13,14,17)          -0.8112         estimate D2E/DX2                !
 ! D22   D(15,13,14,16)         -0.2444         estimate D2E/DX2                !
 ! D23   D(15,13,14,17)        178.9236         estimate D2E/DX2                !
 ! D24   D(1,13,15,18)         179.9897         estimate D2E/DX2                !
 ! D25   D(1,13,15,19)          -1.0659         estimate D2E/DX2                !
 ! D26   D(14,13,15,18)          0.2514         estimate D2E/DX2                !
 ! D27   D(14,13,15,19)        179.1958         estimate D2E/DX2                !
 ! D28   D(13,14,16,20)          0.0528         estimate D2E/DX2                !
 ! D29   D(13,14,16,21)        179.6921         estimate D2E/DX2                !
 ! D30   D(17,14,16,20)       -179.122          estimate D2E/DX2                !
 ! D31   D(17,14,16,21)          0.5173         estimate D2E/DX2                !
 ! D32   D(13,15,18,20)         -0.0667         estimate D2E/DX2                !
 ! D33   D(13,15,18,22)        179.6497         estimate D2E/DX2                !
 ! D34   D(19,15,18,20)       -179.0161         estimate D2E/DX2                !
 ! D35   D(19,15,18,22)          0.7003         estimate D2E/DX2                !
 ! D36   D(14,16,20,18)          0.1415         estimate D2E/DX2                !
 ! D37   D(14,16,20,23)       -179.9261         estimate D2E/DX2                !
 ! D38   D(21,16,20,18)       -179.4958         estimate D2E/DX2                !
 ! D39   D(21,16,20,23)          0.4367         estimate D2E/DX2                !
 ! D40   D(15,18,20,16)         -0.1345         estimate D2E/DX2                !
 ! D41   D(15,18,20,23)        179.9331         estimate D2E/DX2                !
 ! D42   D(22,18,20,16)       -179.8493         estimate D2E/DX2                !
 ! D43   D(22,18,20,23)          0.2183         estimate D2E/DX2                !
 --------------------------------------------------------------------------------
 Trust Radius=3.00D-01 FncErr=1.00D-07 GrdErr=1.00D-06 EigMax=2.50D+02 EigMin=1.00D-04
 Number of steps in this run=    111 maximum allowed number of steps=    138.
 GradGradGradGradGradGradGradGradGradGradGradGradGradGradGradGradGradGrad

 Leave Link  103 at Mon Jun 10 11:59:04 2019, MaxMem=   104857600 cpu:               4.7 elap:               0.2
 (Enter /project/6004141/group/g16/g16/l202.exe)
                          Input orientation:                          
 ---------------------------------------------------------------------
 Center     Atomic      Atomic             Coordinates (Angstroms)
 Number     Number       Type             X           Y           Z
 ---------------------------------------------------------------------
      1          6           0        0.547679    1.202732   -0.354607
      2          1           0        4.208544   -1.249849    1.288027
      3          8           0        1.708471    0.684862   -0.839312
      4          7           0        2.608591   -1.621035    0.050151
      5          1           0        1.774554   -0.302831   -0.720654
      6          7           0        3.326973   -0.897543    0.927847
      7          1           0        3.289119    0.096559    0.724483
      8          1           0        2.841483   -2.607522    0.179873
      9          6           0        0.653023    2.660543   -0.028974
     10          1           0        1.479900    3.097816   -0.594947
     11          1           0       -0.261884    3.206826   -0.275743
     12          1           0        0.858499    2.831497    1.038198
     13          6           0       -0.623103    0.420233   -0.178585
     14          6           0       -0.715114   -0.929776   -0.640333
     15          6           0       -1.777312    0.958368    0.471571
     16          6           0       -1.870821   -1.674463   -0.456832
     17          1           0        0.124979   -1.381855   -1.155886
     18          6           0       -2.924629    0.198395    0.646314
     19          1           0       -1.753677    1.974090    0.851856
     20          6           0       -2.989676   -1.126038    0.188034
     21          1           0       -1.907299   -2.696421   -0.825332
     22          1           0       -3.781176    0.638603    1.150256
     23          1           0       -3.890046   -1.715723    0.328857
 ---------------------------------------------------------------------
                    Distance matrix (angstroms):
                    1          2          3          4          5
     1  C    0.000000
     2  H    4.702694   0.000000
     3  O    1.360355   3.810386   0.000000
     4  N    3.519211   2.056688   2.630308   0.000000
     5  H    1.976343   3.294837   0.996988   1.739948   0.000000
     6  N    3.712185   1.015390   2.871655   1.345312   2.341205
     7  H    3.146990   1.725033   2.300001   1.966716   2.131159
     8  H    4.479424   2.222642   3.627981   1.021872   2.694603
     9  C    1.497447   5.446778   2.382002   4.707698   3.243122
    10  H    2.125592   5.467475   2.436043   4.894655   3.415702
    11  H    2.162870   6.503234   3.249648   5.626195   4.081999
    12  H    2.165500   5.286076   2.975826   4.885090   3.709006
    13  C    1.419161   5.318359   2.437791   3.829222   2.562307
    14  C    2.494770   5.297493   2.918975   3.464336   2.568649
    15  C    2.479489   6.432208   3.734154   5.105591   3.953198
    16  C    3.760032   6.339046   4.303956   4.508328   3.903810
    17  H    2.738761   4.760844   2.622782   2.771292   2.018618
    18  C    3.750661   7.306939   4.889719   5.855105   4.919568
    19  H    2.710495   6.792062   4.063081   5.709381   4.483924
    20  C    4.269720   7.282835   5.138812   5.621799   4.919479
    21  H    4.631619   6.630414   4.950461   4.724001   4.392752
    22  H    4.617558   8.211020   5.839242   6.866245   5.937402
    23  H    5.355176   8.168489   6.202485   6.505300   5.931731
                    6          7          8          9         10
     6  N    0.000000
     7  H    1.015396   0.000000
     8  H    1.928521   2.794465   0.000000
     9  C    4.552526   3.753760   5.708370   0.000000
    10  H    4.657625   3.744558   5.916514   1.093279   0.000000
    11  H    5.583401   4.825333   6.606445   1.093789   1.774144
    12  H    4.473397   3.672358   5.852510   1.100137   1.767548
    13  C    4.308576   4.028123   4.615100   2.582609   3.430077
    14  C    4.335746   4.353156   4.017082   3.890495   4.587117
    15  C    5.450350   5.145425   5.842425   3.009065   4.040313
    16  C    5.434888   5.581846   4.845802   5.034395   5.832757
    17  H    3.850879   3.966520   3.265870   4.229627   4.713588
    18  C    6.353178   6.215074   6.429524   4.395200   5.417310
    19  H    5.836528   5.382484   6.523667   2.653165   3.716453
    20  C    6.363929   6.419173   6.016417   5.258759   6.199283
    21  H    5.805790   6.099625   4.854819   5.990534   6.715607
    22  H    7.275644   7.103813   7.438991   5.014075   6.064024
    23  H    7.287906   7.414937   6.791979   6.318166   7.270481
                   11         12         13         14         15
    11  H    0.000000
    12  H    1.767080   0.000000
    13  C    2.811587   3.080568   0.000000
    14  C    4.177298   4.409183   1.429756   0.000000
    15  C    2.812572   3.282861   1.429857   2.435094   0.000000
    16  C    5.142806   5.476128   2.453971   1.387044   2.793291
    17  H    4.688316   4.806703   2.182261   1.084401   3.426948
    18  C    4.122021   4.625890   2.454932   2.794671   1.387238
    19  H    2.239769   2.755600   2.180477   3.426030   1.084835
    20  C    5.140977   5.585097   2.850619   2.428650   2.427956
    21  H    6.152866   6.456025   3.432342   2.139291   3.880250
    22  H    4.584175   5.133023   3.433210   3.881592   2.139704
    23  H    6.144965   6.612795   3.936080   3.411339   3.410979
                   16         17         18         19         20
    16  C    0.000000
    17  H    2.134833   0.000000
    18  C    2.415583   3.878817   0.000000
    19  H    3.877928   4.338519   2.136930   0.000000
    20  C    1.403018   3.401858   1.402988   3.402815   0.000000
    21  H    1.086978   2.442847   3.403037   4.964900   2.159758
    22  H    3.403302   4.965741   1.086928   2.446083   2.160162
    23  H    2.167090   4.293758   2.167177   4.295616   1.085461
                   21         22         23
    21  H    0.000000
    22  H    4.305432   0.000000
    23  H    2.495036   2.495877   0.000000
 Stoichiometry    C8H12N2O(3)
 Framework group  C1[X(C8H12N2O)]
 Deg. of freedom    63
 Full point group                 C1      NOp   1
 Largest Abelian subgroup         C1      NOp   1
 Largest concise Abelian subgroup C1      NOp   1
                         Standard orientation:                         
 ---------------------------------------------------------------------
 Center     Atomic      Atomic             Coordinates (Angstroms)
 Number     Number       Type             X           Y           Z
 ---------------------------------------------------------------------
      1          6           0        0.547679    1.202732   -0.354607
      2          1           0        4.208544   -1.249850    1.288027
      3          8           0        1.708471    0.684862   -0.839312
      4          7           0        2.608591   -1.621035    0.050151
      5          1           0        1.774554   -0.302831   -0.720654
      6          7           0        3.326973   -0.897543    0.927847
      7          1           0        3.289119    0.096559    0.724483
      8          1           0        2.841483   -2.607522    0.179873
      9          6           0        0.653023    2.660543   -0.028974
     10          1           0        1.479900    3.097816   -0.594947
     11          1           0       -0.261884    3.206826   -0.275743
     12          1           0        0.858499    2.831497    1.038198
     13          6           0       -0.623103    0.420233   -0.178585
     14          6           0       -0.715114   -0.929776   -0.640333
     15          6           0       -1.777312    0.958368    0.471571
     16          6           0       -1.870821   -1.674463   -0.456832
     17          1           0        0.124979   -1.381855   -1.155886
     18          6           0       -2.924629    0.198395    0.646314
     19          1           0       -1.753677    1.974090    0.851856
     20          6           0       -2.989676   -1.126038    0.188034
     21          1           0       -1.907299   -2.696421   -0.825332
     22          1           0       -3.781176    0.638603    1.150256
     23          1           0       -3.890046   -1.715723    0.328857
 ---------------------------------------------------------------------
 Rotational constants (GHZ):           1.5169735           0.6876513           0.5211504
 Leave Link  202 at Mon Jun 10 11:59:04 2019, MaxMem=   104857600 cpu:               2.4 elap:               0.1
 (Enter /project/6004141/group/g16/g16/l301.exe)
 Standard basis: 6-31G(d,p) (6D, 7F)
 Ernie: Thresh=  0.10000D-02 Tol=  0.10000D-05 Strict=F.
 There are   225 symmetry adapted cartesian basis functions of A   symmetry.
 There are   225 symmetry adapted basis functions of A   symmetry.
   225 basis functions,   392 primitive gaussians,   225 cartesian basis functions
    42 alpha electrons       40 beta electrons
       nuclear repulsion energy       582.3528548343 Hartrees.
 IExCor=  402 DFT=T Ex+Corr=B3LYP ExCW=0 ScaHFX=  0.200000
 ScaDFX=  0.800000  0.720000  1.000000  0.810000 ScalE2=  1.000000  1.000000
 IRadAn=      5 IRanWt=     -1 IRanGd=            0 ICorTp=0 IEmpDi=131
 NAtoms=   23 NActive=   23 NUniq=   23 SFac= 1.00D+00 NAtFMM=   60 NAOKFM=F Big=F
 Integral buffers will be    131072 words long.
 Raffenetti 2 integral format.
 Two-electron integral symmetry is turned on.
 R6Disp:  Grimme-D3 Dispersion energy=       -0.0168759942 Hartrees.
 Nuclear repulsion after empirical dispersion term =      582.3359788401 Hartrees.
 ------------------------------------------------------------------------------
 Polarizable Continuum Model (PCM)
 =================================
 Model                : PCM.
 Atomic radii         : UFF (Universal Force Field).
 Polarization charges : Total charges.
 Charge compensation  : None.
 Solution method      : On-the-fly selection.
 Cavity type          : Scaled VdW (van der Waals Surface) (Alpha=1.100).
 Cavity algorithm     : GePol (No added spheres)
                        Default sphere list used, NSphG=   23.
                        Lebedev-Laikov grids with approx.  5.0 points / Ang**2.
                        Smoothing algorithm: York/Karplus (Gamma=1.0000).
                        Polarization charges: spherical gaussians, with
                                              point-specific exponents (IZeta= 3).
                        Self-potential: point-specific (ISelfS= 7).
                        Self-field    : sphere-specific E.n sum rule (ISelfD= 2).
 1st derivatives      : Analytical E(r).r(x)/FMM algorithm (CHGder, D1EAlg=3).
                        Cavity 1st derivative terms included.
 Solvent              : Acetonitrile, Eps=  35.688000 Eps(inf)=   1.806874
 ------------------------------------------------------------------------------
 GePol: Number of generator spheres                  =      23
 GePol: Total number of spheres                      =      23
 GePol: Number of exposed spheres                    =      23 (100.00%)
 GePol: Number of points                             =    1837
 GePol: Average weight of points                     =       0.13
 GePol: Minimum weight of points                     =   0.33D-08
 GePol: Maximum weight of points                     =    0.20577
 GePol: Number of points with low weight             =     117
 GePol: Fraction of low-weight points (<1% of avg)   =       6.37%
 GePol: Cavity surface area                          =    240.870 Ang**2
 GePol: Cavity volume                                =    241.182 Ang**3
 Leave Link  301 at Mon Jun 10 11:59:05 2019, MaxMem=   104857600 cpu:              14.2 elap:               0.4
 (Enter /project/6004141/group/g16/g16/l302.exe)
 NPDir=0 NMtPBC=     1 NCelOv=     1 NCel=       1 NClECP=     1 NCelD=      1
         NCelK=      1 NCelE2=     1 NClLst=     1 CellRange=     0.0.
 One-electron integrals computed using PRISM.
 One-electron integral symmetry used in STVInt
 PrsmSu:  requested number of processors reduced to:  29 ShMem   1 Linda.
 NBasis=   225 RedAO= T EigKep=  4.82D-04  NBF=   225
 NBsUse=   225 1.00D-06 EigRej= -1.00D+00 NBFU=   225
 Precomputing XC quadrature grid using
 IXCGrd= 4 IRadAn=           5 IRanWt=          -1 IRanGd=           0 AccXCQ= 0.00D+00.
 Generated NRdTot=       0 NPtTot=           0 NUsed=           0 NTot=          32
 NSgBfM=   225   225   225   225   225 MxSgAt=    23 MxSgA2=    23.
 Leave Link  302 at Mon Jun 10 11:59:06 2019, MaxMem=   104857600 cpu:              21.7 elap:               0.6
 (Enter /project/6004141/group/g16/g16/l303.exe)
 DipDrv:  MaxL=1.
 Leave Link  303 at Mon Jun 10 11:59:07 2019, MaxMem=   104857600 cpu:               3.5 elap:               0.1
 (Enter /project/6004141/group/g16/g16/l401.exe)
 ExpMin= 1.61D-01 ExpMax= 5.48D+03 ExpMxC= 8.25D+02 IAcc=3 IRadAn=         5 AccDes= 0.00D+00
 Harris functional with IExCor=  402 and IRadAn=       5 diagonalized for initial guess.
 HarFok:  IExCor=  402 AccDes= 0.00D+00 IRadAn=         5 IDoV= 1 UseB2=F ITyADJ=14
 ICtDFT=  3500011 ScaDFX=  1.000000  1.000000  1.000000  1.000000
 FoFCou: FMM=F IPFlag=           0 FMFlag=      100000 FMFlg1=           0
         NFxFlg=           0 DoJE=T BraDBF=F KetDBF=T FulRan=T
         wScrn=  0.000000 ICntrl=       500 IOpCl=  0 I1Cent=   200000004 NGrid=           0
         NMat0=    1 NMatS0=      1 NMatT0=    0 NMatD0=    1 NMtDS0=    0 NMtDT0=    0
 Petite list used in FoFCou.
 Harris En= -496.735150872954    
 JPrj=0 DoOrth=F DoCkMO=F.
 Initial guess <Sx>= 0.0000 <Sy>= 0.0000 <Sz>= 1.0000 <S**2>= 2.0000 S= 1.0000
 Leave Link  401 at Mon Jun 10 11:59:09 2019, MaxMem=   104857600 cpu:              30.4 elap:               0.8
 (Enter /project/6004141/group/g16/g16/l502.exe)
 Integral symmetry usage will be decided dynamically.
 UHF open shell SCF:
 Using DIIS extrapolation, IDIIS=  1040.
 NGot=   104857600 LenX=   104744810 LenY=   104693744
 Requested convergence on RMS density matrix=1.00D-08 within 128 cycles.
 Requested convergence on MAX density matrix=1.00D-06.
 Requested convergence on             energy=1.00D-06.
 No special actions if energy rises.
 Fock matrices will be formed incrementally for  20 cycles.

 Cycle   1  Pass 1  IDiag  1:
 FoFJK:  IHMeth= 1 ICntrl=       0 DoSepK=F KAlg= 0 I1Cent=           0 FoldK=F
 IRaf= 850000000 NMat=       1 IRICut=       1 DoRegI=T DoRafI=F ISym2E= 0 IDoP0=0 IntGTp=1.
 FoFCou: FMM=F IPFlag=           0 FMFlag=      100000 FMFlg1=           0
         NFxFlg=           0 DoJE=F BraDBF=F KetDBF=F FulRan=T
         wScrn=  0.000000 ICntrl=         0 IOpCl=  1 I1Cent=           0 NGrid=           0
         NMat0=    1 NMatS0=      1 NMatT0=    0 NMatD0=    1 NMtDS0=    0 NMtDT0=    0
 Symmetry not used in FoFCou.
 Inv3:  Mode=1 IEnd=    10123707.
 Iteration    1 A*A^-1 deviation from unit magnitude is 2.66D-15 for    181.
 Iteration    1 A*A^-1 deviation from orthogonality  is 1.67D-15 for   1724   1322.
 Iteration    1 A^-1*A deviation from unit magnitude is 2.66D-15 for    181.
 Iteration    1 A^-1*A deviation from orthogonality  is 1.02D-14 for    916    856.
 E= -496.466180947597    
 DIIS: error= 2.86D-02 at cycle   1 NSaved=   1.
 NSaved= 1 IEnMin= 1 EnMin= -496.466180947597     IErMin= 1 ErrMin= 2.86D-02
 ErrMax= 2.86D-02  0.00D+00 EMaxC= 1.00D-01 BMatC= 1.07D+00 BMatP= 1.07D+00
 IDIUse=3 WtCom= 7.14D-01 WtEn= 2.86D-01
 Coeff-Com:  0.100D+01
 Coeff-En:   0.100D+01
 Coeff:      0.100D+01
 Gap=     0.256 Goal=   None    Shift=    0.000
 Gap=     0.156 Goal=   None    Shift=    0.000
 GapD=    0.156 DampG=1.000 DampE=0.500 DampFc=0.5000 IDamp=-1.
 Damping current iteration by 5.00D-01
 RMSDP=4.79D-03 MaxDP=1.25D-01              OVMax= 2.78D-01

 Cycle   2  Pass 1  IDiag  1:
 RMSU=  2.35D-03    CP:  9.78D-01
 E= -496.595158893785     Delta-E=       -0.128977946187 Rises=F Damp=T
 DIIS: error= 7.01D-03 at cycle   2 NSaved=   2.
 NSaved= 2 IEnMin= 2 EnMin= -496.595158893785     IErMin= 2 ErrMin= 7.01D-03
 ErrMax= 7.01D-03  0.00D+00 EMaxC= 1.00D-01 BMatC= 6.38D-02 BMatP= 1.07D+00
 IDIUse=3 WtCom= 9.30D-01 WtEn= 7.01D-02
 Coeff-Com:  0.343D-01 0.966D+00
 Coeff-En:   0.414D-01 0.959D+00
 Coeff:      0.348D-01 0.965D+00
 Gap=     0.204 Goal=   None    Shift=    0.000
 Gap=     0.193 Goal=   None    Shift=    0.000
 RMSDP=1.17D-03 MaxDP=3.92D-02 DE=-1.29D-01 OVMax= 1.86D-01

 Cycle   3  Pass 1  IDiag  1:
 RMSU=  1.15D-03    CP:  9.72D-01  9.43D-01
 E= -496.735543667241     Delta-E=       -0.140384773456 Rises=F Damp=F
 DIIS: error= 4.26D-03 at cycle   3 NSaved=   3.
 NSaved= 3 IEnMin= 3 EnMin= -496.735543667241     IErMin= 3 ErrMin= 4.26D-03
 ErrMax= 4.26D-03  0.00D+00 EMaxC= 1.00D-01 BMatC= 3.61D-02 BMatP= 6.38D-02
 IDIUse=3 WtCom= 9.57D-01 WtEn= 4.26D-02
 Coeff-Com: -0.266D-01 0.419D+00 0.608D+00
 Coeff-En:   0.000D+00 0.000D+00 0.100D+01
 Coeff:     -0.255D-01 0.401D+00 0.624D+00
 Gap=     0.149 Goal=   None    Shift=    0.000
 Gap=     0.191 Goal=   None    Shift=    0.000
 RMSDP=7.11D-04 MaxDP=5.29D-02 DE=-1.40D-01 OVMax= 9.18D-02

 Cycle   4  Pass 1  IDiag  1:
 RMSU=  5.74D-04    CP:  9.72D-01  1.01D+00  6.61D-01
 E= -496.742326472150     Delta-E=       -0.006782804909 Rises=F Damp=F
 DIIS: error= 2.57D-03 at cycle   4 NSaved=   4.
 NSaved= 4 IEnMin= 4 EnMin= -496.742326472150     IErMin= 4 ErrMin= 2.57D-03
 ErrMax= 2.57D-03  0.00D+00 EMaxC= 1.00D-01 BMatC= 1.10D-02 BMatP= 3.61D-02
 IDIUse=3 WtCom= 9.74D-01 WtEn= 2.57D-02
 Coeff-Com: -0.149D-01 0.735D-01 0.370D+00 0.571D+00
 Coeff-En:   0.000D+00 0.000D+00 0.244D+00 0.756D+00
 Coeff:     -0.145D-01 0.716D-01 0.367D+00 0.576D+00
 Gap=     0.143 Goal=   None    Shift=    0.000
 Gap=     0.186 Goal=   None    Shift=    0.000
 RMSDP=2.85D-04 MaxDP=1.11D-02 DE=-6.78D-03 OVMax= 2.51D-02

 Cycle   5  Pass 1  IDiag  1:
 RMSU=  1.50D-04    CP:  9.71D-01  9.99D-01  7.78D-01  6.52D-01
 E= -496.745320283600     Delta-E=       -0.002993811449 Rises=F Damp=F
 DIIS: error= 7.28D-04 at cycle   5 NSaved=   5.
 NSaved= 5 IEnMin= 5 EnMin= -496.745320283600     IErMin= 5 ErrMin= 7.28D-04
 ErrMax= 7.28D-04  0.00D+00 EMaxC= 1.00D-01 BMatC= 4.08D-04 BMatP= 1.10D-02
 IDIUse=3 WtCom= 9.93D-01 WtEn= 7.28D-03
 Coeff-Com: -0.356D-02-0.720D-03 0.105D+00 0.222D+00 0.677D+00
 Coeff-En:   0.000D+00 0.000D+00 0.000D+00 0.000D+00 0.100D+01
 Coeff:     -0.354D-02-0.714D-03 0.104D+00 0.221D+00 0.680D+00
 Gap=     0.144 Goal=   None    Shift=    0.000
 Gap=     0.187 Goal=   None    Shift=    0.000
 RMSDP=7.55D-05 MaxDP=3.09D-03 DE=-2.99D-03 OVMax= 8.67D-03

 Cycle   6  Pass 1  IDiag  1:
 RMSU=  6.07D-05    CP:  9.71D-01  1.00D+00  7.86D-01  7.24D-01  9.23D-01
 E= -496.745453051000     Delta-E=       -0.000132767400 Rises=F Damp=F
 DIIS: error= 5.37D-04 at cycle   6 NSaved=   6.
 NSaved= 6 IEnMin= 6 EnMin= -496.745453051000     IErMin= 6 ErrMin= 5.37D-04
 ErrMax= 5.37D-04  0.00D+00 EMaxC= 1.00D-01 BMatC= 1.48D-04 BMatP= 4.08D-04
 IDIUse=3 WtCom= 9.95D-01 WtEn= 5.37D-03
 Coeff-Com:  0.739D-03-0.123D-01-0.244D-02 0.178D-01 0.369D+00 0.627D+00
 Coeff-En:   0.000D+00 0.000D+00 0.000D+00 0.000D+00 0.000D+00 0.100D+01
 Coeff:      0.735D-03-0.122D-01-0.242D-02 0.177D-01 0.367D+00 0.629D+00
 Gap=     0.145 Goal=   None    Shift=    0.000
 Gap=     0.188 Goal=   None    Shift=    0.000
 RMSDP=4.22D-05 MaxDP=2.79D-03 DE=-1.33D-04 OVMax= 5.67D-03

 Cycle   7  Pass 1  IDiag  1:
 RMSU=  3.07D-05    CP:  9.71D-01  1.00D+00  7.90D-01  7.38D-01  1.10D+00
                    CP:  8.72D-01
 E= -496.745513971063     Delta-E=       -0.000060920063 Rises=F Damp=F
 DIIS: error= 2.47D-04 at cycle   7 NSaved=   7.
 NSaved= 7 IEnMin= 7 EnMin= -496.745513971063     IErMin= 7 ErrMin= 2.47D-04
 ErrMax= 2.47D-04  0.00D+00 EMaxC= 1.00D-01 BMatC= 2.63D-05 BMatP= 1.48D-04
 IDIUse=3 WtCom= 9.98D-01 WtEn= 2.47D-03
 Coeff-Com:  0.157D-02-0.353D-02-0.373D-01-0.838D-01-0.145D+00 0.219D+00
 Coeff-Com:  0.105D+01
 Coeff-En:   0.000D+00 0.000D+00 0.000D+00 0.000D+00 0.000D+00 0.000D+00
 Coeff-En:   0.100D+01
 Coeff:      0.157D-02-0.352D-02-0.372D-01-0.836D-01-0.144D+00 0.219D+00
 Coeff:      0.105D+01
 Gap=     0.145 Goal=   None    Shift=    0.000
 Gap=     0.189 Goal=   None    Shift=    0.000
 RMSDP=3.26D-05 MaxDP=1.40D-03 DE=-6.09D-05 OVMax= 4.37D-03

 Cycle   8  Pass 1  IDiag  1:
 RMSU=  1.36D-05    CP:  9.71D-01  1.00D+00  7.96D-01  7.55D-01  1.20D+00
                    CP:  1.22D+00  1.20D+00
 E= -496.745534907974     Delta-E=       -0.000020936911 Rises=F Damp=F
 DIIS: error= 1.13D-04 at cycle   8 NSaved=   8.
 NSaved= 8 IEnMin= 8 EnMin= -496.745534907974     IErMin= 8 ErrMin= 1.13D-04
 ErrMax= 1.13D-04  0.00D+00 EMaxC= 1.00D-01 BMatC= 4.81D-06 BMatP= 2.63D-05
 IDIUse=3 WtCom= 9.99D-01 WtEn= 1.13D-03
 Coeff-Com:  0.675D-03-0.338D-03-0.169D-01-0.408D-01-0.108D+00 0.263D-01
 Coeff-Com:  0.497D+00 0.642D+00
 Coeff-En:   0.000D+00 0.000D+00 0.000D+00 0.000D+00 0.000D+00 0.000D+00
 Coeff-En:   0.000D+00 0.100D+01
 Coeff:      0.675D-03-0.338D-03-0.169D-01-0.408D-01-0.108D+00 0.263D-01
 Coeff:      0.497D+00 0.642D+00
 Gap=     0.145 Goal=   None    Shift=    0.000
 Gap=     0.189 Goal=   None    Shift=    0.000
 RMSDP=8.64D-06 MaxDP=4.28D-04 DE=-2.09D-05 OVMax= 1.33D-03

 Cycle   9  Pass 1  IDiag  1:
 RMSU=  5.89D-06    CP:  9.71D-01  1.00D+00  7.96D-01  7.55D-01  1.23D+00
                    CP:  1.27D+00  1.33D+00  1.00D+00
 E= -496.745537546909     Delta-E=       -0.000002638935 Rises=F Damp=F
 DIIS: error= 4.94D-05 at cycle   9 NSaved=   9.
 NSaved= 9 IEnMin= 9 EnMin= -496.745537546909     IErMin= 9 ErrMin= 4.94D-05
 ErrMax= 4.94D-05  0.00D+00 EMaxC= 1.00D-01 BMatC= 7.74D-07 BMatP= 4.81D-06
 IDIUse=1 WtCom= 1.00D+00 WtEn= 0.00D+00
 Coeff-Com: -0.280D-03 0.985D-03 0.506D-02 0.108D-01 0.565D-02-0.573D-01
 Coeff-Com: -0.121D+00 0.164D+00 0.991D+00
 Coeff:     -0.280D-03 0.985D-03 0.506D-02 0.108D-01 0.565D-02-0.573D-01
 Coeff:     -0.121D+00 0.164D+00 0.991D+00
 Gap=     0.145 Goal=   None    Shift=    0.000
 Gap=     0.189 Goal=   None    Shift=    0.000
 RMSDP=6.20D-06 MaxDP=2.92D-04 DE=-2.64D-06 OVMax= 8.81D-04

 Cycle  10  Pass 1  IDiag  1:
 RMSU=  2.74D-06    CP:  9.71D-01  1.00D+00  7.96D-01  7.55D-01  1.23D+00
                    CP:  1.30D+00  1.40D+00  1.29D+00  1.46D+00
 E= -496.745538447755     Delta-E=       -0.000000900846 Rises=F Damp=F
 DIIS: error= 1.88D-05 at cycle  10 NSaved=  10.
 NSaved=10 IEnMin=10 EnMin= -496.745538447755     IErMin=10 ErrMin= 1.88D-05
 ErrMax= 1.88D-05  0.00D+00 EMaxC= 1.00D-01 BMatC= 3.23D-07 BMatP= 7.74D-07
 IDIUse=1 WtCom= 1.00D+00 WtEn= 0.00D+00
 Coeff-Com: -0.290D-03 0.619D-03 0.621D-02 0.145D-01 0.259D-01-0.357D-01
 Coeff-Com: -0.161D+00-0.447D-01 0.512D+00 0.682D+00
 Coeff:     -0.290D-03 0.619D-03 0.621D-02 0.145D-01 0.259D-01-0.357D-01
 Coeff:     -0.161D+00-0.447D-01 0.512D+00 0.682D+00
 Gap=     0.145 Goal=   None    Shift=    0.000
 Gap=     0.189 Goal=   None    Shift=    0.000
 RMSDP=2.83D-06 MaxDP=1.16D-04 DE=-9.01D-07 OVMax= 3.87D-04

 Cycle  11  Pass 1  IDiag  1:
 RMSU=  1.38D-06    CP:  9.71D-01  1.00D+00  7.96D-01  7.54D-01  1.23D+00
                    CP:  1.30D+00  1.42D+00  1.41D+00  1.75D+00  1.07D+00
 E= -496.745538671296     Delta-E=       -0.000000223541 Rises=F Damp=F
 DIIS: error= 9.92D-06 at cycle  11 NSaved=  11.
 NSaved=11 IEnMin=11 EnMin= -496.745538671296     IErMin=11 ErrMin= 9.92D-06
 ErrMax= 9.92D-06  0.00D+00 EMaxC= 1.00D-01 BMatC= 8.33D-08 BMatP= 3.23D-07
 IDIUse=1 WtCom= 1.00D+00 WtEn= 0.00D+00
 Coeff-Com: -0.331D-04-0.125D-03 0.656D-03 0.234D-02 0.816D-02 0.228D-02
 Coeff-Com: -0.262D-01-0.889D-01-0.159D+00 0.355D+00 0.906D+00
 Coeff:     -0.331D-04-0.125D-03 0.656D-03 0.234D-02 0.816D-02 0.228D-02
 Coeff:     -0.262D-01-0.889D-01-0.159D+00 0.355D+00 0.906D+00
 Gap=     0.145 Goal=   None    Shift=    0.000
 Gap=     0.189 Goal=   None    Shift=    0.000
 RMSDP=2.36D-06 MaxDP=9.34D-05 DE=-2.24D-07 OVMax= 3.25D-04

 Cycle  12  Pass 1  IDiag  1:
 RMSU=  5.47D-07    CP:  9.71D-01  1.00D+00  7.96D-01  7.54D-01  1.23D+00
                    CP:  1.31D+00  1.43D+00  1.51D+00  2.00D+00  1.41D+00
                    CP:  1.03D+00
 E= -496.745538756424     Delta-E=       -0.000000085129 Rises=F Damp=F
 DIIS: error= 3.91D-06 at cycle  12 NSaved=  12.
 NSaved=12 IEnMin=12 EnMin= -496.745538756424     IErMin=12 ErrMin= 3.91D-06
 ErrMax= 3.91D-06  0.00D+00 EMaxC= 1.00D-01 BMatC= 1.04D-08 BMatP= 8.33D-08
 IDIUse=1 WtCom= 1.00D+00 WtEn= 0.00D+00
 Coeff-Com:  0.231D-04-0.119D-03-0.569D-03-0.980D-03-0.304D-03 0.540D-02
 Coeff-Com:  0.129D-01-0.279D-01-0.128D+00 0.283D-01 0.323D+00 0.788D+00
 Coeff:      0.231D-04-0.119D-03-0.569D-03-0.980D-03-0.304D-03 0.540D-02
 Coeff:      0.129D-01-0.279D-01-0.128D+00 0.283D-01 0.323D+00 0.788D+00
 Gap=     0.145 Goal=   None    Shift=    0.000
 Gap=     0.189 Goal=   None    Shift=    0.000
 RMSDP=6.51D-07 MaxDP=3.27D-05 DE=-8.51D-08 OVMax= 7.95D-05

 Cycle  13  Pass 1  IDiag  1:
 RMSU=  2.57D-07    CP:  9.71D-01  1.00D+00  7.96D-01  7.54D-01  1.23D+00
                    CP:  1.31D+00  1.43D+00  1.53D+00  2.07D+00  1.51D+00
                    CP:  1.17D+00  1.04D+00
 E= -496.745538762984     Delta-E=       -0.000000006559 Rises=F Damp=F
 DIIS: error= 1.98D-06 at cycle  13 NSaved=  13.
 NSaved=13 IEnMin=13 EnMin= -496.745538762984     IErMin=13 ErrMin= 1.98D-06
 ErrMax= 1.98D-06  0.00D+00 EMaxC= 1.00D-01 BMatC= 3.71D-09 BMatP= 1.04D-08
 IDIUse=1 WtCom= 1.00D+00 WtEn= 0.00D+00
 Coeff-Com:  0.216D-04-0.334D-04-0.538D-03-0.124D-02-0.255D-02 0.230D-02
 Coeff-Com:  0.151D-01 0.715D-02-0.319D-01-0.712D-01-0.409D-01 0.451D+00
 Coeff-Com:  0.673D+00
 Coeff:      0.216D-04-0.334D-04-0.538D-03-0.124D-02-0.255D-02 0.230D-02
 Coeff:      0.151D-01 0.715D-02-0.319D-01-0.712D-01-0.409D-01 0.451D+00
 Coeff:      0.673D+00
 Gap=     0.145 Goal=   None    Shift=    0.000
 Gap=     0.189 Goal=   None    Shift=    0.000
 RMSDP=2.26D-07 MaxDP=1.23D-05 DE=-6.56D-09 OVMax= 3.30D-05

 Cycle  14  Pass 1  IDiag  1:
 RMSU=  9.80D-08    CP:  9.71D-01  1.00D+00  7.96D-01  7.54D-01  1.23D+00
                    CP:  1.31D+00  1.43D+00  1.53D+00  2.09D+00  1.53D+00
                    CP:  1.23D+00  1.22D+00  8.30D-01
 E= -496.745538764331     Delta-E=       -0.000000001348 Rises=F Damp=F
 DIIS: error= 3.46D-07 at cycle  14 NSaved=  14.
 NSaved=14 IEnMin=14 EnMin= -496.745538764331     IErMin=14 ErrMin= 3.46D-07
 ErrMax= 3.46D-07  0.00D+00 EMaxC= 1.00D-01 BMatC= 1.83D-10 BMatP= 3.71D-09
 IDIUse=1 WtCom= 1.00D+00 WtEn= 0.00D+00
 Coeff-Com:  0.269D-05 0.598D-05-0.789D-04-0.225D-03-0.680D-03-0.751D-04
 Coeff-Com:  0.261D-02 0.537D-02 0.647D-02-0.219D-01-0.512D-01 0.298D-01
 Coeff-Com:  0.180D+00 0.850D+00
 Coeff:      0.269D-05 0.598D-05-0.789D-04-0.225D-03-0.680D-03-0.751D-04
 Coeff:      0.261D-02 0.537D-02 0.647D-02-0.219D-01-0.512D-01 0.298D-01
 Coeff:      0.180D+00 0.850D+00
 Gap=     0.145 Goal=   None    Shift=    0.000
 Gap=     0.189 Goal=   None    Shift=    0.000
 RMSDP=6.58D-08 MaxDP=4.04D-06 DE=-1.35D-09 OVMax= 7.76D-06

 Cycle  15  Pass 1  IDiag  1:
 RMSU=  3.90D-08    CP:  9.71D-01  1.00D+00  7.96D-01  7.54D-01  1.23D+00
                    CP:  1.31D+00  1.43D+00  1.54D+00  2.09D+00  1.54D+00
                    CP:  1.23D+00  1.27D+00  9.24D-01  9.99D-01
 E= -496.745538764399     Delta-E=       -0.000000000068 Rises=F Damp=F
 DIIS: error= 2.28D-07 at cycle  15 NSaved=  15.
 NSaved=15 IEnMin=15 EnMin= -496.745538764399     IErMin=15 ErrMin= 2.28D-07
 ErrMax= 2.28D-07  0.00D+00 EMaxC= 1.00D-01 BMatC= 1.04D-10 BMatP= 1.83D-10
 IDIUse=1 WtCom= 1.00D+00 WtEn= 0.00D+00
 Coeff-Com: -0.166D-05 0.818D-05 0.409D-04 0.690D-04 0.137D-04-0.427D-03
 Coeff-Com: -0.914D-03 0.220D-02 0.932D-02-0.194D-02-0.253D-01-0.543D-01
 Coeff-Com: -0.131D-02 0.511D+00 0.561D+00
 Coeff:     -0.166D-05 0.818D-05 0.409D-04 0.690D-04 0.137D-04-0.427D-03
 Coeff:     -0.914D-03 0.220D-02 0.932D-02-0.194D-02-0.253D-01-0.543D-01
 Coeff:     -0.131D-02 0.511D+00 0.561D+00
 Gap=     0.145 Goal=   None    Shift=    0.000
 Gap=     0.189 Goal=   None    Shift=    0.000
 RMSDP=2.60D-08 MaxDP=9.24D-07 DE=-6.80D-11 OVMax= 2.24D-06

 Cycle  16  Pass 1  IDiag  1:
 RMSU=  1.63D-08    CP:  9.71D-01  1.00D+00  7.96D-01  7.54D-01  1.23D+00
                    CP:  1.31D+00  1.43D+00  1.54D+00  2.09D+00  1.54D+00
                    CP:  1.23D+00  1.28D+00  9.50D-01  1.12D+00  7.49D-01
 E= -496.745538764425     Delta-E=       -0.000000000026 Rises=F Damp=F
 DIIS: error= 4.44D-08 at cycle  16 NSaved=  16.
 NSaved=16 IEnMin=16 EnMin= -496.745538764425     IErMin=16 ErrMin= 4.44D-08
 ErrMax= 4.44D-08  0.00D+00 EMaxC= 1.00D-01 BMatC= 3.96D-12 BMatP= 1.04D-10
 IDIUse=1 WtCom= 1.00D+00 WtEn= 0.00D+00
 Coeff-Com: -0.799D-06 0.116D-05 0.232D-04 0.515D-04 0.103D-03-0.101D-03
 Coeff-Com: -0.635D-03-0.218D-03 0.137D-02 0.297D-02 0.139D-02-0.192D-01
 Coeff-Com: -0.296D-01 0.120D-01 0.153D+00 0.878D+00
 Coeff:     -0.799D-06 0.116D-05 0.232D-04 0.515D-04 0.103D-03-0.101D-03
 Coeff:     -0.635D-03-0.218D-03 0.137D-02 0.297D-02 0.139D-02-0.192D-01
 Coeff:     -0.296D-01 0.120D-01 0.153D+00 0.878D+00
 Gap=     0.145 Goal=   None    Shift=    0.000
 Gap=     0.189 Goal=   None    Shift=    0.000
 RMSDP=8.46D-09 MaxDP=4.02D-07 DE=-2.57D-11 OVMax= 8.63D-07

 Error on total polarization charges =  0.00836
 SCF Done:  E(UB3LYP) =  -496.745538764     A.U. after   16 cycles
            NFock= 16  Conv=0.85D-08     -V/T= 2.0096
 <Sx>= 0.0000 <Sy>= 0.0000 <Sz>= 1.0000 <S**2>= 2.0275 S= 1.0092
 <L.S>=  0.00000000000    
 KE= 4.920255191640D+02 PE=-2.320890365675D+03 EE= 7.497833289060D+02
 Annihilation of the first spin contaminant:
 S**2 before annihilation     2.0275,   after     2.0004
 Leave Link  502 at Mon Jun 10 11:59:22 2019, MaxMem=   104857600 cpu:             513.1 elap:              13.4
 (Enter /project/6004141/group/g16/g16/l601.exe)
 Copying SCF densities to generalized density rwf, IOpCl= 1 IROHF=0.

 **********************************************************************

            Population analysis using the SCF density.

 **********************************************************************

 Orbital symmetries:
 Alpha Orbitals:
       Occupied  (A) (A) (A) (A) (A) (A) (A) (A) (A) (A) (A) (A)
                 (A) (A) (A) (A) (A) (A) (A) (A) (A) (A) (A) (A)
                 (A) (A) (A) (A) (A) (A) (A) (A) (A) (A) (A) (A)
                 (A) (A) (A) (A) (A) (A)
       Virtual   (A) (A) (A) (A) (A) (A) (A) (A) (A) (A) (A) (A)
                 (A) (A) (A) (A) (A) (A) (A) (A) (A) (A) (A) (A)
                 (A) (A) (A) (A) (A) (A) (A) (A) (A) (A) (A) (A)
                 (A) (A) (A) (A) (A) (A) (A) (A) (A) (A) (A) (A)
                 (A) (A) (A) (A) (A) (A) (A) (A) (A) (A) (A) (A)
                 (A) (A) (A) (A) (A) (A) (A) (A) (A) (A) (A) (A)
                 (A) (A) (A) (A) (A) (A) (A) (A) (A) (A) (A) (A)
                 (A) (A) (A) (A) (A) (A) (A) (A) (A) (A) (A) (A)
                 (A) (A) (A) (A) (A) (A) (A) (A) (A) (A) (A) (A)
                 (A) (A) (A) (A) (A) (A) (A) (A) (A) (A) (A) (A)
                 (A) (A) (A) (A) (A) (A) (A) (A) (A) (A) (A) (A)
                 (A) (A) (A) (A) (A) (A) (A) (A) (A) (A) (A) (A)
                 (A) (A) (A) (A) (A) (A) (A) (A) (A) (A) (A) (A)
                 (A) (A) (A) (A) (A) (A) (A) (A) (A) (A) (A) (A)
                 (A) (A) (A) (A) (A) (A) (A) (A) (A) (A) (A) (A)
                 (A) (A) (A)
 Beta  Orbitals:
       Occupied  (A) (A) (A) (A) (A) (A) (A) (A) (A) (A) (A) (A)
                 (A) (A) (A) (A) (A) (A) (A) (A) (A) (A) (A) (A)
                 (A) (A) (A) (A) (A) (A) (A) (A) (A) (A) (A) (A)
                 (A) (A) (A) (A)
       Virtual   (A) (A) (A) (A) (A) (A) (A) (A) (A) (A) (A) (A)
                 (A) (A) (A) (A) (A) (A) (A) (A) (A) (A) (A) (A)
                 (A) (A) (A) (A) (A) (A) (A) (A) (A) (A) (A) (A)
                 (A) (A) (A) (A) (A) (A) (A) (A) (A) (A) (A) (A)
                 (A) (A) (A) (A) (A) (A) (A) (A) (A) (A) (A) (A)
                 (A) (A) (A) (A) (A) (A) (A) (A) (A) (A) (A) (A)
                 (A) (A) (A) (A) (A) (A) (A) (A) (A) (A) (A) (A)
                 (A) (A) (A) (A) (A) (A) (A) (A) (A) (A) (A) (A)
                 (A) (A) (A) (A) (A) (A) (A) (A) (A) (A) (A) (A)
                 (A) (A) (A) (A) (A) (A) (A) (A) (A) (A) (A) (A)
                 (A) (A) (A) (A) (A) (A) (A) (A) (A) (A) (A) (A)
                 (A) (A) (A) (A) (A) (A) (A) (A) (A) (A) (A) (A)
                 (A) (A) (A) (A) (A) (A) (A) (A) (A) (A) (A) (A)
                 (A) (A) (A) (A) (A) (A) (A) (A) (A) (A) (A) (A)
                 (A) (A) (A) (A) (A) (A) (A) (A) (A) (A) (A) (A)
                 (A) (A) (A) (A) (A)
 The electronic state is 3-A.
 Alpha  occ. eigenvalues --  -19.16284 -14.39131 -14.36034 -10.24062 -10.19075
 Alpha  occ. eigenvalues --  -10.18341 -10.18313 -10.18266 -10.18251 -10.18064
 Alpha  occ. eigenvalues --  -10.18023  -1.04385  -0.99365  -0.84590  -0.77400
 Alpha  occ. eigenvalues --   -0.74575  -0.73883  -0.72186  -0.63380  -0.59348
 Alpha  occ. eigenvalues --   -0.58618  -0.55458  -0.53133  -0.48460  -0.47865
 Alpha  occ. eigenvalues --   -0.45266  -0.43784  -0.43411  -0.41548  -0.40739
 Alpha  occ. eigenvalues --   -0.39920  -0.38543  -0.37640  -0.36290  -0.35146
 Alpha  occ. eigenvalues --   -0.33997  -0.32807  -0.30606  -0.26184  -0.25179
 Alpha  occ. eigenvalues --   -0.19702  -0.14165
 Alpha virt. eigenvalues --    0.00342   0.03116   0.07835   0.09814   0.10941
 Alpha virt. eigenvalues --    0.12760   0.13821   0.14862   0.16133   0.17061
 Alpha virt. eigenvalues --    0.17603   0.18499   0.19665   0.21038   0.23338
 Alpha virt. eigenvalues --    0.24032   0.26127   0.27154   0.28777   0.31110
 Alpha virt. eigenvalues --    0.34875   0.37478   0.42568   0.47349   0.50932
 Alpha virt. eigenvalues --    0.52129   0.53290   0.54920   0.55258   0.56762
 Alpha virt. eigenvalues --    0.57321   0.59315   0.60218   0.60634   0.61562
 Alpha virt. eigenvalues --    0.62132   0.62489   0.63121   0.64598   0.65380
 Alpha virt. eigenvalues --    0.66549   0.68154   0.68532   0.70482   0.71535
 Alpha virt. eigenvalues --    0.74240   0.75549   0.78516   0.80781   0.81668
 Alpha virt. eigenvalues --    0.82510   0.82916   0.83682   0.83965   0.86431
 Alpha virt. eigenvalues --    0.87314   0.88937   0.90184   0.92270   0.94020
 Alpha virt. eigenvalues --    0.94564   0.96442   0.97360   0.99566   1.02318
 Alpha virt. eigenvalues --    1.04278   1.08953   1.09596   1.12222   1.15262
 Alpha virt. eigenvalues --    1.16325   1.19157   1.21207   1.23179   1.26820
 Alpha virt. eigenvalues --    1.27207   1.30061   1.33030   1.35761   1.37602
 Alpha virt. eigenvalues --    1.38374   1.40698   1.41845   1.43152   1.43669
 Alpha virt. eigenvalues --    1.44200   1.45392   1.49158   1.55569   1.61004
 Alpha virt. eigenvalues --    1.67687   1.71715   1.76409   1.76874   1.77958
 Alpha virt. eigenvalues --    1.80262   1.82161   1.85742   1.87126   1.87956
 Alpha virt. eigenvalues --    1.88763   1.89269   1.93233   1.94770   1.96822
 Alpha virt. eigenvalues --    1.97712   2.00707   2.03404   2.05845   2.06612
 Alpha virt. eigenvalues --    2.07164   2.08213   2.08467   2.10371   2.15022
 Alpha virt. eigenvalues --    2.15377   2.17479   2.19982   2.25996   2.29971
 Alpha virt. eigenvalues --    2.31528   2.32297   2.36038   2.36673   2.37354
 Alpha virt. eigenvalues --    2.38738   2.39409   2.41021   2.42498   2.44041
 Alpha virt. eigenvalues --    2.44565   2.46381   2.47351   2.48946   2.49937
 Alpha virt. eigenvalues --    2.51175   2.55203   2.56825   2.58185   2.60185
 Alpha virt. eigenvalues --    2.61976   2.65072   2.66208   2.66566   2.69715
 Alpha virt. eigenvalues --    2.73644   2.73858   2.76303   2.78538   2.83455
 Alpha virt. eigenvalues --    2.85149   2.86986   2.91303   2.92710   2.94748
 Alpha virt. eigenvalues --    3.05946   3.08164   3.12942   3.18922   3.22584
 Alpha virt. eigenvalues --    3.24783   3.26598   3.27195   3.39442   3.39866
 Alpha virt. eigenvalues --    3.42821   3.45103   3.46008   3.46761   3.51524
 Alpha virt. eigenvalues --    3.53803   3.69281   3.89207   4.06579   4.10315
 Alpha virt. eigenvalues --    4.13436   4.16817   4.18108   4.29866   4.43599
 Alpha virt. eigenvalues --    4.44189   4.59881   4.85180
  Beta  occ. eigenvalues --  -19.15961 -14.38375 -14.34602 -10.23150 -10.19251
  Beta  occ. eigenvalues --  -10.18439 -10.18426 -10.18126 -10.18032 -10.17974
  Beta  occ. eigenvalues --  -10.17684  -1.03521  -0.97194  -0.84239  -0.76579
  Beta  occ. eigenvalues --   -0.73592  -0.71946  -0.71592  -0.62423  -0.59155
  Beta  occ. eigenvalues --   -0.58143  -0.54734  -0.52879  -0.47431  -0.47334
  Beta  occ. eigenvalues --   -0.44981  -0.43443  -0.41980  -0.41389  -0.40243
  Beta  occ. eigenvalues --   -0.38324  -0.36979  -0.35608  -0.34271  -0.33598
  Beta  occ. eigenvalues --   -0.33059  -0.32329  -0.29099  -0.24668  -0.24274
  Beta virt. eigenvalues --   -0.05387  -0.04518   0.01038   0.05638   0.08453
  Beta virt. eigenvalues --    0.10047   0.11529   0.13097   0.14146   0.14929
  Beta virt. eigenvalues --    0.16761   0.17299   0.17921   0.19320   0.20066
  Beta virt. eigenvalues --    0.21281   0.24163   0.24649   0.27041   0.28062
  Beta virt. eigenvalues --    0.29331   0.31191   0.35035   0.38058   0.42992
  Beta virt. eigenvalues --    0.47680   0.51961   0.52862   0.53708   0.55551
  Beta virt. eigenvalues --    0.56383   0.57166   0.58423   0.59634   0.60395
  Beta virt. eigenvalues --    0.60923   0.62021   0.62275   0.62744   0.63887
  Beta virt. eigenvalues --    0.65759   0.66502   0.67603   0.68959   0.69296
  Beta virt. eigenvalues --    0.72215   0.72900   0.75184   0.76190   0.79414
  Beta virt. eigenvalues --    0.81653   0.82157   0.83008   0.83751   0.84188
  Beta virt. eigenvalues --    0.84723   0.86918   0.87911   0.89137   0.90519
  Beta virt. eigenvalues --    0.92651   0.94269   0.94862   0.97104   0.98022
  Beta virt. eigenvalues --    1.00256   1.02562   1.04696   1.09275   1.10176
  Beta virt. eigenvalues --    1.12592   1.15786   1.17353   1.19499   1.21935
  Beta virt. eigenvalues --    1.24587   1.27149   1.27873   1.30470   1.33690
  Beta virt. eigenvalues --    1.36495   1.38855   1.40628   1.41456   1.42570
  Beta virt. eigenvalues --    1.43525   1.44187   1.44612   1.46201   1.49743
  Beta virt. eigenvalues --    1.58153   1.61676   1.68381   1.72508   1.76698
  Beta virt. eigenvalues --    1.77291   1.78596   1.81049   1.82613   1.86362
  Beta virt. eigenvalues --    1.88064   1.89253   1.89668   1.91151   1.93351
  Beta virt. eigenvalues --    1.95699   1.97344   1.98179   2.01019   2.03606
  Beta virt. eigenvalues --    2.06164   2.07248   2.07992   2.08632   2.09398
  Beta virt. eigenvalues --    2.10579   2.15805   2.15897   2.18346   2.21132
  Beta virt. eigenvalues --    2.26568   2.31127   2.32008   2.33493   2.37068
  Beta virt. eigenvalues --    2.37509   2.38003   2.39271   2.39986   2.41436
  Beta virt. eigenvalues --    2.43062   2.44668   2.45401   2.46460   2.47979
  Beta virt. eigenvalues --    2.49555   2.50686   2.51849   2.55716   2.57295
  Beta virt. eigenvalues --    2.58688   2.60475   2.63446   2.65661   2.66660
  Beta virt. eigenvalues --    2.68017   2.70003   2.74007   2.74231   2.76757
  Beta virt. eigenvalues --    2.78961   2.83937   2.85814   2.87492   2.91907
  Beta virt. eigenvalues --    2.92973   2.95302   3.06045   3.08462   3.13203
  Beta virt. eigenvalues --    3.19190   3.22853   3.24811   3.26691   3.27616
  Beta virt. eigenvalues --    3.39897   3.40348   3.43028   3.45346   3.46242
  Beta virt. eigenvalues --    3.47264   3.51637   3.54746   3.70669   3.89336
  Beta virt. eigenvalues --    4.07867   4.11137   4.13855   4.17066   4.18627
  Beta virt. eigenvalues --    4.30838   4.43775   4.44397   4.60543   4.85571
          Condensed to atoms (all electrons):
               1          2          3          4          5          6
     1  C    4.923173   0.000002   0.274263   0.001407  -0.019993   0.000957
     2  H    0.000002   0.423793   0.000042  -0.026180   0.001091   0.339248
     3  O    0.274263   0.000042   8.180193  -0.038398   0.253441  -0.006072
     4  N    0.001407  -0.026180  -0.038398   6.968502   0.068592   0.200487
     5  H   -0.019993   0.001091   0.253441   0.068592   0.341024  -0.011066
     6  N    0.000957   0.339248  -0.006072   0.200487  -0.011066   6.550979
     7  H   -0.001662  -0.030415   0.028204  -0.047674  -0.010153   0.338168
     8  H   -0.000059  -0.011207   0.001128   0.307234  -0.003116  -0.036207
     9  C    0.369790  -0.000003  -0.071523  -0.000190   0.005863   0.000003
    10  H   -0.027404   0.000000   0.002718   0.000001   0.000010  -0.000006
    11  H   -0.029097   0.000000   0.002524   0.000001  -0.000187   0.000000
    12  H   -0.032241   0.000001   0.001819   0.000012  -0.000210  -0.000013
    13  C    0.434961   0.000004  -0.045900   0.001152  -0.009967  -0.000102
    14  C   -0.062326  -0.000006  -0.002864  -0.004229   0.004945   0.000184
    15  C   -0.052381   0.000000   0.003372   0.000004   0.000012  -0.000001
    16  C    0.006642  -0.000000   0.000599  -0.000263  -0.000031   0.000004
    17  H   -0.011047   0.000006   0.001367   0.005867   0.006484  -0.000108
    18  C    0.006073  -0.000000  -0.000063  -0.000002  -0.000006   0.000000
    19  H   -0.013700   0.000000   0.000044   0.000000   0.000004  -0.000000
    20  C    0.000517   0.000000  -0.000010   0.000002  -0.000000  -0.000000
    21  H   -0.000183  -0.000000   0.000001  -0.000006   0.000008  -0.000000
    22  H   -0.000178  -0.000000   0.000000  -0.000000   0.000000   0.000000
    23  H    0.000006   0.000000  -0.000000   0.000000  -0.000000  -0.000000
               7          8          9         10         11         12
     1  C   -0.001662  -0.000059   0.369790  -0.027404  -0.029097  -0.032241
     2  H   -0.030415  -0.011207  -0.000003   0.000000   0.000000   0.000001
     3  O    0.028204   0.001128  -0.071523   0.002718   0.002524   0.001819
     4  N   -0.047674   0.307234  -0.000190   0.000001   0.000001   0.000012
     5  H   -0.010153  -0.003116   0.005863   0.000010  -0.000187  -0.000210
     6  N    0.338168  -0.036207   0.000003  -0.000006   0.000000  -0.000013
     7  H    0.415968   0.007020  -0.000024   0.000058   0.000001   0.000204
     8  H    0.007020   0.465093   0.000003  -0.000000  -0.000000   0.000000
     9  C   -0.000024   0.000003   5.025239   0.367150   0.373726   0.369253
    10  H    0.000058  -0.000000   0.367150   0.584174  -0.022561  -0.031686
    11  H    0.000001  -0.000000   0.373726  -0.022561   0.585035  -0.036124
    12  H    0.000204   0.000000   0.369253  -0.031686  -0.036124   0.600606
    13  C    0.000005  -0.000055  -0.065631   0.003706  -0.002390  -0.001690
    14  C    0.000040   0.000356   0.006591  -0.000120  -0.000045  -0.000072
    15  C   -0.000005   0.000000  -0.012313   0.000219   0.001889   0.001239
    16  C    0.000000   0.000025  -0.000170   0.000002  -0.000006   0.000004
    17  H   -0.000126  -0.000402   0.000058  -0.000006  -0.000001  -0.000003
    18  C    0.000000   0.000000   0.000117  -0.000002   0.000171   0.000005
    19  H   -0.000001  -0.000000   0.006009  -0.000081   0.001364   0.000500
    20  C   -0.000000  -0.000000  -0.000002   0.000000  -0.000006  -0.000001
    21  H   -0.000000   0.000002   0.000002  -0.000000   0.000000  -0.000000
    22  H   -0.000000   0.000000   0.000003  -0.000000  -0.000003  -0.000001
    23  H   -0.000000  -0.000000  -0.000000  -0.000000  -0.000000   0.000000
              13         14         15         16         17         18
     1  C    0.434961  -0.062326  -0.052381   0.006642  -0.011047   0.006073
     2  H    0.000004  -0.000006   0.000000  -0.000000   0.000006  -0.000000
     3  O   -0.045900  -0.002864   0.003372   0.000599   0.001367  -0.000063
     4  N    0.001152  -0.004229   0.000004  -0.000263   0.005867  -0.000002
     5  H   -0.009967   0.004945   0.000012  -0.000031   0.006484  -0.000006
     6  N   -0.000102   0.000184  -0.000001   0.000004  -0.000108   0.000000
     7  H    0.000005   0.000040  -0.000005   0.000000  -0.000126   0.000000
     8  H   -0.000055   0.000356   0.000000   0.000025  -0.000402   0.000000
     9  C   -0.065631   0.006591  -0.012313  -0.000170   0.000058   0.000117
    10  H    0.003706  -0.000120   0.000219   0.000002  -0.000006  -0.000002
    11  H   -0.002390  -0.000045   0.001889  -0.000006  -0.000001   0.000171
    12  H   -0.001690  -0.000072   0.001239   0.000004  -0.000003   0.000005
    13  C    4.790851   0.451179   0.481799  -0.017815  -0.047589  -0.017370
    14  C    0.451179   5.043730  -0.052963   0.519161   0.365263  -0.042246
    15  C    0.481799  -0.052963   4.999200  -0.039417   0.005580   0.531021
    16  C   -0.017815   0.519161  -0.039417   4.845767  -0.037206  -0.030098
    17  H   -0.047589   0.365263   0.005580  -0.037206   0.623268   0.000246
    18  C   -0.017370  -0.042246   0.531021  -0.030098   0.000246   4.840982
    19  H   -0.040149   0.005763   0.368850   0.000252  -0.000149  -0.042981
    20  C   -0.030515  -0.045679  -0.047153   0.528765   0.004914   0.529761
    21  H    0.003483  -0.037518   0.000852   0.368271  -0.006541   0.004585
    22  H    0.003568   0.000809  -0.037319   0.004608   0.000016   0.368383
    23  H    0.000622   0.004912   0.004790  -0.041185  -0.000177  -0.041544
              19         20         21         22         23
     1  C   -0.013700   0.000517  -0.000183  -0.000178   0.000006
     2  H    0.000000   0.000000  -0.000000  -0.000000   0.000000
     3  O    0.000044  -0.000010   0.000001   0.000000  -0.000000
     4  N    0.000000   0.000002  -0.000006  -0.000000   0.000000
     5  H    0.000004  -0.000000   0.000008   0.000000  -0.000000
     6  N   -0.000000  -0.000000  -0.000000   0.000000  -0.000000
     7  H   -0.000001  -0.000000  -0.000000  -0.000000  -0.000000
     8  H   -0.000000  -0.000000   0.000002   0.000000  -0.000000
     9  C    0.006009  -0.000002   0.000002   0.000003  -0.000000
    10  H   -0.000081   0.000000  -0.000000  -0.000000  -0.000000
    11  H    0.001364  -0.000006   0.000000  -0.000003  -0.000000
    12  H    0.000500  -0.000001  -0.000000  -0.000001   0.000000
    13  C   -0.040149  -0.030515   0.003483   0.003568   0.000622
    14  C    0.005763  -0.045679  -0.037518   0.000809   0.004912
    15  C    0.368850  -0.047153   0.000852  -0.037319   0.004790
    16  C    0.000252   0.528765   0.368271   0.004608  -0.041185
    17  H   -0.000149   0.004914  -0.006541   0.000016  -0.000177
    18  C   -0.042981   0.529761   0.004585   0.368383  -0.041544
    19  H    0.626710   0.004959   0.000016  -0.006523  -0.000179
    20  C    0.004959   4.886269  -0.042033  -0.042316   0.371049
    21  H    0.000016  -0.042033   0.623405  -0.000191  -0.005751
    22  H   -0.006523  -0.042316  -0.000191   0.623174  -0.005795
    23  H   -0.000179   0.371049  -0.005751  -0.005795   0.624697
          Atomic-Atomic Spin Densities.
               1          2          3          4          5          6
     1  C    0.721153  -0.000012  -0.095223   0.000542  -0.000779   0.000496
     2  H   -0.000012   0.002422   0.000041  -0.002556  -0.000220  -0.006040
     3  O   -0.095223   0.000041   0.175740   0.001472   0.004531  -0.000723
     4  N    0.000542  -0.002556   0.001472   0.928467  -0.009465  -0.195068
     5  H   -0.000779  -0.000220   0.004531  -0.009465  -0.004800   0.000648
     6  N    0.000496  -0.006040  -0.000723  -0.195068   0.000648   0.531882
     7  H   -0.002278   0.003367   0.002532  -0.001255   0.000480  -0.006446
     8  H   -0.000072   0.000664   0.000053  -0.004657   0.000460   0.002044
     9  C   -0.001546   0.000001   0.000182   0.000019  -0.000054  -0.000010
    10  H   -0.005750  -0.000000   0.000167  -0.000001   0.000008   0.000008
    11  H   -0.008323  -0.000000   0.000119  -0.000000   0.000006   0.000000
    12  H   -0.018670   0.000000   0.001948   0.000001  -0.000024  -0.000030
    13  C    0.037732  -0.000002  -0.001974  -0.000349  -0.000171   0.000097
    14  C   -0.019162   0.000004   0.001768   0.000869   0.000342  -0.000090
    15  C   -0.019399   0.000000   0.000330  -0.000007  -0.000007   0.000001
    16  C   -0.000237   0.000000  -0.000017   0.000008   0.000037   0.000001
    17  H   -0.000394  -0.000003   0.000545  -0.000954  -0.000365   0.000030
    18  C   -0.000235   0.000000   0.000001   0.000001   0.000002  -0.000000
    19  H    0.000083  -0.000000  -0.000001  -0.000000  -0.000001   0.000000
    20  C    0.000336  -0.000000  -0.000002  -0.000001   0.000000   0.000000
    21  H   -0.000003   0.000000   0.000000   0.000005   0.000000  -0.000000
    22  H   -0.000004   0.000000   0.000000   0.000000   0.000000  -0.000000
    23  H    0.000000  -0.000000  -0.000000  -0.000000  -0.000000  -0.000000
               7          8          9         10         11         12
     1  C   -0.002278  -0.000072  -0.001546  -0.005750  -0.008323  -0.018670
     2  H    0.003367   0.000664   0.000001  -0.000000  -0.000000   0.000000
     3  O    0.002532   0.000053   0.000182   0.000167   0.000119   0.001948
     4  N   -0.001255  -0.004657   0.000019  -0.000001  -0.000000   0.000001
     5  H    0.000480   0.000460  -0.000054   0.000008   0.000006  -0.000024
     6  N   -0.006446   0.002044  -0.000010   0.000008   0.000000  -0.000030
     7  H   -0.002814  -0.000121  -0.000006  -0.000081  -0.000007   0.000218
     8  H   -0.000121  -0.021264  -0.000000  -0.000000  -0.000000   0.000000
     9  C   -0.000006  -0.000000  -0.056585   0.002714   0.004592   0.000400
    10  H   -0.000081  -0.000000   0.002714   0.014788   0.004007  -0.008686
    11  H   -0.000007  -0.000000   0.004592   0.004007   0.019711  -0.009815
    12  H    0.000218   0.000000   0.000400  -0.008686  -0.009815   0.070853
    13  C   -0.000054  -0.000001  -0.000697  -0.000100  -0.000354  -0.000724
    14  C    0.000079   0.000147   0.000053   0.000031   0.000164  -0.000007
    15  C    0.000009   0.000001   0.000107   0.000026   0.001192   0.001261
    16  C    0.000000  -0.000001   0.000006  -0.000000  -0.000000   0.000001
    17  H   -0.000014  -0.000025   0.000004   0.000004   0.000005  -0.000007
    18  C    0.000000   0.000000  -0.000014   0.000001   0.000037  -0.000001
    19  H    0.000000   0.000000   0.000079  -0.000006   0.000023   0.000004
    20  C   -0.000000  -0.000000  -0.000000  -0.000000  -0.000005  -0.000002
    21  H    0.000000  -0.000000   0.000000   0.000000   0.000000  -0.000000
    22  H    0.000000   0.000000   0.000000  -0.000000  -0.000001   0.000000
    23  H    0.000000  -0.000000  -0.000000   0.000000   0.000000  -0.000000
              13         14         15         16         17         18
     1  C    0.037732  -0.019162  -0.019399  -0.000237  -0.000394  -0.000235
     2  H   -0.000002   0.000004   0.000000   0.000000  -0.000003   0.000000
     3  O   -0.001974   0.001768   0.000330  -0.000017   0.000545   0.000001
     4  N   -0.000349   0.000869  -0.000007   0.000008  -0.000954   0.000001
     5  H   -0.000171   0.000342  -0.000007   0.000037  -0.000365   0.000002
     6  N    0.000097  -0.000090   0.000001   0.000001   0.000030  -0.000000
     7  H   -0.000054   0.000079   0.000009   0.000000  -0.000014   0.000000
     8  H   -0.000001   0.000147   0.000001  -0.000001  -0.000025   0.000000
     9  C   -0.000697   0.000053   0.000107   0.000006   0.000004  -0.000014
    10  H   -0.000100   0.000031   0.000026  -0.000000   0.000004   0.000001
    11  H   -0.000354   0.000164   0.001192  -0.000000   0.000005   0.000037
    12  H   -0.000724  -0.000007   0.001261   0.000001  -0.000007  -0.000001
    13  C   -0.135501  -0.023119  -0.023226   0.000257   0.000632   0.000116
    14  C   -0.023119   0.265272   0.007700   0.008102   0.001268   0.001727
    15  C   -0.023226   0.007700   0.261288   0.001282  -0.000026   0.008667
    16  C    0.000257   0.008102   0.001282  -0.124037   0.000291  -0.000333
    17  H    0.000632   0.001268  -0.000026   0.000291  -0.011831  -0.000005
    18  C    0.000116   0.001727   0.008667  -0.000333  -0.000005  -0.122882
    19  H    0.000625  -0.000030   0.001283  -0.000013   0.000001   0.000420
    20  C    0.002100  -0.012644  -0.012330  -0.007609   0.000017  -0.009029
    21  H    0.000001  -0.000622  -0.000007   0.000554   0.000060  -0.000001
    22  H   -0.000006  -0.000009  -0.000532  -0.000001  -0.000000   0.000508
    23  H   -0.000036  -0.000001   0.000002   0.000085   0.000003   0.000116
              19         20         21         22         23
     1  C    0.000083   0.000336  -0.000003  -0.000004   0.000000
     2  H   -0.000000  -0.000000   0.000000   0.000000  -0.000000
     3  O   -0.000001  -0.000002   0.000000   0.000000  -0.000000
     4  N   -0.000000  -0.000001   0.000005   0.000000  -0.000000
     5  H   -0.000001   0.000000   0.000000   0.000000  -0.000000
     6  N    0.000000   0.000000  -0.000000  -0.000000  -0.000000
     7  H    0.000000  -0.000000   0.000000   0.000000   0.000000
     8  H    0.000000  -0.000000  -0.000000   0.000000  -0.000000
     9  C    0.000079  -0.000000   0.000000   0.000000  -0.000000
    10  H   -0.000006  -0.000000   0.000000  -0.000000   0.000000
    11  H    0.000023  -0.000005   0.000000  -0.000001   0.000000
    12  H    0.000004  -0.000002  -0.000000   0.000000  -0.000000
    13  C    0.000625   0.002100   0.000001  -0.000006  -0.000036
    14  C   -0.000030  -0.012644  -0.000622  -0.000009  -0.000001
    15  C    0.001283  -0.012330  -0.000007  -0.000532   0.000002
    16  C   -0.000013  -0.007609   0.000554  -0.000001   0.000085
    17  H    0.000001   0.000017   0.000060  -0.000000   0.000003
    18  C    0.000420  -0.009029  -0.000001   0.000508   0.000116
    19  H   -0.012617   0.000013  -0.000000   0.000043   0.000003
    20  C    0.000013   0.303872  -0.000606  -0.000548   0.001704
    21  H   -0.000000  -0.000606   0.004939  -0.000000   0.000084
    22  H    0.000043  -0.000548  -0.000000   0.004768   0.000081
    23  H    0.000003   0.001704   0.000084   0.000081  -0.014514
 Mulliken charges and spin densities:
               1          2
     1  C    0.232480   0.588256
     2  H    0.303626  -0.002334
     3  O   -0.584885   0.091489
     4  N   -0.436318   0.717070
     5  H    0.373256  -0.009373
     6  N   -0.376456   0.326799
     7  H    0.300393  -0.006392
     8  H    0.270186  -0.022772
     9  C   -0.373951  -0.050756
    10  H    0.123829   0.007129
    11  H    0.125708   0.011351
    12  H    0.128398   0.036721
    13  C    0.107844  -0.144755
    14  C   -0.154865   0.231841
    15  C   -0.157276   0.227614
    16  C   -0.107911  -0.121623
    17  H    0.090287  -0.010761
    18  C   -0.107032  -0.120905
    19  H    0.089291  -0.010090
    20  C   -0.118521   0.265265
    21  H    0.091597   0.004402
    22  H    0.091765   0.004298
    23  H    0.088556  -0.012472
 Sum of Mulliken charges =  -0.00000   2.00000
 Mulliken charges and spin densities with hydrogens summed into heavy atoms:
               1          2
     1  C    0.232480   0.588256
     3  O   -0.211629   0.082116
     4  N   -0.166132   0.694297
     6  N    0.227563   0.318073
     9  C    0.003984   0.004444
    13  C    0.107844  -0.144755
    14  C   -0.064578   0.221080
    15  C   -0.067985   0.217524
    16  C   -0.016314  -0.117221
    18  C   -0.015267  -0.116607
    20  C   -0.029965   0.252792
 Electronic spatial extent (au):  <R**2>=           2194.5073
 Charge=             -0.0000 electrons
 Dipole moment (field-independent basis, Debye):
    X=              4.2501    Y=             -1.0695    Z=              2.1477  Tot=              4.8805
 Quadrupole moment (field-independent basis, Debye-Ang):
   XX=            -46.3365   YY=            -55.9513   ZZ=            -68.3755
   XY=             -7.0747   XZ=              5.7949   YZ=              1.7512
 Traceless Quadrupole moment (field-independent basis, Debye-Ang):
   XX=             10.5512   YY=              0.9365   ZZ=            -11.4877
   XY=             -7.0747   XZ=              5.7949   YZ=              1.7512
 Octapole moment (field-independent basis, Debye-Ang**2):
  XXX=            104.8503  YYY=            -15.4408  ZZZ=              1.5763  XYY=             23.6500
  XXY=            -33.2198  XXZ=             38.6363  XZZ=             14.5791  YZZ=             -1.1941
  YYZ=              2.4971  XYZ=             -7.6917
 Hexadecapole moment (field-independent basis, Debye-Ang**3):
 XXXX=          -1388.2976 YYYY=           -777.6340 ZZZZ=           -203.8372 XXXY=           -122.9135
 XXXZ=            100.9868 YYYX=            -58.3075 YYYZ=             -2.5688 ZZZX=             11.4360
 ZZZY=             -1.4354 XXYY=           -360.3590 XXZZ=           -323.6299 YYZZ=           -173.8525
 XXYZ=            -24.2561 YYXZ=             17.5036 ZZXY=            -15.6340
 N-N= 5.823359788401D+02 E-N=-2.320890362678D+03  KE= 4.920255191640D+02
                          Isotropic Fermi Contact Couplings
        Atom                 a.u.       MegaHertz       Gauss      10(-4) cm-1
     1  C(13)              0.06786      38.14367      13.61061      12.72336
     2  H(1)               0.00100       2.23621       0.79794       0.74592
     3  O(17)              0.02357      -7.14523      -2.54960      -2.38339
     4  N(14)              0.11546      18.65225       6.65559       6.22172
     5  H(1)               0.00024       0.54251       0.19358       0.18096
     6  N(14)              0.10570      17.07537       6.09292       5.69573
     7  H(1)              -0.00257      -5.74834      -2.05115      -1.91744
     8  H(1)              -0.01030     -23.02881      -8.21725      -7.68158
     9  C(13)             -0.01845     -10.37074      -3.70054      -3.45931
    10  H(1)               0.00321       7.17028       2.55853       2.39175
    11  H(1)               0.00548      12.24326       4.36870       4.08391
    12  H(1)               0.01696      37.89866      13.52318      12.64163
    13  C(13)             -0.02983     -16.76525      -5.98226      -5.59229
    14  C(13)              0.02524      14.18705       5.06229       4.73229
    15  C(13)              0.02548      14.32333       5.11092       4.77775
    16  C(13)             -0.01826     -10.26662      -3.66338      -3.42458
    17  H(1)              -0.00335      -7.48137      -2.66954      -2.49552
    18  C(13)             -0.01814     -10.19874      -3.63916      -3.40193
    19  H(1)              -0.00340      -7.60927      -2.71518      -2.53818
    20  C(13)              0.02863      16.09149       5.74184       5.36754
    21  H(1)               0.00141       3.16217       1.12834       1.05479
    22  H(1)               0.00137       3.07295       1.09650       1.02503
    23  H(1)              -0.00403      -8.99705      -3.21037      -3.00109
 --------------------------------------------------------
       Center         ----  Spin Dipole Couplings  ----
                      3XX-RR        3YY-RR        3ZZ-RR
 --------------------------------------------------------
     1   Atom       -0.277263     -0.303573      0.580835
     2   Atom        0.033783     -0.031318     -0.002465
     3   Atom       -0.215174     -0.267761      0.482935
     4   Atom        0.315999     -0.773310      0.457311
     5   Atom       -0.014133      0.032150     -0.018017
     6   Atom        0.008104     -0.418240      0.410136
     7   Atom       -0.025553      0.050101     -0.024548
     8   Atom       -0.038490      0.083175     -0.044686
     9   Atom       -0.006963      0.010529     -0.003566
    10   Atom       -0.003710      0.010721     -0.007011
    11   Atom       -0.004303      0.010922     -0.006619
    12   Atom       -0.006154      0.007878     -0.001724
    13   Atom        0.036776      0.029885     -0.066661
    14   Atom       -0.060917     -0.065358      0.126275
    15   Atom       -0.058566     -0.076422      0.134987
    16   Atom        0.038480      0.025387     -0.063867
    17   Atom        0.008703     -0.008132     -0.000571
    18   Atom        0.029514      0.034660     -0.064174
    19   Atom       -0.008172      0.011161     -0.002988
    20   Atom       -0.079329     -0.092200      0.171529
    21   Atom        0.006662     -0.002692     -0.003970
    22   Atom        0.001608      0.002360     -0.003968
    23   Atom        0.010360     -0.006250     -0.004110
 --------------------------------------------------------
                        XY            XZ            YZ
 --------------------------------------------------------
     1   Atom       -0.067247      0.280270     -0.221624
     2   Atom       -0.024082      0.026667     -0.017217
     3   Atom       -0.016396      0.229596     -0.040093
     4   Atom        0.118837     -1.195913     -0.135457
     5   Atom       -0.024671      0.010563     -0.010414
     6   Atom        0.049423     -0.587841     -0.056497
     7   Atom       -0.005457     -0.006068     -0.009865
     8   Atom       -0.036158     -0.024813     -0.018951
     9   Atom        0.000080      0.001959      0.003416
    10   Atom        0.005637      0.000193     -0.001580
    11   Atom       -0.005102     -0.000858      0.001014
    12   Atom        0.000901      0.001147      0.007580
    13   Atom        0.021642     -0.039956      0.029031
    14   Atom       -0.044738      0.104919     -0.105775
    15   Atom       -0.040313      0.106752     -0.091979
[...]
    19  H   -0.000000  -0.000000   0.000054   0.000002   0.000124  -0.000074
    20  C   -0.000000  -0.000034  -0.000002  -0.000000  -0.000005  -0.000001
    21  H   -0.000000  -0.000006   0.000000   0.000000   0.000000  -0.000000
    22  H    0.000000   0.000000   0.000000  -0.000000  -0.000001   0.000000
    23  H   -0.000000  -0.000000  -0.000000   0.000000   0.000000  -0.000000
              13         14         15         16         17         18
     1  C    0.039351  -0.017920  -0.019586  -0.000217  -0.001626  -0.000183
     2  H   -0.000001   0.000003  -0.000000   0.000000  -0.000014   0.000000
     3  O   -0.001915   0.001400   0.000341  -0.000020   0.001027   0.000001
     4  N   -0.000334  -0.002116  -0.000041   0.000029   0.003167   0.000002
     5  H   -0.000018   0.000663   0.000091   0.000031  -0.000413  -0.000000
     6  N    0.000002   0.000109   0.000001  -0.000000  -0.000184  -0.000000
     7  H   -0.000001   0.000007  -0.000000  -0.000000  -0.000017   0.000000
     8  H    0.000011   0.002068   0.000031  -0.000054  -0.000362   0.000001
     9  C   -0.001346   0.000213  -0.000058   0.000007  -0.000003   0.000001
    10  H   -0.000289   0.000083   0.000045  -0.000000   0.000010   0.000001
    11  H   -0.000323   0.000196   0.000843   0.000001   0.000008   0.000038
    12  H   -0.000480  -0.000076   0.000994   0.000001  -0.000011  -0.000003
    13  C   -0.122976  -0.029522  -0.024678   0.000801   0.000660   0.000500
    14  C   -0.029522   0.272349   0.006996   0.008500  -0.005001   0.001558
    15  C   -0.024678   0.006996   0.259768   0.000991   0.000120   0.008649
    16  C    0.000801   0.008500   0.000991  -0.122083   0.000014   0.000140
    17  H    0.000660  -0.005001   0.000120   0.000014  -0.005656  -0.000056
    18  C    0.000500   0.001558   0.008649   0.000140  -0.000056  -0.119584
    19  H    0.000440   0.000016   0.001333  -0.000026   0.000006   0.000351
    20  C    0.001894  -0.012046  -0.011867  -0.008733   0.000098  -0.010724
    21  H   -0.000014  -0.000723  -0.000010   0.000617   0.000099   0.000005
    22  H    0.000025  -0.000026  -0.000568   0.000016  -0.000001   0.000521
    23  H   -0.000046   0.000026   0.000014   0.000016   0.000006   0.000065
              19         20         21         22         23
     1  C    0.000124   0.000317  -0.000003  -0.000004  -0.000000
     2  H   -0.000000   0.000000   0.000000   0.000000  -0.000000
     3  O   -0.000001  -0.000002   0.000000   0.000000   0.000000
     4  N   -0.000001   0.000004  -0.000001   0.000000  -0.000000
     5  H   -0.000001  -0.000004  -0.000000   0.000000  -0.000000
     6  N    0.000000  -0.000000   0.000000  -0.000000  -0.000000
     7  H   -0.000000  -0.000000  -0.000000   0.000000  -0.000000
     8  H   -0.000000  -0.000034  -0.000006   0.000000  -0.000000
     9  C    0.000054  -0.000002   0.000000   0.000000  -0.000000
    10  H    0.000002  -0.000000   0.000000  -0.000000   0.000000
    11  H    0.000124  -0.000005   0.000000  -0.000001   0.000000
    12  H   -0.000074  -0.000001  -0.000000   0.000000  -0.000000
    13  C    0.000440   0.001894  -0.000014   0.000025  -0.000046
    14  C    0.000016  -0.012046  -0.000723  -0.000026   0.000026
    15  C    0.001333  -0.011867  -0.000010  -0.000568   0.000014
    16  C   -0.000026  -0.008733   0.000617   0.000016   0.000016
    17  H    0.000006   0.000098   0.000099  -0.000001   0.000006
    18  C    0.000351  -0.010724   0.000005   0.000521   0.000065
    19  H   -0.012273   0.000032  -0.000000   0.000025   0.000004
    20  C    0.000032   0.304016  -0.000574  -0.000579   0.001771
    21  H   -0.000000  -0.000574   0.004953  -0.000000   0.000081
    22  H    0.000025  -0.000579  -0.000000   0.004746   0.000074
    23  H    0.000004   0.001771   0.000081   0.000074  -0.014408
 Mulliken charges and spin densities:
               1          2
     1  C    0.231703   0.583758
     2  H    0.306745  -0.004263
     3  O   -0.593117   0.094043
     4  N   -0.430487   0.710915
     5  H    0.381868  -0.009374
     6  N   -0.370702   0.332064
     7  H    0.313671  -0.007619
     8  H    0.274714  -0.020694
     9  C   -0.369983  -0.050232
    10  H    0.120968   0.012197
    11  H    0.119506   0.006492
    12  H    0.123951   0.037678
    13  C    0.099989  -0.138260
    14  C   -0.158331   0.226756
    15  C   -0.156768   0.223408
    16  C   -0.107935  -0.119968
    17  H    0.086604  -0.008129
    18  C   -0.107264  -0.118719
    19  H    0.087803  -0.009865
    20  C   -0.120599   0.263559
    21  H    0.090143   0.004423
    22  H    0.090442   0.004228
    23  H    0.087075  -0.012397
 Sum of Mulliken charges =  -0.00000   2.00000
 Mulliken charges and spin densities with hydrogens summed into heavy atoms:
               1          2
     1  C    0.231703   0.583758
     3  O   -0.211249   0.084669
     4  N   -0.155773   0.690220
     6  N    0.249714   0.320182
     9  C   -0.005557   0.006134
    13  C    0.099989  -0.138260
    14  C   -0.071726   0.218627
    15  C   -0.068964   0.213544
    16  C   -0.017792  -0.115545
    18  C   -0.016822  -0.114490
    20  C   -0.033524   0.251162
 Electronic spatial extent (au):  <R**2>=           2269.6359
 Charge=             -0.0000 electrons
 Dipole moment (field-independent basis, Debye):
    X=              4.6022    Y=             -3.2288    Z=              1.8014  Tot=              5.9034
 Quadrupole moment (field-independent basis, Debye-Ang):
   XX=            -42.6803   YY=            -55.9086   ZZ=            -68.8358
   XY=            -12.5302   XZ=              1.7906   YZ=              0.6356
 Traceless Quadrupole moment (field-independent basis, Debye-Ang):
   XX=             13.1279   YY=             -0.1003   ZZ=            -13.0276
   XY=            -12.5302   XZ=              1.7906   YZ=              0.6356
 Octapole moment (field-independent basis, Debye-Ang**2):
  XXX=            138.4608  YYY=            -19.3580  ZZZ=              0.7074  XYY=             24.8854
  XXY=            -47.0056  XXZ=             21.2474  XZZ=              9.2283  YZZ=             -1.5074
  YYZ=              7.0485  XYZ=             -8.6800
 Hexadecapole moment (field-independent basis, Debye-Ang**3):
 XXXX=          -1171.8637 YYYY=           -929.3238 ZZZZ=           -189.7579 XXXY=           -182.8269
 XXXZ=             21.1796 YYYX=            -71.9885 YYYZ=            -10.8390 ZZZX=              0.8608
 ZZZY=             -2.9360 XXYY=           -363.8605 XXZZ=           -338.6543 YYZZ=           -193.5071
 XXYZ=            -33.3223 YYXZ=             30.1917 ZZXY=            -16.6739
 N-N= 5.771505579322D+02 E-N=-2.310733523543D+03  KE= 4.920185409297D+02
                          Isotropic Fermi Contact Couplings
        Atom                 a.u.       MegaHertz       Gauss      10(-4) cm-1
     1  C(13)              0.06665      37.46460      13.36830      12.49684
     2  H(1)              -0.00011      -0.25616      -0.09141      -0.08545
     3  O(17)              0.02467      -7.47607      -2.66765      -2.49375
     4  N(14)              0.12000      19.38689       6.91773       6.46677
     5  H(1)               0.00247       5.53080       1.97353       1.84488
     6  N(14)              0.10120      16.34903       5.83374       5.45345
     7  H(1)              -0.00258      -5.76799      -2.05816      -1.92399
     8  H(1)              -0.01028     -22.98043      -8.19999      -7.66545
     9  C(13)             -0.01845     -10.37018      -3.70034      -3.45912
    10  H(1)               0.00552      12.33056       4.39985       4.11303
    11  H(1)               0.00308       6.87498       2.45316       2.29325
    12  H(1)               0.01729      38.64192      13.78840      12.88956
    13  C(13)             -0.02886     -16.22135      -5.78818      -5.41086
    14  C(13)              0.02529      14.21260       5.07141       4.74081
    15  C(13)              0.02581      14.50750       5.17664       4.83918
    16  C(13)             -0.01804     -10.14074      -3.61847      -3.38259
    17  H(1)              -0.00349      -7.79940      -2.78302      -2.60160
    18  C(13)             -0.01784     -10.02640      -3.57767      -3.34445
    19  H(1)              -0.00333      -7.43976      -2.65469      -2.48164
    20  C(13)              0.02846      15.99802       5.70849       5.33637
    21  H(1)               0.00146       3.25824       1.16262       1.08683
    22  H(1)               0.00135       3.02069       1.07786       1.00759
    23  H(1)              -0.00399      -8.92582      -3.18496      -2.97733
 --------------------------------------------------------
       Center         ----  Spin Dipole Couplings  ----
                      3XX-RR        3YY-RR        3ZZ-RR
 --------------------------------------------------------
     1   Atom       -0.275214     -0.317348      0.592562
     2   Atom       -0.023143      0.031389     -0.008245
     3   Atom       -0.241896     -0.268274      0.510170
     4   Atom       -0.691271     -0.305409      0.996680
     5   Atom       -0.016174      0.037508     -0.021335
     6   Atom       -0.397526     -0.233793      0.631319
     7   Atom        0.008883      0.003683     -0.012566
     8   Atom       -0.024330      0.044930     -0.020600
     9   Atom       -0.006797      0.010136     -0.003339
    10   Atom       -0.005839      0.012770     -0.006931
    11   Atom       -0.001438      0.007606     -0.006168
    12   Atom       -0.006345      0.007901     -0.001556
    13   Atom        0.024624      0.035977     -0.060601
    14   Atom       -0.032555     -0.062447      0.095002
    15   Atom       -0.034276     -0.079757      0.114034
    16   Atom        0.029203      0.027134     -0.056337
    17   Atom        0.013030     -0.012821     -0.000208
    18   Atom        0.019310      0.037612     -0.056921
    19   Atom       -0.005168      0.007540     -0.002372
    20   Atom       -0.060903     -0.092490      0.153393
    21   Atom        0.005436     -0.001312     -0.004124
    22   Atom        0.000183      0.003613     -0.003796
    23   Atom        0.003306      0.002068     -0.005373
 --------------------------------------------------------
                        XY            XZ            YZ
 --------------------------------------------------------
     1   Atom       -0.053759      0.275324     -0.176616
     2   Atom       -0.036126      0.010736     -0.019334
     3   Atom        0.008969      0.188740      0.051599
     4   Atom       -0.215576     -0.434304      0.929421
     5   Atom       -0.033207      0.008838     -0.015310
     6   Atom       -0.060078     -0.120732      0.462509
     7   Atom        0.040491     -0.021934     -0.009225
     8   Atom        0.062140     -0.034033     -0.015917
     9   Atom       -0.003625      0.000238      0.004639
    10   Atom        0.001885      0.000285     -0.001634
    11   Atom       -0.007911     -0.001427      0.001523
    12   Atom       -0.001390      0.000099      0.007652
    13   Atom        0.021770     -0.042625      0.022985
    14   Atom       -0.056938      0.121866     -0.097754
    15   Atom       -0.044269      0.123726     -0.081030
    16   Atom        0.023893     -0.049784      0.035475
    17   Atom       -0.006887      0.000235      0.000747
    18   Atom        0.021452     -0.047946      0.035451
    19   Atom       -0.008152     -0.000855      0.006470
    20   Atom       -0.042800      0.137077     -0.102855
    21   Atom        0.004721     -0.001404      0.000100
    22   Atom        0.003040     -0.000576      0.001359
    23   Atom        0.016419      0.004653     -0.006911
 --------------------------------------------------------


 ---------------------------------------------------------------------------------
              Anisotropic Spin Dipole Couplings in Principal Axis System
 ---------------------------------------------------------------------------------

       Atom             a.u.   MegaHertz   Gauss  10(-4) cm-1        Axes

              Baa    -0.3562   -47.795   -17.054   -15.943  0.9044  0.3812 -0.1915
     1 C(13)  Bbb    -0.3497   -46.924   -16.744   -15.652 -0.3262  0.9073  0.2654
              Bcc     0.7058    94.718    33.798    31.595  0.2749 -0.1776  0.9449
 
              Baa    -0.0412   -21.968    -7.839    -7.328  0.8984  0.4377 -0.0359
     2 H(1)   Bbb    -0.0157    -8.380    -2.990    -2.795 -0.1102  0.3039  0.9463
              Bcc     0.0569    30.348    10.829    10.123 -0.4251  0.8462 -0.3213
 
              Baa    -0.2872    20.785     7.416     6.933  0.9510  0.1974 -0.2379
     3 O(17)  Bbb    -0.2709    19.605     6.996     6.540 -0.2067  0.9783 -0.0147
              Bcc     0.5582   -40.390   -14.412   -13.473  0.2298  0.0631  0.9712
 
              Baa    -0.8013   -30.905   -11.028   -10.309  0.7848 -0.4525  0.4235
     4 N(14)  Bbb    -0.7824   -30.175   -10.767   -10.065  0.5836  0.7694 -0.2595
              Bcc     1.5837    61.080    21.795    20.374 -0.2084  0.4508  0.8680
 
              Baa    -0.0323   -17.228    -6.148    -5.747  0.9026  0.3889 -0.1846
     5 H(1)   Bbb    -0.0250   -13.353    -4.765    -4.454  0.0772  0.2756  0.9582
              Bcc     0.0573    30.581    10.912    10.201 -0.4235  0.8791 -0.2187
 
              Baa    -0.4365   -16.835    -6.007    -5.616  0.2745  0.8933 -0.3559
     6 N(14)  Bbb    -0.4101   -15.816    -5.644    -5.276  0.9555 -0.2120  0.2049
              Bcc     0.8466    32.652    11.651    10.891 -0.1076  0.3963  0.9118
 
              Baa    -0.0378   -20.182    -7.201    -6.732  0.7008 -0.5969  0.3906
     7 H(1)   Bbb    -0.0166    -8.832    -3.152    -2.946 -0.0540  0.5016  0.8634
              Bcc     0.0544    29.014    10.353     9.678  0.7113  0.6262 -0.3193
 
              Baa    -0.0711   -37.927   -13.533   -12.651  0.8183 -0.3790  0.4322
     8 H(1)   Bbb    -0.0192   -10.264    -3.662    -3.424 -0.2450  0.4502  0.8587
              Bcc     0.0903    48.191    17.196    16.075  0.5200  0.8085 -0.2756
 
              Baa    -0.0079    -1.064    -0.380    -0.355  0.9121  0.2637 -0.3140
     9 C(13)  Bbb    -0.0043    -0.572    -0.204    -0.191  0.3700 -0.1992  0.9074
              Bcc     0.0122     1.635     0.584     0.546 -0.1767  0.9438  0.2793
 
              Baa    -0.0072    -3.855    -1.375    -1.286 -0.3394  0.1084  0.9344
    10 H(1)   Bbb    -0.0059    -3.128    -1.116    -1.043  0.9356 -0.0642  0.3472
              Bcc     0.0131     6.983     2.492     2.329  0.0976  0.9920 -0.0796
 
              Baa    -0.0067    -3.580    -1.278    -1.194  0.5330  0.2073  0.8203
    11 H(1)   Bbb    -0.0057    -3.046    -1.087    -1.016  0.6816  0.4692 -0.5615
              Bcc     0.0124     6.626     2.364     2.210 -0.5013  0.8584  0.1088
 
              Baa    -0.0069    -3.702    -1.321    -1.235  0.8242  0.3186 -0.4682
    12 H(1)   Bbb    -0.0053    -2.829    -1.009    -0.944  0.5628 -0.3693  0.7395
              Bcc     0.0122     6.531     2.330     2.179 -0.0627  0.8730  0.4837
 
              Baa    -0.0855   -11.475    -4.095    -3.828  0.3911 -0.2383  0.8890
    13 C(13)  Bbb     0.0318     4.262     1.521     1.422 -0.5965  0.6699  0.4420
              Bcc     0.0538     7.214     2.574     2.406  0.7009  0.7031 -0.1199
 
              Baa    -0.1095   -14.700    -5.245    -4.904 -0.2408  0.8121  0.5316
    14 C(13)  Bbb    -0.1054   -14.137    -5.045    -4.716  0.8449  0.4449 -0.2969
              Bcc     0.2149    28.838    10.290     9.619  0.4776 -0.3776  0.7933
 
              Baa    -0.1092   -14.657    -5.230    -4.889 -0.0914  0.9188  0.3841
    15 C(13)  Bbb    -0.1040   -13.954    -4.979    -4.655  0.8785  0.2560 -0.4034
              Bcc     0.2132    28.612    10.209     9.544  0.4689 -0.3006  0.8305
 
              Baa    -0.0940   -12.608    -4.499    -4.205  0.4081 -0.3299  0.8512
    16 C(13)  Bbb     0.0387     5.191     1.852     1.731 -0.2706  0.8468  0.4579
              Bcc     0.0553     7.417     2.647     2.474  0.8719  0.4172 -0.2563
 
              Baa    -0.0146    -7.781    -2.777    -2.596  0.2421  0.9687 -0.0543
    17 H(1)   Bbb    -0.0002    -0.089    -0.032    -0.030  0.0101  0.0535  0.9985
              Bcc     0.0148     7.870     2.808     2.625  0.9702 -0.2423  0.0031
 
              Baa    -0.0931   -12.491    -4.457    -4.167  0.4222 -0.3012  0.8550
    18 C(13)  Bbb     0.0410     5.503     1.964     1.836  0.7890 -0.3423 -0.5102
              Bcc     0.0521     6.989     2.494     2.331  0.4464  0.8900  0.0931
 
              Baa    -0.0099    -5.281    -1.884    -1.761  0.7983  0.4986 -0.3379
    19 H(1)   Bbb    -0.0040    -2.137    -0.763    -0.713  0.4670 -0.1579  0.8701
              Bcc     0.0139     7.418     2.647     2.474 -0.3804  0.8523  0.3588
 
              Baa    -0.1342   -18.005    -6.425    -6.006 -0.5354  0.6814  0.4990
    20 C(13)  Bbb    -0.1216   -16.315    -5.822    -5.442  0.7369  0.6656 -0.1184
              Bcc     0.2558    34.320    12.246    11.448  0.4128 -0.3043  0.8585
 
              Baa    -0.0048    -2.541    -0.907    -0.847  0.3342 -0.4808  0.8106
    21 H(1)   Bbb    -0.0032    -1.719    -0.614    -0.574 -0.3168  0.7527  0.5771
              Bcc     0.0080     4.260     1.520     1.421  0.8877  0.4497 -0.0992
 
              Baa    -0.0044    -2.336    -0.834    -0.779  0.2945 -0.2680  0.9173
    22 H(1)   Bbb    -0.0011    -0.585    -0.209    -0.195  0.8217 -0.4190 -0.3862
              Bcc     0.0055     2.921     1.042     0.974  0.4879  0.8675  0.0969
 
              Baa    -0.0188   -10.023    -3.576    -3.343 -0.5766  0.6274  0.5233
    23 H(1)   Bbb    -0.0004    -0.227    -0.081    -0.076  0.4083 -0.3336  0.8497
              Bcc     0.0192    10.249     3.657     3.419  0.7077  0.7036 -0.0639
 

 ---------------------------------------------------------------------------------

 No NMR shielding tensors so no spin-rotation constants.
 Leave Link  601 at Mon Jun 10 12:09:54 2019, MaxMem=   104857600 cpu:              13.7 elap:               0.4
 (Enter /project/6004141/group/g16/g16/l9999.exe)
 1\1\GINC-BLG8253\FOpt\UB3LYP\6-31G(d,p)\C8H12N2O1(3)\RZK\10-Jun-2019\0
 \\#p opt=modredundant ub3lyp/6-31g(d,p) scrf=(iefpcm,solvent=acetonitr
 ile) empiricaldispersion=gd3\\Title Card Required\\0,3\C,0.4633937106,
 1.4514318376,-0.3748375381\H,3.9316536635,-2.4064101918,1.2394122247\O
 ,1.6940395848,1.0273687016,-0.7536156091\N,2.4320455793,-1.3098366774,
 0.3793778741\H,1.9135780562,0.1191800395,-0.3821847821\N,3.6561185293,
 -1.490587799,0.8984147829\H,4.3903477917,-0.9646728747,0.4412448551\H,
 1.8110465825,-2.0211889063,0.7699330878\C,0.3771564659,2.9360947163,-0
 .1940153396\H,1.0819327676,3.4217823618,-0.8764418014\H,-0.6239110866,
 3.3245735017,-0.3972925411\H,0.6540814898,3.2446365083,0.8253286054\C,
 -0.6215745196,0.5515805461,-0.1935699846\C,-0.5472004959,-0.8092141468
 ,-0.62669032\C,-1.8442362659,0.9644622637,0.4212039589\C,-1.6074494302
 ,-1.6839011836,-0.4391663947\H,0.3440243665,-1.153543081,-1.1392596614
 \C,-2.8946809761,0.0759436536,0.6011200358\H,-1.9478343124,1.984468223
 7,0.7766218096\C,-2.7926913965,-1.2589771444,0.1802224882\H,-1.5183486
 206,-2.7093053418,-0.789104312\H,-3.8063101664,0.4222658656,1.08139090
 25\H,-3.6181033173,-1.9486828727,0.326169659\\Version=ES64L-G16RevA.03
 \State=3-A\HF=-496.7474558\S2=2.026776\S2-1=0.\S2A=2.000385\RMSD=8.843
 e-09\RMSF=7.341e-06\Dipole=1.6527974,-1.3667029,0.8915292\Quadrupole=7
 .6236087,1.905464,-9.5290727,-9.9073192,2.766391,-1.1125869\PG=C01 [X(
 C8H12N2O1)]\\@


 THE RED LIGHT IS ALWAYS LONGER THAN THE GREEN LIGHT.

                     -- PETER'S THEORY OF RELATIVITY
 Job cpu time:       0 days  6 hours 37 minutes 43.8 seconds.
 Elapsed time:       0 days  0 hours 10 minutes 38.9 seconds.
 File lengths (MBytes):  RWF=    181 Int=      0 D2E=      0 Chk=     10 Scr=      2
 Normal termination of Gaussian 16 at Mon Jun 10 12:09:54 2019.
