 Entering Gaussian System, Link 0=g16
 Initial command:
 /project/6004141/group/g16/g16/l1.exe "/scratch/rzk/Gau-89615.inp" -scrdir="/scratch/rzk/"
 Entering Link 1 = /project/6004141/group/g16/g16/l1.exe PID=     89617.
  
 Copyright (c) 1988,1990,1992,1993,1995,1998,2003,2009,2016,
            Gaussian, Inc.  All Rights Reserved.
  
 This is part of the Gaussian(R) 16 program.  It is based on
 the Gaussian(R) 09 system (copyright 2009, Gaussian, Inc.),
 the Gaussian(R) 03 system (copyright 2003, Gaussian, Inc.),
 the Gaussian(R) 98 system (copyright 1998, Gaussian, Inc.),
 the Gaussian(R) 94 system (copyright 1995, Gaussian, Inc.),
 the Gaussian 92(TM) system (copyright 1992, Gaussian, Inc.),
 the Gaussian 90(TM) system (copyright 1990, Gaussian, Inc.),
 the Gaussian 88(TM) system (copyright 1988, Gaussian, Inc.),
 the Gaussian 86(TM) system (copyright 1986, Carnegie Mellon
 University), and the Gaussian 82(TM) system (copyright 1983,
 Carnegie Mellon University). Gaussian is a federally registered
 trademark of Gaussian, Inc.
  
 This software contains proprietary and confidential information,
 including trade secrets, belonging to Gaussian, Inc.
  
 This software is provided under written license and may be
 used, copied, transmitted, or stored only in accord with that
 written license.
  
 The following legend is applicable only to US Government
 contracts under FAR:
  
                    RESTRICTED RIGHTS LEGEND
  
 Use, reproduction and disclosure by the US Government is
 subject to restrictions as set forth in subparagraphs (a)
 and (c) of the Commercial Computer Software - Restricted
 Rights clause in FAR 52.227-19.
  
 Gaussian, Inc.
 340 Quinnipiac St., Bldg. 40, Wallingford CT 06492
  
  
 ---------------------------------------------------------------
 Warning -- This program may not be used in any manner that
 competes with the business of Gaussian, Inc. or will provide
 assistance to any competitor of Gaussian, Inc.  The licensee
 of this program is prohibited from giving any competitor of
 Gaussian, Inc. access to this program.  By using this program,
 the user acknowledges that Gaussian, Inc. is engaged in the
 business of creating and licensing software in the field of
 computational chemistry and represents and warrants to the
 licensee that it is not a competitor of Gaussian, Inc. and that
 it will not use this program in any manner prohibited above.
 ---------------------------------------------------------------
  

 Cite this work as:
 Gaussian 16, Revision A.03,
 M. J. Frisch, G. W. Trucks, H. B. Schlegel, G. E. Scuseria, 
 M. A. Robb, J. R. Cheeseman, G. Scalmani, V. Barone, 
 G. A. Petersson, H. Nakatsuji, X. Li, M. Caricato, A. V. Marenich, 
 J. Bloino, B. G. Janesko, R. Gomperts, B. Mennucci, H. P. Hratchian, 
 J. V. Ortiz, A. F. Izmaylov, J. L. Sonnenberg, D. Williams-Young, 
 F. Ding, F. Lipparini, F. Egidi, J. Goings, B. Peng, A. Petrone, 
 T. Henderson, D. Ranasinghe, V. G. Zakrzewski, J. Gao, N. Rega, 
 G. Zheng, W. Liang, M. Hada, M. Ehara, K. Toyota, R. Fukuda, 
 J. Hasegawa, M. Ishida, T. Nakajima, Y. Honda, O. Kitao, H. Nakai, 
 T. Vreven, K. Throssell, J. A. Montgomery, Jr., J. E. Peralta, 
 F. Ogliaro, M. J. Bearpark, J. J. Heyd, E. N. Brothers, K. N. Kudin, 
 V. N. Staroverov, T. A. Keith, R. Kobayashi, J. Normand, 
 K. Raghavachari, A. P. Rendell, J. C. Burant, S. S. Iyengar, 
 J. Tomasi, M. Cossi, J. M. Millam, M. Klene, C. Adamo, R. Cammi, 
 J. W. Ochterski, R. L. Martin, K. Morokuma, O. Farkas, 
 J. B. Foresman, and D. J. Fox, Gaussian, Inc., Wallingford CT, 2016.
 
 ******************************************
 Gaussian 16:  ES64L-G16RevA.03 25-Dec-2016
                14-Jun-2019 
 ******************************************
 %NProcShared=40
 Will use up to   40 processors via shared memory.
 %chk=AAB-freq.chk
 ----------------------------------------------------------------------
 #p freq rb3lyp/6-31g(d,p) scrf=(iefpcm,solvent=acetonitrile) empirical
 dispersion=gd3
 ----------------------------------------------------------------------
 1/10=4,30=1,38=1/1,3;
 2/12=2,17=6,18=5,40=1/2;
 3/5=1,6=6,7=101,11=2,25=1,30=1,70=2201,71=2,72=2,74=-5,116=1,124=31,140=1/1,2,3;
 4//1;
 5/5=2,38=5,53=2,98=1/2;
 8/6=4,10=90,11=11/1;
 11/6=1,8=1,9=11,15=111,16=1/1,2,10;
 10/6=1/2;
 6/7=2,8=2,9=2,10=2,28=1/1;
 7/8=1,10=1,25=1/1,2,3,16;
 1/10=4,30=1/3;
 99//99;
 Leave Link    1 at Fri Jun 14 09:25:48 2019, MaxMem=           0 cpu:               9.3 elap:               0.2
 (Enter /project/6004141/group/g16/g16/l101.exe)
 -------------------
 Title Card Required
 -------------------
 Symbolic Z-matrix:
 Charge =  0 Multiplicity = 1
 C                     0.35429  -1.47937  -0.30068 
 H                     4.61802  -1.28328   1.29805 
 C                     1.78959   1.48604   0.3137 
 O                     2.51655   1.44709  -0.67856 
 O                     1.08739  -1.59167   0.68272 
 N                     4.64178  -0.83217  -0.64035 
 H                     4.54254  -1.38286  -1.49002 
 N                     4.21673  -1.68419   0.45352 
 H                     3.2011   -1.64085   0.56767 
 H                     4.0152   -0.02933  -0.73513 
 C                     0.94441  -1.34421  -1.68628 
 H                     0.59689  -2.15548  -2.33388 
 H                     0.62986  -0.39991  -2.13981 
 H                     2.03185  -1.35996  -1.62133 
 C                     2.34462   1.20312   1.69138 
 H                     2.13324   2.03014   2.37627 
 H                     1.87762   0.30053   2.09587 
 H                     3.42118   1.04823   1.61972 
 C                    -1.12782  -1.46691  -0.13376 
 C                    -1.66107  -1.66547   1.1511 
 C                    -2.00002  -1.24392  -1.2101 
 C                    -3.0362   -1.64507   1.35551 
 H                    -0.97697  -1.82964   1.97628 
 C                    -3.37897  -1.21781  -1.00329 
 H                    -1.611    -1.07944  -2.2084 
 C                    -3.89843  -1.41902   0.27693 
 H                    -3.43947  -1.80029   2.35146 
 H                    -4.04635  -1.03762  -1.84013 
 H                    -4.97248  -1.39839   0.4357 
 C                     0.33579   1.78998   0.16355 
 C                    -0.15191   2.12626  -1.11132 
 C                    -0.56215   1.70368   1.23851 
 C                    -1.50806   2.36076  -1.30891 
 H                     0.55151   2.19258  -1.93417 
 C                    -1.92258   1.93338   1.03808 
 H                    -0.21041   1.43512   2.22813 
 C                    -2.39736   2.25813  -0.23361 
 H                    -1.87676   2.6149   -2.2978 
 H                    -2.61288   1.84333   1.8703 
 H                    -3.45857   2.42581  -0.38923 
 
 ITRead=  0  0  0  0  0  0  0  0  0  0  0  0  0  0  0  0  0  0  0  0
 ITRead=  0  0  0  0  0  0  0  0  0  0  0  0  0  0  0  0  0  0  0  0
 MicOpt= -1 -1 -1 -1 -1 -1 -1 -1 -1 -1 -1 -1 -1 -1 -1 -1 -1 -1 -1 -1
 MicOpt= -1 -1 -1 -1 -1 -1 -1 -1 -1 -1 -1 -1 -1 -1 -1 -1 -1 -1 -1 -1
 NAtoms=     40 NQM=       40 NQMF=       0 NMMI=      0 NMMIF=      0
                NMic=       0 NMicF=      0.
                    Isotopes and Nuclear Properties:
 (Nuclear quadrupole moments (NQMom) in fm**2, nuclear magnetic moments (NMagM)
  in nuclear magnetons)

  Atom         1           2           3           4           5           6           7           8           9          10
 IAtWgt=          12           1          12          16          16          14           1          14           1           1
 AtmWgt=  12.0000000   1.0078250  12.0000000  15.9949146  15.9949146  14.0030740   1.0078250  14.0030740   1.0078250   1.0078250
 NucSpn=           0           1           0           0           0           2           1           2           1           1
 AtZEff=  -0.0000000  -0.0000000  -0.0000000  -0.0000000  -0.0000000  -0.0000000  -0.0000000  -0.0000000  -0.0000000  -0.0000000
 NQMom=    0.0000000   0.0000000   0.0000000   0.0000000   0.0000000   2.0440000   0.0000000   2.0440000   0.0000000   0.0000000
 NMagM=    0.0000000   2.7928460   0.0000000   0.0000000   0.0000000   0.4037610   2.7928460   0.4037610   2.7928460   2.7928460
 AtZNuc=   6.0000000   1.0000000   6.0000000   8.0000000   8.0000000   7.0000000   1.0000000   7.0000000   1.0000000   1.0000000

  Atom        11          12          13          14          15          16          17          18          19          20
 IAtWgt=          12           1           1           1          12           1           1           1          12          12
 AtmWgt=  12.0000000   1.0078250   1.0078250   1.0078250  12.0000000   1.0078250   1.0078250   1.0078250  12.0000000  12.0000000
 NucSpn=           0           1           1           1           0           1           1           1           0           0
 AtZEff=  -0.0000000  -0.0000000  -0.0000000  -0.0000000  -0.0000000  -0.0000000  -0.0000000  -0.0000000  -0.0000000  -0.0000000
 NQMom=    0.0000000   0.0000000   0.0000000   0.0000000   0.0000000   0.0000000   0.0000000   0.0000000   0.0000000   0.0000000
 NMagM=    0.0000000   2.7928460   2.7928460   2.7928460   0.0000000   2.7928460   2.7928460   2.7928460   0.0000000   0.0000000
 AtZNuc=   6.0000000   1.0000000   1.0000000   1.0000000   6.0000000   1.0000000   1.0000000   1.0000000   6.0000000   6.0000000

  Atom        21          22          23          24          25          26          27          28          29          30
 IAtWgt=          12          12           1          12           1          12           1           1           1          12
 AtmWgt=  12.0000000  12.0000000   1.0078250  12.0000000   1.0078250  12.0000000   1.0078250   1.0078250   1.0078250  12.0000000
 NucSpn=           0           0           1           0           1           0           1           1           1           0
 AtZEff=  -0.0000000  -0.0000000  -0.0000000  -0.0000000  -0.0000000  -0.0000000  -0.0000000  -0.0000000  -0.0000000  -0.0000000
 NQMom=    0.0000000   0.0000000   0.0000000   0.0000000   0.0000000   0.0000000   0.0000000   0.0000000   0.0000000   0.0000000
 NMagM=    0.0000000   0.0000000   2.7928460   0.0000000   2.7928460   0.0000000   2.7928460   2.7928460   2.7928460   0.0000000
 AtZNuc=   6.0000000   6.0000000   1.0000000   6.0000000   1.0000000   6.0000000   1.0000000   1.0000000   1.0000000   6.0000000

  Atom        31          32          33          34          35          36          37          38          39          40
 IAtWgt=          12          12          12           1          12           1          12           1           1           1
 AtmWgt=  12.0000000  12.0000000  12.0000000   1.0078250  12.0000000   1.0078250  12.0000000   1.0078250   1.0078250   1.0078250
 NucSpn=           0           0           0           1           0           1           0           1           1           1
 AtZEff=  -0.0000000  -0.0000000  -0.0000000  -0.0000000  -0.0000000  -0.0000000  -0.0000000  -0.0000000  -0.0000000  -0.0000000
 NQMom=    0.0000000   0.0000000   0.0000000   0.0000000   0.0000000   0.0000000   0.0000000   0.0000000   0.0000000   0.0000000
 NMagM=    0.0000000   0.0000000   0.0000000   2.7928460   0.0000000   2.7928460   0.0000000   2.7928460   2.7928460   2.7928460
 AtZNuc=   6.0000000   6.0000000   6.0000000   1.0000000   6.0000000   1.0000000   6.0000000   1.0000000   1.0000000   1.0000000
 Leave Link  101 at Fri Jun 14 09:25:48 2019, MaxMem=   104857600 cpu:               8.8 elap:               0.3
 (Enter /project/6004141/group/g16/g16/l103.exe)

 GradGradGradGradGradGradGradGradGradGradGradGradGradGradGradGradGradGrad
 Berny optimization.
 Initialization pass.
 Trust Radius=3.00D-01 FncErr=1.00D-07 GrdErr=1.00D-07 EigMax=2.50D+02 EigMin=1.00D-04
 Number of steps in this run=      2 maximum allowed number of steps=      2.
 GradGradGradGradGradGradGradGradGradGradGradGradGradGradGradGradGradGrad

 Leave Link  103 at Fri Jun 14 09:25:49 2019, MaxMem=   104857600 cpu:               4.3 elap:               0.2
 (Enter /project/6004141/group/g16/g16/l202.exe)
                          Input orientation:                          
 ---------------------------------------------------------------------
 Center     Atomic      Atomic             Coordinates (Angstroms)
 Number     Number       Type             X           Y           Z
 ---------------------------------------------------------------------
      1          6           0        0.354292   -1.479367   -0.300682
      2          1           0        4.618022   -1.283283    1.298049
      3          6           0        1.789590    1.486036    0.313703
      4          8           0        2.516551    1.447090   -0.678564
      5          8           0        1.087393   -1.591673    0.682724
      6          7           0        4.641778   -0.832169   -0.640352
      7          1           0        4.542537   -1.382863   -1.490021
      8          7           0        4.216729   -1.684188    0.453524
      9          1           0        3.201097   -1.640852    0.567673
     10          1           0        4.015195   -0.029334   -0.735132
     11          6           0        0.944413   -1.344207   -1.686276
     12          1           0        0.596890   -2.155483   -2.333883
     13          1           0        0.629864   -0.399910   -2.139806
     14          1           0        2.031853   -1.359962   -1.621332
     15          6           0        2.344620    1.203121    1.691376
     16          1           0        2.133242    2.030138    2.376266
     17          1           0        1.877621    0.300528    2.095869
     18          1           0        3.421182    1.048234    1.619719
     19          6           0       -1.127817   -1.466906   -0.133755
     20          6           0       -1.661066   -1.665472    1.151099
     21          6           0       -2.000025   -1.243915   -1.210097
     22          6           0       -3.036203   -1.645070    1.355511
     23          1           0       -0.976966   -1.829640    1.976279
     24          6           0       -3.378972   -1.217805   -1.003288
     25          1           0       -1.611000   -1.079441   -2.208397
     26          6           0       -3.898430   -1.419016    0.276932
     27          1           0       -3.439469   -1.800289    2.351458
     28          1           0       -4.046348   -1.037619   -1.840128
     29          1           0       -4.972479   -1.398392    0.435704
     30          6           0        0.335793    1.789979    0.163553
     31          6           0       -0.151912    2.126260   -1.111322
     32          6           0       -0.562152    1.703684    1.238513
     33          6           0       -1.508064    2.360762   -1.308906
     34          1           0        0.551512    2.192584   -1.934174
     35          6           0       -1.922581    1.933380    1.038083
     36          1           0       -0.210412    1.435119    2.228133
     37          6           0       -2.397359    2.258132   -0.233613
     38          1           0       -1.876758    2.614901   -2.297804
     39          1           0       -2.612881    1.843333    1.870299
     40          1           0       -3.458570    2.425814   -0.389234
 ---------------------------------------------------------------------
                    Distance matrix (angstroms):
                    1          2          3          4          5
     1  C    0.000000
     2  H    4.557827   0.000000
     3  C    3.351293   4.078982   0.000000
     4  O    3.658184   3.972168   1.230684   0.000000
     5  O    1.231721   3.597092   3.178294   3.623490   0.000000
     6  N    4.349342   1.990343   3.797272   3.116580   3.867949
     7  H    4.354909   2.790869   4.366087   3.573754   4.086862
     8  N    3.940710   1.017341   3.995106   3.738600   3.139082
     9  H    2.980674   1.633702   3.440099   3.399573   2.117404
    10  H    3.961509   2.463659   2.889588   2.104510   3.608773
    11  C    1.512079   4.733425   3.567144   3.358339   2.386178
    12  H    2.156361   5.488275   4.657564   4.404964   3.107795
    13  H    2.150243   5.338970   3.304764   3.017652   3.097791
    14  H    2.138360   3.900889   3.450037   3.000547   2.500874
    15  C    3.889144   3.391942   1.511980   2.388660   3.226278
    16  H    4.758922   4.279654   2.160627   3.133506   4.132723
    17  H    3.351420   3.264165   2.142264   3.069253   2.490354
    18  H    4.413901   2.640430   2.135285   2.501909   3.646044
    19  C    1.491532   5.924394   4.175087   4.697830   2.364183
    20  C    2.490777   6.292425   4.747659   5.521611   2.789059
    21  C    2.534814   7.077492   4.912818   5.284269   3.638112
    22  C    3.777021   7.662986   5.846150   6.673229   4.178461
    23  H    2.660731   5.662366   4.627278   5.476295   2.447752
    24  C    3.807799   8.321800   5.979904   6.477986   4.788615
    25  H    2.767976   7.151044   4.950421   5.075473   3.987767
    26  C    4.292193   8.578523   6.387038   7.090805   5.005288
    27  H    4.639985   8.142489   6.503494   7.429716   4.829148
    28  H    4.683019   9.218450   6.713121   7.112992   5.746917
    29  H    5.378040   9.629880   7.352577   8.088506   6.067984
    30  C    3.302193   5.391614   1.492800   2.362719   3.502858
    31  C    3.730137   6.338953   2.491990   2.787337   4.310163
    32  C    3.652507   5.979943   2.536402   3.635854   3.726832
    33  C    4.385371   7.589744   3.777900   4.174884   5.130763
    34  H    4.023732   6.250234   2.661766   2.448203   4.632054
    35  C    4.315470   7.293421   3.808550   4.784271   4.648895
    36  H    3.899747   5.618589   2.769051   3.985644   3.637864
    37  C    4.641657   8.006446   4.292578   5.000228   5.272966
    38  H    5.072387   8.384996   4.640734   4.825649   5.946848
    39  H    4.955563   7.898681   4.683204   5.741497   5.186678
    40  H    5.458589   9.046307   5.377777   6.061657   6.160769
                    6          7          8          9         10
     6  N    0.000000
     7  H    1.017374   0.000000
     8  N    1.450230   1.993568   0.000000
     9  H    2.046669   2.469843   1.022945   0.000000
    10  H    1.022807   1.637067   2.047452   2.226443   0.000000
    11  C    3.876422   3.603680   3.924587   3.203265   3.473222
    12  H    4.580429   4.108184   4.592928   3.932654   4.331434
    13  H    4.304726   4.086249   4.608723   3.934669   3.683870
    14  H    2.837710   2.514220   3.030484   2.497554   2.547463
    15  C    3.854387   4.651821   3.656996   3.175601   3.193385
    16  H    4.856494   5.692227   4.672694   4.229361   4.178991
    17  H    4.050984   4.774326   3.479629   2.802843   3.562667
    18  H    3.183346   4.103432   3.075555   2.895932   2.656939
    19  C    5.826470   5.830903   5.381104   4.388822   5.373904
    20  C    6.605266   6.748339   5.919074   4.897103   6.201190
    21  C    6.678899   6.550021   6.450543   5.510871   6.154971
    22  C    7.974689   8.099574   7.308908   6.286861   7.530180
    23  H    6.277897   6.532975   5.414278   4.413165   5.959406
    24  C    8.038213   7.938165   7.748193   6.778215   7.493869
    25  H    6.451135   6.202753   6.435368   5.583729   5.909933
    26  C    8.609353   8.623999   8.121410   7.108940   8.098207
    27  H    8.671490   8.868124   7.888790   6.877821   8.260468
    28  H    8.772982   8.602948   8.599845   7.660735   8.199154
    29  H    9.690843   9.707945   9.193669   8.178236   9.166431
    30  C    5.105236   5.522493   5.216856   4.488194   4.201849
    31  C    5.652750   5.873262   6.004438   5.315339   4.706685
    32  C    6.086179   6.559689   5.910295   5.079172   5.277379
    33  C    6.961489   7.117394   7.227796   6.458379   6.045508
    34  H    5.249132   5.376744   5.845022   5.289118   4.286225
    35  C    7.318211   7.693278   7.149800   6.264862   6.500286
    36  H    6.075570   6.660046   5.699025   4.884375   5.364822
    37  C    7.698366   7.937100   7.730472   6.869268   6.826776
    38  H    7.557827   7.605391   7.948746   7.218518   6.644474
    39  H    8.129684   8.538155   7.816280   6.902081   7.363867
    40  H    8.734595   8.929472   8.747147   7.861591   7.874297
                   11         12         13         14         15
    11  C    0.000000
    12  H    1.094685   0.000000
    13  H    1.093768   1.766576   0.000000
    14  H    1.089491   1.788771   1.776538   0.000000
    15  C    4.456231   5.526074   4.493112   4.200149   0.000000
    16  H    5.413295   6.485777   5.344173   5.242504   1.094400
    17  H    4.228552   5.224458   4.470845   4.074138   1.093790
    18  H    4.773653   5.819914   4.901286   4.270135   1.090005
    19  C    2.592202   2.879117   2.872658   3.493972   4.745310
    20  C    3.865544   4.181337   4.204767   4.627889   4.956435
    21  C    2.984379   2.972847   2.914279   4.054457   5.769096
    22  C    5.018794   5.203029   5.216101   5.884562   6.097397
    23  H    4.164331   4.600075   4.644156   4.713427   4.506855
    24  C    4.378825   4.296185   4.246339   5.447863   6.773596
    25  H    2.621612   2.459348   2.342635   3.700502   6.005435
    26  C    5.226176   5.250394   5.233034   6.226970   6.917509
    27  H    5.977435   6.194415   6.220288   6.775863   6.550715
    28  H    5.002536   4.801362   4.729000   6.090674   7.637860
    29  H    6.286123   6.265913   6.246316   7.300243   7.866671
    30  C    3.689906   4.676754   3.191795   3.998070   2.591145
    31  C    3.684649   4.515383   2.837338   4.145200   3.865226
    32  C    4.484838   5.385031   4.154401   4.928844   2.984120
    33  C    4.459131   5.087030   3.589212   5.145135   5.018466
    34  H    3.567172   4.366636   2.601816   3.861329   4.163999
    35  C    5.136571   5.868278   4.696615   5.792766   4.378250
    36  H    4.937699   5.861412   4.811682   5.259145   2.621091
    37  C    5.123916   5.732073   4.456774   5.885090   5.225418
    38  H    4.899746   5.373714   3.923927   5.615549   5.977183
    39  H    5.955164   6.630860   5.623920   6.635220   5.001870
    40  H    5.939835   6.420023   5.269204   6.781955   6.284977
                   16         17         18         19         20
    16  H    0.000000
    17  H    1.770739   0.000000
    18  H    1.787537   1.779990   0.000000
    19  C    5.400373   4.138563   5.485799   0.000000
    20  C    5.436482   4.156928   5.780402   1.405216   0.000000
    21  C    6.376936   5.324552   6.530796   1.403205   2.422365
    22  C    6.424349   5.336586   7.001536   2.427260   1.390396
    23  H    4.973054   3.563788   5.268112   2.146293   1.084374
    24  C    7.235677   6.288233   7.632640   2.426075   2.791593
    25  H    6.686401   5.709772   6.671156   2.165118   3.410594
    26  C    7.258439   6.295088   7.840097   2.801295   2.414686
    27  H    6.762240   5.722779   7.464453   3.410449   2.149827
    28  H    8.085570   7.237135   8.490308   3.407905   3.877010
    29  H    8.124769   7.250265   8.822778   3.887210   3.398320
    30  C    2.860874   2.886095   3.491451   3.582994   4.111306
    31  C    4.170664   4.211695   4.624687   3.849529   4.666190
    32  C    2.943842   2.942176   4.054859   3.500820   3.544921
    33  C    5.191234   5.224933   5.881925   4.022016   4.720762
    34  H    4.594361   4.645394   4.709002   4.410615   5.412856
    35  C    4.271978   4.269268   5.447714   3.683314   3.610111
    36  H    2.422541   2.380057   3.702475   3.852518   3.588602
    37  C    5.233526   5.247300   6.225280   3.936701   4.225426
    38  H    6.186193   6.225435   6.772710   4.680296   5.501186
    39  H    4.776671   4.753497   6.091378   4.144796   3.706064
    40  H    6.250833   6.258395   7.298261   4.544331   4.726761
                   21         22         23         24         25
    21  C    0.000000
    22  C    2.795878   0.000000
    23  H    3.397457   2.158675   0.000000
    24  C    1.394613   2.421565   3.875796   0.000000
    25  H    1.083972   3.879765   4.298408   2.144098   0.000000
    26  C    2.417821   1.399239   3.404606   1.396168   3.394776
    27  H    3.881524   1.085646   2.491092   3.405476   4.965400
    28  H    2.151031   3.406097   4.961186   1.085430   2.463390
    29  H    3.401177   2.157790   4.303890   2.154663   4.288653
    30  C    4.067859   4.958899   4.255697   4.920138   4.201157
    31  C    3.844913   5.350451   5.085581   4.648479   3.689042
    32  C    4.092861   4.165185   3.633283   4.636296   4.552698
    33  C    3.639435   5.047872   5.351072   4.049672   3.557341
    34  H    4.340985   6.198493   5.814308   5.286398   3.931641
    35  C    3.893008   3.761146   3.991832   4.027187   4.440023
    36  H    4.711832   4.270144   3.362988   5.245937   5.288427
    37  C    3.657284   4.262443   4.859117   3.692980   3.956959
    38  H    4.011080   5.730478   6.231481   4.315328   3.704967
    39  H    4.404036   3.551502   4.022211   4.267899   5.116848
    40  H    4.033371   4.449115   5.464696   3.695857   4.360009
                   26         27         28         29         30
    26  C    0.000000
    27  H    2.158627   0.000000
    28  H    2.156220   4.303413   0.000000
    29  H    1.085917   2.486313   2.483402   0.000000
    30  C    5.314052   5.650624   5.586878   6.198187   0.000000
    31  C    5.341594   6.181963   5.070298   6.168819   1.405791
    32  C    4.669758   4.668557   5.397443   5.451455   1.403314
    33  C    4.745045   5.868810   4.274819   5.401581   2.427702
    34  H    6.142852   7.087849   5.619909   7.001850   2.146878
    35  C    3.965084   4.238654   4.649873   4.556912   2.426030
    36  H    5.055170   4.572733   6.113885   5.823991   2.164892
    37  C    4.004409   4.923349   4.020203   4.522101   2.801255
    38  H    5.195085   6.599364   4.272878   5.758652   3.410888
    39  H    3.851542   3.767060   4.911413   4.258468   3.407419
    40  H    3.926827   5.037033   3.800782   4.194877   3.886779
                   31         32         33         34         35
    31  C    0.000000
    32  C    2.422518   0.000000
    33  C    1.390388   2.795683   0.000000
    34  H    1.084569   3.397825   2.158957   0.000000
    35  C    2.791489   1.394166   2.421330   3.875904   0.000000
    36  H    3.410727   1.084065   3.879608   4.298730   2.143830
    37  C    2.414497   2.417137   1.399155   3.404709   1.395739
    38  H    2.149791   3.881242   1.085560   2.491400   3.405101
    39  H    3.876400   2.150382   3.405246   4.960784   1.084991
    40  H    3.397813   3.400040   2.157429   4.303719   2.153831
                   36         37         38         39         40
    36  H    0.000000
    37  C    3.394154   0.000000
    38  H    4.965149   2.158517   0.000000
    39  H    2.463035   2.155215   4.302357   0.000000
    40  H    4.287495   1.085589   2.486066   2.481927   0.000000
 Stoichiometry    C16H20N2O2
 Framework group  C1[X(C16H20N2O2)]
 Deg. of freedom   114
 Full point group                 C1      NOp   1
 Largest Abelian subgroup         C1      NOp   1
 Largest concise Abelian subgroup C1      NOp   1
                         Standard orientation:                         
 ---------------------------------------------------------------------
 Center     Atomic      Atomic             Coordinates (Angstroms)
 Number     Number       Type             X           Y           Z
 ---------------------------------------------------------------------
      1          6           0        0.354292   -1.479367   -0.300682
      2          1           0        4.618022   -1.283283    1.298049
      3          6           0        1.789590    1.486036    0.313703
      4          8           0        2.516551    1.447090   -0.678564
      5          8           0        1.087393   -1.591673    0.682724
      6          7           0        4.641778   -0.832169   -0.640352
      7          1           0        4.542537   -1.382863   -1.490021
      8          7           0        4.216729   -1.684188    0.453524
      9          1           0        3.201097   -1.640852    0.567673
     10          1           0        4.015195   -0.029334   -0.735132
     11          6           0        0.944413   -1.344207   -1.686276
     12          1           0        0.596890   -2.155483   -2.333883
     13          1           0        0.629864   -0.399910   -2.139806
     14          1           0        2.031853   -1.359962   -1.621332
     15          6           0        2.344620    1.203121    1.691376
     16          1           0        2.133242    2.030138    2.376266
     17          1           0        1.877621    0.300528    2.095869
     18          1           0        3.421182    1.048234    1.619719
     19          6           0       -1.127817   -1.466906   -0.133755
     20          6           0       -1.661066   -1.665472    1.151099
     21          6           0       -2.000025   -1.243915   -1.210097
     22          6           0       -3.036203   -1.645070    1.355511
     23          1           0       -0.976966   -1.829640    1.976279
     24          6           0       -3.378972   -1.217805   -1.003288
     25          1           0       -1.611000   -1.079441   -2.208397
     26          6           0       -3.898430   -1.419016    0.276932
     27          1           0       -3.439469   -1.800289    2.351458
     28          1           0       -4.046348   -1.037619   -1.840128
     29          1           0       -4.972479   -1.398392    0.435704
     30          6           0        0.335793    1.789979    0.163553
     31          6           0       -0.151912    2.126260   -1.111322
     32          6           0       -0.562152    1.703684    1.238513
     33          6           0       -1.508064    2.360762   -1.308906
     34          1           0        0.551512    2.192584   -1.934174
     35          6           0       -1.922581    1.933380    1.038083
     36          1           0       -0.210412    1.435119    2.228133
     37          6           0       -2.397359    2.258132   -0.233613
     38          1           0       -1.876758    2.614901   -2.297804
     39          1           0       -2.612881    1.843333    1.870299
     40          1           0       -3.458570    2.425814   -0.389234
 ---------------------------------------------------------------------
 Rotational constants (GHZ):           0.4970317           0.2618455           0.2147225
 Leave Link  202 at Fri Jun 14 09:25:49 2019, MaxMem=   104857600 cpu:               4.2 elap:               0.1
 (Enter /project/6004141/group/g16/g16/l301.exe)
 Standard basis: 6-31G(d,p) (6D, 7F)
 Ernie: Thresh=  0.10000D-02 Tol=  0.10000D-05 Strict=F.
 There are   400 symmetry adapted cartesian basis functions of A   symmetry.
 There are   400 symmetry adapted basis functions of A   symmetry.
   400 basis functions,   700 primitive gaussians,   400 cartesian basis functions
    73 alpha electrons       73 beta electrons
       nuclear repulsion energy      1570.5520442434 Hartrees.
 IExCor=  402 DFT=T Ex+Corr=B3LYP ExCW=0 ScaHFX=  0.200000
 ScaDFX=  0.800000  0.720000  1.000000  0.810000 ScalE2=  1.000000  1.000000
 IRadAn=      5 IRanWt=     -1 IRanGd=            0 ICorTp=0 IEmpDi=131
 NAtoms=   40 NActive=   40 NUniq=   40 SFac= 1.00D+00 NAtFMM=   60 NAOKFM=F Big=F
 Integral buffers will be    131072 words long.
 Raffenetti 2 integral format.
 Two-electron integral symmetry is turned on.
 R6Disp:  Grimme-D3 Dispersion energy=       -0.0479907269 Hartrees.
 Nuclear repulsion after empirical dispersion term =     1570.5040535165 Hartrees.
 Force inversion solution in PCM.
 ------------------------------------------------------------------------------
 Polarizable Continuum Model (PCM)
 =================================
 Model                : PCM.
 Atomic radii         : UFF (Universal Force Field).
 Polarization charges : Total charges.
 Charge compensation  : None.
 Solution method      : Matrix inversion.
 Cavity type          : Scaled VdW (van der Waals Surface) (Alpha=1.100).
 Cavity algorithm     : GePol (No added spheres)
                        Default sphere list used, NSphG=   40.
                        Lebedev-Laikov grids with approx.  5.0 points / Ang**2.
                        Smoothing algorithm: York/Karplus (Gamma=1.0000).
                        Polarization charges: spherical gaussians, with
                                              point-specific exponents (IZeta= 3).
                        Self-potential: point-specific (ISelfS= 7).
                        Self-field    : sphere-specific E.n sum rule (ISelfD= 2).
 1st derivatives      : Analytical E(r).r(x)/FMM algorithm (CHGder, D1EAlg=3).
                        Cavity 1st derivative terms included.
 2nd derivatives      : Analytical E(r).r(xy)/FMM algorithm (CHGder, D2EAlg=3).
                        Cavity 2nd derivative terms included.
 Solvent              : Acetonitrile, Eps=  35.688000 Eps(inf)=   1.806874
 ------------------------------------------------------------------------------
 GePol: Number of generator spheres                  =      40
 GePol: Total number of spheres                      =      40
 GePol: Number of exposed spheres                    =      40 (100.00%)
 GePol: Number of points                             =    2729
 GePol: Average weight of points                     =       0.13
 GePol: Minimum weight of points                     =   0.45D-10
 GePol: Maximum weight of points                     =    0.20577
 GePol: Number of points with low weight             =     210
 GePol: Fraction of low-weight points (<1% of avg)   =       7.70%
 GePol: Cavity surface area                          =    347.345 Ang**2
 GePol: Cavity volume                                =    412.341 Ang**3
 Leave Link  301 at Fri Jun 14 09:25:50 2019, MaxMem=   104857600 cpu:              23.9 elap:               0.7
 (Enter /project/6004141/group/g16/g16/l302.exe)
 NPDir=0 NMtPBC=     1 NCelOv=     1 NCel=       1 NClECP=     1 NCelD=      1
         NCelK=      1 NCelE2=     1 NClLst=     1 CellRange=     0.0.
 One-electron integrals computed using PRISM.
 One-electron integral symmetry used in STVInt
 PrsmSu:  requested number of processors reduced to:  27 ShMem   1 Linda.
 NBasis=   400 RedAO= T EigKep=  4.63D-04  NBF=   400
 NBsUse=   400 1.00D-06 EigRej= -1.00D+00 NBFU=   400
 Precomputing XC quadrature grid using
 IXCGrd= 4 IRadAn=           5 IRanWt=          -1 IRanGd=           0 AccXCQ= 0.00D+00.
 Generated NRdTot=       0 NPtTot=           0 NUsed=           0 NTot=          32
 NSgBfM=   399   398   398   398   399 MxSgAt=    40 MxSgA2=    40.
 Leave Link  302 at Fri Jun 14 09:25:51 2019, MaxMem=   104857600 cpu:              22.5 elap:               0.6
 (Enter /project/6004141/group/g16/g16/l303.exe)
 DipDrv:  MaxL=1.
 Leave Link  303 at Fri Jun 14 09:25:52 2019, MaxMem=   104857600 cpu:               4.3 elap:               0.2
 (Enter /project/6004141/group/g16/g16/l401.exe)
 ExpMin= 1.61D-01 ExpMax= 5.48D+03 ExpMxC= 8.25D+02 IAcc=3 IRadAn=         5 AccDes= 0.00D+00
 Harris functional with IExCor=  402 and IRadAn=       5 diagonalized for initial guess.
 HarFok:  IExCor=  402 AccDes= 0.00D+00 IRadAn=         5 IDoV= 1 UseB2=F ITyADJ=14
 ICtDFT=  3500011 ScaDFX=  1.000000  1.000000  1.000000  1.000000
 FoFCou: FMM=F IPFlag=           0 FMFlag=      100000 FMFlg1=           0
         NFxFlg=           0 DoJE=T BraDBF=F KetDBF=T FulRan=T
         wScrn=  0.000000 ICntrl=       500 IOpCl=  0 I1Cent=   200000004 NGrid=           0
         NMat0=    1 NMatS0=      1 NMatT0=    0 NMatD0=    1 NMtDS0=    0 NMtDT0=    0
 Petite list used in FoFCou.
 Harris En= -881.799540284834    
 JPrj=0 DoOrth=F DoCkMO=F.
 Leave Link  401 at Fri Jun 14 09:25:53 2019, MaxMem=   104857600 cpu:              39.2 elap:               1.0
 (Enter /project/6004141/group/g16/g16/l502.exe)
 Integral symmetry usage will be decided dynamically.
 Closed shell SCF:
 Using DIIS extrapolation, IDIIS=  1040.
 NGot=   104857600 LenX=   104517248 LenY=   104356807
 Requested convergence on RMS density matrix=1.00D-08 within 128 cycles.
 Requested convergence on MAX density matrix=1.00D-06.
 Requested convergence on             energy=1.00D-06.
 No special actions if energy rises.
 Fock matrices will be formed incrementally for  20 cycles.

 Cycle   1  Pass 1  IDiag  1:
 FoFJK:  IHMeth= 1 ICntrl=       0 DoSepK=F KAlg= 0 I1Cent=           0 FoldK=F
 IRaf= 800000000 NMat=       1 IRICut=       1 DoRegI=T DoRafI=F ISym2E= 0 IDoP0=0 IntGTp=1.
 FoFCou: FMM=F IPFlag=           0 FMFlag=      100000 FMFlg1=           0
         NFxFlg=           0 DoJE=F BraDBF=F KetDBF=F FulRan=T
         wScrn=  0.000000 ICntrl=         0 IOpCl=  0 I1Cent=           0 NGrid=           0
         NMat0=    1 NMatS0=      1 NMatT0=    0 NMatD0=    1 NMtDS0=    0 NMtDT0=    0
 Symmetry not used in FoFCou.
 CoulSu:  requested number of processors reduced to:  39 ShMem   1 Linda.
 Inv3:  Mode=1 IEnd=    22342323.
 Iteration    1 A*A^-1 deviation from unit magnitude is 3.55D-15 for     71.
 Iteration    1 A*A^-1 deviation from orthogonality  is 2.64D-15 for   1725    424.
 Iteration    1 A^-1*A deviation from unit magnitude is 3.55D-15 for    760.
 Iteration    1 A^-1*A deviation from orthogonality  is 3.46D-14 for   2256   1890.
 CoulSu:  requested number of processors reduced to:  39 ShMem   1 Linda.
 CoulSu:  requested number of processors reduced to:  39 ShMem   1 Linda.
 E= -881.256795843704    
 DIIS: error= 2.16D-02 at cycle   1 NSaved=   1.
 NSaved= 1 IEnMin= 1 EnMin= -881.256795843704     IErMin= 1 ErrMin= 2.16D-02
 ErrMax= 2.16D-02  0.00D+00 EMaxC= 1.00D-01 BMatC= 5.19D-01 BMatP= 5.19D-01
 IDIUse=3 WtCom= 7.84D-01 WtEn= 2.16D-01
 Coeff-Com:  0.100D+01
 Coeff-En:   0.100D+01
 Coeff:      0.100D+01
 Gap=     0.134 Goal=   None    Shift=    0.000
 GapD=    0.134 DampG=1.000 DampE=0.500 DampFc=0.5000 IDamp=-1.
 Damping current iteration by 5.00D-01
 RMSDP=3.80D-03 MaxDP=1.55D-01              OVMax= 1.80D-01

 Cycle   2  Pass 1  IDiag  1:
 RMSU=  1.86D-03    CP:  9.77D-01
 E= -881.472578701404     Delta-E=       -0.215782857700 Rises=F Damp=T
 DIIS: error= 7.13D-03 at cycle   2 NSaved=   2.
 NSaved= 2 IEnMin= 2 EnMin= -881.472578701404     IErMin= 2 ErrMin= 7.13D-03
 ErrMax= 7.13D-03  0.00D+00 EMaxC= 1.00D-01 BMatC= 4.23D-02 BMatP= 5.19D-01
 IDIUse=3 WtCom= 9.29D-01 WtEn= 7.13D-02
 Coeff-Com:  0.986D-01 0.901D+00
 Coeff-En:   0.130D+00 0.870D+00
 Coeff:      0.101D+00 0.899D+00
 Gap=     0.173 Goal=   None    Shift=    0.000
 RMSDP=9.94D-04 MaxDP=4.64D-02 DE=-2.16D-01 OVMax= 1.60D-01

 Cycle   3  Pass 1  IDiag  1:
 RMSU=  9.64D-04    CP:  9.68D-01  8.99D-01
 E= -881.717765361502     Delta-E=       -0.245186660098 Rises=F Damp=F
 DIIS: error= 8.08D-03 at cycle   3 NSaved=   3.
 NSaved= 3 IEnMin= 3 EnMin= -881.717765361502     IErMin= 2 ErrMin= 7.13D-03
 ErrMax= 8.08D-03  0.00D+00 EMaxC= 1.00D-01 BMatC= 4.88D-02 BMatP= 4.23D-02
 IDIUse=3 WtCom= 1.00D-01 WtEn= 9.00D-01
 Coeff-Com:  0.575D-03 0.521D+00 0.478D+00
 Coeff-En:   0.000D+00 0.000D+00 0.100D+01
 Coeff:      0.576D-04 0.522D-01 0.948D+00
 Gap=     0.148 Goal=   None    Shift=    0.000
 RMSDP=1.49D-03 MaxDP=1.00D-01 DE=-2.45D-01 OVMax= 1.47D-01

 Cycle   4  Pass 1  IDiag  1:
 RMSU=  9.54D-04    CP:  9.72D-01  1.17D+00 -6.74D-02
 E= -881.590445169597     Delta-E=        0.127320191905 Rises=F Damp=F
 DIIS: error= 1.79D-02 at cycle   4 NSaved=   4.
 NSaved= 4 IEnMin= 3 EnMin= -881.717765361502     IErMin= 2 ErrMin= 7.13D-03
 ErrMax= 1.79D-02  0.00D+00 EMaxC= 1.00D-01 BMatC= 2.10D-01 BMatP= 4.23D-02
 IDIUse=2 WtCom= 0.00D+00 WtEn= 1.00D+00
 Coeff-En:   0.000D+00 0.000D+00 0.750D+00 0.250D+00
 Coeff:      0.000D+00 0.000D+00 0.750D+00 0.250D+00
 Gap=     0.164 Goal=   None    Shift=    0.000
 RMSDP=8.11D-04 MaxDP=5.33D-02 DE= 1.27D-01 OVMax= 7.44D-02

 Cycle   5  Pass 1  IDiag  1:
 RMSU=  1.23D-04    CP:  9.70D-01  9.91D-01  4.80D-01  4.72D-01
 E= -881.749306409703     Delta-E=       -0.158861240106 Rises=F Damp=F
 DIIS: error= 4.08D-03 at cycle   5 NSaved=   5.
 NSaved= 5 IEnMin= 5 EnMin= -881.749306409703     IErMin= 5 ErrMin= 4.08D-03
 ErrMax= 4.08D-03  0.00D+00 EMaxC= 1.00D-01 BMatC= 1.14D-02 BMatP= 4.23D-02
 IDIUse=3 WtCom= 9.59D-01 WtEn= 4.08D-02
 Coeff-Com:  0.366D-03 0.805D-02 0.285D+00-0.384D-01 0.745D+00
 Coeff-En:   0.000D+00 0.000D+00 0.234D+00 0.000D+00 0.766D+00
 Coeff:      0.351D-03 0.772D-02 0.283D+00-0.369D-01 0.746D+00
 Gap=     0.166 Goal=   None    Shift=    0.000
 RMSDP=2.40D-04 MaxDP=1.45D-02 DE=-1.59D-01 OVMax= 2.13D-02

 Cycle   6  Pass 1  IDiag  1:
 RMSU=  4.52D-05    CP:  9.70D-01  9.59D-01  6.51D-01  3.12D-01  6.96D-01
 E= -881.758646809713     Delta-E=       -0.009340400010 Rises=F Damp=F
 DIIS: error= 2.44D-04 at cycle   6 NSaved=   6.
 NSaved= 6 IEnMin= 6 EnMin= -881.758646809713     IErMin= 6 ErrMin= 2.44D-04
 ErrMax= 2.44D-04  0.00D+00 EMaxC= 1.00D-01 BMatC= 6.04D-05 BMatP= 1.14D-02
 IDIUse=3 WtCom= 9.98D-01 WtEn= 2.44D-03
 Coeff-Com: -0.136D-02 0.303D-02 0.117D+00-0.419D-01 0.424D+00 0.499D+00
 Coeff-En:   0.000D+00 0.000D+00 0.000D+00 0.000D+00 0.000D+00 0.100D+01
 Coeff:     -0.135D-02 0.302D-02 0.117D+00-0.418D-01 0.423D+00 0.500D+00
 Gap=     0.165 Goal=   None    Shift=    0.000
 RMSDP=2.47D-05 MaxDP=1.24D-03 DE=-9.34D-03 OVMax= 2.57D-03

 Cycle   7  Pass 1  IDiag  1:
 RMSU=  8.83D-06    CP:  9.69D-01  9.60D-01  6.47D-01  3.18D-01  7.88D-01
                    CP:  5.81D-01
 E= -881.758708304437     Delta-E=       -0.000061494724 Rises=F Damp=F
 DIIS: error= 6.78D-05 at cycle   7 NSaved=   7.
 NSaved= 7 IEnMin= 7 EnMin= -881.758708304437     IErMin= 7 ErrMin= 6.78D-05
 ErrMax= 6.78D-05  0.00D+00 EMaxC= 1.00D-01 BMatC= 3.19D-06 BMatP= 6.04D-05
 IDIUse=1 WtCom= 1.00D+00 WtEn= 0.00D+00
 Coeff-Com: -0.781D-03 0.135D-02 0.491D-01-0.224D-01 0.196D+00 0.266D+00
 Coeff-Com:  0.511D+00
 Coeff:     -0.781D-03 0.135D-02 0.491D-01-0.224D-01 0.196D+00 0.266D+00
 Coeff:      0.511D+00
 Gap=     0.165 Goal=   None    Shift=    0.000
 RMSDP=5.30D-06 MaxDP=3.36D-04 DE=-6.15D-05 OVMax= 6.29D-04

 Cycle   8  Pass 1  IDiag  1:
 RMSU=  3.01D-06    CP:  9.69D-01  9.59D-01  6.48D-01  3.17D-01  7.86D-01
                    CP:  6.13D-01  5.70D-01
 E= -881.758711323537     Delta-E=       -0.000003019100 Rises=F Damp=F
 DIIS: error= 1.84D-05 at cycle   8 NSaved=   8.
 NSaved= 8 IEnMin= 8 EnMin= -881.758711323537     IErMin= 8 ErrMin= 1.84D-05
 ErrMax= 1.84D-05  0.00D+00 EMaxC= 1.00D-01 BMatC= 3.33D-07 BMatP= 3.19D-06
 IDIUse=1 WtCom= 1.00D+00 WtEn= 0.00D+00
 Coeff-Com: -0.175D-03 0.232D-03 0.970D-02-0.606D-02 0.436D-01 0.635D-01
 Coeff-Com:  0.266D+00 0.623D+00
 Coeff:     -0.175D-03 0.232D-03 0.970D-02-0.606D-02 0.436D-01 0.635D-01
 Coeff:      0.266D+00 0.623D+00
 Gap=     0.165 Goal=   None    Shift=    0.000
 RMSDP=1.62D-06 MaxDP=1.02D-04 DE=-3.02D-06 OVMax= 1.39D-04

 Cycle   9  Pass 1  IDiag  1:
 RMSU=  8.24D-07    CP:  9.69D-01  9.59D-01  6.49D-01  3.17D-01  7.89D-01
                    CP:  6.08D-01  6.51D-01  6.45D-01
 E= -881.758711611198     Delta-E=       -0.000000287661 Rises=F Damp=F
 DIIS: error= 7.41D-06 at cycle   9 NSaved=   9.
 NSaved= 9 IEnMin= 9 EnMin= -881.758711611198     IErMin= 9 ErrMin= 7.41D-06
 ErrMax= 7.41D-06  0.00D+00 EMaxC= 1.00D-01 BMatC= 3.40D-08 BMatP= 3.33D-07
 IDIUse=1 WtCom= 1.00D+00 WtEn= 0.00D+00
 Coeff-Com: -0.424D-04 0.192D-04 0.270D-02-0.211D-02 0.131D-01 0.193D-01
 Coeff-Com:  0.119D+00 0.352D+00 0.496D+00
 Coeff:     -0.424D-04 0.192D-04 0.270D-02-0.211D-02 0.131D-01 0.193D-01
 Coeff:      0.119D+00 0.352D+00 0.496D+00
 Gap=     0.165 Goal=   None    Shift=    0.000
 RMSDP=5.00D-07 MaxDP=3.59D-05 DE=-2.88D-07 OVMax= 4.53D-05

 Cycle  10  Pass 1  IDiag  1:
 RMSU=  3.18D-07    CP:  9.69D-01  9.59D-01  6.49D-01  3.17D-01  7.89D-01
                    CP:  6.08D-01  6.53D-01  6.92D-01  5.86D-01
 E= -881.758711637805     Delta-E=       -0.000000026607 Rises=F Damp=F
 DIIS: error= 2.32D-06 at cycle  10 NSaved=  10.
 NSaved=10 IEnMin=10 EnMin= -881.758711637805     IErMin=10 ErrMin= 2.32D-06
 ErrMax= 2.32D-06  0.00D+00 EMaxC= 1.00D-01 BMatC= 4.12D-09 BMatP= 3.40D-08
 IDIUse=1 WtCom= 1.00D+00 WtEn= 0.00D+00
 Coeff-Com: -0.113D-05-0.266D-04 0.491D-03-0.519D-03 0.263D-02 0.378D-02
 Coeff-Com:  0.364D-01 0.127D+00 0.298D+00 0.532D+00
 Coeff:     -0.113D-05-0.266D-04 0.491D-03-0.519D-03 0.263D-02 0.378D-02
 Coeff:      0.364D-01 0.127D+00 0.298D+00 0.532D+00
 Gap=     0.165 Goal=   None    Shift=    0.000
 RMSDP=1.80D-07 MaxDP=1.36D-05 DE=-2.66D-08 OVMax= 1.62D-05

 Cycle  11  Pass 1  IDiag  1:
 RMSU=  1.05D-07    CP:  9.69D-01  9.59D-01  6.49D-01  3.17D-01  7.89D-01
                    CP:  6.08D-01  6.54D-01  6.98D-01  6.65D-01  6.12D-01
 E= -881.758711640711     Delta-E=       -0.000000002906 Rises=F Damp=F
 DIIS: error= 8.04D-07 at cycle  11 NSaved=  11.
 NSaved=11 IEnMin=11 EnMin= -881.758711640711     IErMin=11 ErrMin= 8.04D-07
 ErrMax= 8.04D-07  0.00D+00 EMaxC= 1.00D-01 BMatC= 4.60D-10 BMatP= 4.12D-09
 IDIUse=1 WtCom= 1.00D+00 WtEn= 0.00D+00
 Coeff-Com:  0.653D-05-0.218D-04-0.128D-03 0.946D-05-0.453D-03-0.622D-03
 Coeff-Com:  0.457D-02 0.264D-01 0.113D+00 0.314D+00 0.544D+00
 Coeff:      0.653D-05-0.218D-04-0.128D-03 0.946D-05-0.453D-03-0.622D-03
 Coeff:      0.457D-02 0.264D-01 0.113D+00 0.314D+00 0.544D+00
 Gap=     0.165 Goal=   None    Shift=    0.000
 RMSDP=5.67D-08 MaxDP=3.43D-06 DE=-2.91D-09 OVMax= 4.42D-06

 Cycle  12  Pass 1  IDiag  1:
 RMSU=  3.38D-08    CP:  9.69D-01  9.59D-01  6.49D-01  3.17D-01  7.89D-01
                    CP:  6.08D-01  6.54D-01  6.98D-01  6.70D-01  6.86D-01
                    CP:  6.57D-01
 E= -881.758711641093     Delta-E=       -0.000000000382 Rises=F Damp=F
 DIIS: error= 2.71D-07 at cycle  12 NSaved=  12.
 NSaved=12 IEnMin=12 EnMin= -881.758711641093     IErMin=12 ErrMin= 2.71D-07
 ErrMax= 2.71D-07  0.00D+00 EMaxC= 1.00D-01 BMatC= 2.72D-11 BMatP= 4.60D-10
 IDIUse=1 WtCom= 1.00D+00 WtEn= 0.00D+00
 Coeff-Com:  0.269D-05-0.779D-05-0.824D-04 0.349D-04-0.338D-03-0.390D-03
 Coeff-Com: -0.291D-03 0.373D-02 0.333D-01 0.108D+00 0.256D+00 0.599D+00
 Coeff:      0.269D-05-0.779D-05-0.824D-04 0.349D-04-0.338D-03-0.390D-03
 Coeff:     -0.291D-03 0.373D-02 0.333D-01 0.108D+00 0.256D+00 0.599D+00
 Gap=     0.165 Goal=   None    Shift=    0.000
 RMSDP=1.51D-08 MaxDP=6.42D-07 DE=-3.82D-10 OVMax= 1.75D-06

 Cycle  13  Pass 1  IDiag  1:
 RMSU=  9.53D-09    CP:  9.69D-01  9.59D-01  6.49D-01  3.17D-01  7.89D-01
                    CP:  6.08D-01  6.54D-01  6.98D-01  6.72D-01  6.89D-01
                    CP:  6.90D-01  6.99D-01
 E= -881.758711641113     Delta-E=       -0.000000000020 Rises=F Damp=F
 DIIS: error= 8.78D-08 at cycle  13 NSaved=  13.
 NSaved=13 IEnMin=13 EnMin= -881.758711641113     IErMin=13 ErrMin= 8.78D-08
 ErrMax= 8.78D-08  0.00D+00 EMaxC= 1.00D-01 BMatC= 3.26D-12 BMatP= 2.72D-11
 IDIUse=1 WtCom= 1.00D+00 WtEn= 0.00D+00
 Coeff-Com:  0.713D-06-0.202D-05-0.341D-04 0.187D-04-0.142D-03-0.118D-03
 Coeff-Com: -0.596D-03-0.465D-03 0.708D-02 0.246D-01 0.718D-01 0.293D+00
 Coeff-Com:  0.605D+00
 Coeff:      0.713D-06-0.202D-05-0.341D-04 0.187D-04-0.142D-03-0.118D-03
 Coeff:     -0.596D-03-0.465D-03 0.708D-02 0.246D-01 0.718D-01 0.293D+00
 Coeff:      0.605D+00
 Gap=     0.165 Goal=   None    Shift=    0.000
 RMSDP=5.44D-09 MaxDP=2.81D-07 DE=-2.02D-11 OVMax= 6.27D-07

 Error on total polarization charges =  0.00980
 SCF Done:  E(RB3LYP) =  -881.758711641     A.U. after   13 cycles
            NFock= 13  Conv=0.54D-08     -V/T= 2.0096
 KE= 8.733729564767D+02 PE=-5.190425729845D+03 EE= 1.864790008210D+03
 Leave Link  502 at Fri Jun 14 09:26:20 2019, MaxMem=   104857600 cpu:            1002.9 elap:              26.3
 (Enter /project/6004141/group/g16/g16/l801.exe)
 DoSCS=F DFT=T ScalE2(SS,OS)=  1.000000  1.000000
 Range of M.O.s used for correlation:     1   400
 NBasis=   400 NAE=    73 NBE=    73 NFC=     0 NFV=     0
 NROrb=    400 NOA=    73 NOB=    73 NVA=   327 NVB=   327
 Leave Link  801 at Fri Jun 14 09:26:20 2019, MaxMem=   104857600 cpu:               5.6 elap:               0.2
 (Enter /project/6004141/group/g16/g16/l1101.exe)
 Using compressed storage, NAtomX=    40.
 Will process     41 centers per pass.
 PrsmSu:  requested number of processors reduced to:  25 ShMem   1 Linda.
 PrsmSu:  requested number of processors reduced to:   8 ShMem   1 Linda.
 R6Disp: Adding Grimme-D3 dispersion energy 1st derivatives to the gradient.
 Leave Link 1101 at Fri Jun 14 09:26:21 2019, MaxMem=   104857600 cpu:              16.7 elap:               0.6
 (Enter /project/6004141/group/g16/g16/l1102.exe)
 Symmetrizing basis deriv contribution to polar:
 IMax=3 JMax=2 DiffMx= 0.00D+00
 Leave Link 1102 at Fri Jun 14 09:26:22 2019, MaxMem=   104857600 cpu:               7.1 elap:               0.2
 (Enter /project/6004141/group/g16/g16/l1110.exe)
 Forming Gx(P) for the SCF density, NAtomX=    40.
 Integral derivatives from FoFJK, PRISM(SPDF).
 Do as many integral derivatives as possible in FoFJK.
 G2DrvN: MDV=     104854584.
 G2DrvN: will do     1 centers at a time, making   41 passes.
 Estimated number of processors is:   38
 G2DrvN:  IPasSy=1 do centers    0 through    0.
 Calling FoFCou, ICntrl=  3107 FMM=F I1Cent=   0 AccDes= 0.00D+00.
 FoFJK:  IHMeth= 1 ICntrl=    3107 DoSepK=F KAlg= 0 I1Cent=           0 FoldK=F
 IRaf=         0 NMat=       1 IRICut=       1 DoRegI=T DoRafI=F ISym2E= 0 IDoP0=0 IntGTp=1.
 FoFCou: FMM=F IPFlag=           0 FMFlag=      100000 FMFlg1=           0
         NFxFlg=           0 DoJE=F BraDBF=F KetDBF=F FulRan=T
         wScrn=  0.000000 ICntrl=      3107 IOpCl=  0 I1Cent=           0 NGrid=           0
         NMat0=    1 NMatS0=      1 NMatT0=    0 NMatD0=    1 NMtDS0=    0 NMtDT0=    0
 Symmetry not used in FoFCou.
 G2DrvN:  IPasSy=1 do centers    1 through    1.
 Calling FoFCou, ICntrl=  3107 FMM=F I1Cent=   0 AccDes= 0.00D+00.
 CoulSu:  requested number of processors reduced to:  37 ShMem   1 Linda.
 G2DrvN:  IPasSy=1 do centers    2 through    2.
 Calling FoFCou, ICntrl=  3107 FMM=F I1Cent=   0 AccDes= 0.00D+00.
 CoulSu:  requested number of processors reduced to:  37 ShMem   1 Linda.
 G2DrvN:  IPasSy=1 do centers    3 through    3.
 Calling FoFCou, ICntrl=  3107 FMM=F I1Cent=   0 AccDes= 0.00D+00.
 CoulSu:  requested number of processors reduced to:  37 ShMem   1 Linda.
 G2DrvN:  IPasSy=1 do centers    4 through    4.
 Calling FoFCou, ICntrl=  3107 FMM=F I1Cent=   0 AccDes= 0.00D+00.
 CoulSu:  requested number of processors reduced to:  37 ShMem   1 Linda.
 G2DrvN:  IPasSy=1 do centers    5 through    5.
 Calling FoFCou, ICntrl=  3107 FMM=F I1Cent=   0 AccDes= 0.00D+00.
 CoulSu:  requested number of processors reduced to:  37 ShMem   1 Linda.
 G2DrvN:  IPasSy=1 do centers    6 through    6.
 Calling FoFCou, ICntrl=  3107 FMM=F I1Cent=   0 AccDes= 0.00D+00.
 CoulSu:  requested number of processors reduced to:  37 ShMem   1 Linda.
 G2DrvN:  IPasSy=1 do centers    7 through    7.
 Calling FoFCou, ICntrl=  3107 FMM=F I1Cent=   0 AccDes= 0.00D+00.
 CoulSu:  requested number of processors reduced to:  37 ShMem   1 Linda.
 G2DrvN:  IPasSy=1 do centers    8 through    8.
 Calling FoFCou, ICntrl=  3107 FMM=F I1Cent=   0 AccDes= 0.00D+00.
 CoulSu:  requested number of processors reduced to:  37 ShMem   1 Linda.
 G2DrvN:  IPasSy=1 do centers    9 through    9.
 Calling FoFCou, ICntrl=  3107 FMM=F I1Cent=   0 AccDes= 0.00D+00.
 CoulSu:  requested number of processors reduced to:  37 ShMem   1 Linda.
 G2DrvN:  IPasSy=1 do centers   10 through   10.
 Calling FoFCou, ICntrl=  3107 FMM=F I1Cent=   0 AccDes= 0.00D+00.
 CoulSu:  requested number of processors reduced to:  37 ShMem   1 Linda.
 G2DrvN:  IPasSy=1 do centers   11 through   11.
 Calling FoFCou, ICntrl=  3107 FMM=F I1Cent=   0 AccDes= 0.00D+00.
 CoulSu:  requested number of processors reduced to:  37 ShMem   1 Linda.
 G2DrvN:  IPasSy=1 do centers   12 through   12.
 Calling FoFCou, ICntrl=  3107 FMM=F I1Cent=   0 AccDes= 0.00D+00.
 CoulSu:  requested number of processors reduced to:  37 ShMem   1 Linda.
 G2DrvN:  IPasSy=1 do centers   13 through   13.
 Calling FoFCou, ICntrl=  3107 FMM=F I1Cent=   0 AccDes= 0.00D+00.
 CoulSu:  requested number of processors reduced to:  37 ShMem   1 Linda.
 G2DrvN:  IPasSy=1 do centers   14 through   14.
 Calling FoFCou, ICntrl=  3107 FMM=F I1Cent=   0 AccDes= 0.00D+00.
 CoulSu:  requested number of processors reduced to:  37 ShMem   1 Linda.
 G2DrvN:  IPasSy=1 do centers   15 through   15.
 Calling FoFCou, ICntrl=  3107 FMM=F I1Cent=   0 AccDes= 0.00D+00.
 CoulSu:  requested number of processors reduced to:  37 ShMem   1 Linda.
 G2DrvN:  IPasSy=1 do centers   16 through   16.
 Calling FoFCou, ICntrl=  3107 FMM=F I1Cent=   0 AccDes= 0.00D+00.
 CoulSu:  requested number of processors reduced to:  37 ShMem   1 Linda.
 G2DrvN:  IPasSy=1 do centers   17 through   17.
 Calling FoFCou, ICntrl=  3107 FMM=F I1Cent=   0 AccDes= 0.00D+00.
 CoulSu:  requested number of processors reduced to:  37 ShMem   1 Linda.
 G2DrvN:  IPasSy=1 do centers   18 through   18.
 Calling FoFCou, ICntrl=  3107 FMM=F I1Cent=   0 AccDes= 0.00D+00.
 CoulSu:  requested number of processors reduced to:  37 ShMem   1 Linda.
 G2DrvN:  IPasSy=1 do centers   19 through   19.
 Calling FoFCou, ICntrl=  3107 FMM=F I1Cent=   0 AccDes= 0.00D+00.
 CoulSu:  requested number of processors reduced to:  37 ShMem   1 Linda.
 G2DrvN:  IPasSy=1 do centers   20 through   20.
 Calling FoFCou, ICntrl=  3107 FMM=F I1Cent=   0 AccDes= 0.00D+00.
 CoulSu:  requested number of processors reduced to:  37 ShMem   1 Linda.
 G2DrvN:  IPasSy=1 do centers   21 through   21.
 Calling FoFCou, ICntrl=  3107 FMM=F I1Cent=   0 AccDes= 0.00D+00.
 CoulSu:  requested number of processors reduced to:  37 ShMem   1 Linda.
 G2DrvN:  IPasSy=1 do centers   22 through   22.
 Calling FoFCou, ICntrl=  3107 FMM=F I1Cent=   0 AccDes= 0.00D+00.
 CoulSu:  requested number of processors reduced to:  37 ShMem   1 Linda.
 G2DrvN:  IPasSy=1 do centers   23 through   23.
 Calling FoFCou, ICntrl=  3107 FMM=F I1Cent=   0 AccDes= 0.00D+00.
 CoulSu:  requested number of processors reduced to:  37 ShMem   1 Linda.
 G2DrvN:  IPasSy=1 do centers   24 through   24.
 Calling FoFCou, ICntrl=  3107 FMM=F I1Cent=   0 AccDes= 0.00D+00.
 CoulSu:  requested number of processors reduced to:  37 ShMem   1 Linda.
 G2DrvN:  IPasSy=1 do centers   25 through   25.
 Calling FoFCou, ICntrl=  3107 FMM=F I1Cent=   0 AccDes= 0.00D+00.
 CoulSu:  requested number of processors reduced to:  37 ShMem   1 Linda.
 G2DrvN:  IPasSy=1 do centers   26 through   26.
 Calling FoFCou, ICntrl=  3107 FMM=F I1Cent=   0 AccDes= 0.00D+00.
 CoulSu:  requested number of processors reduced to:  37 ShMem   1 Linda.
 G2DrvN:  IPasSy=1 do centers   27 through   27.
 Calling FoFCou, ICntrl=  3107 FMM=F I1Cent=   0 AccDes= 0.00D+00.
 CoulSu:  requested number of processors reduced to:  37 ShMem   1 Linda.
 G2DrvN:  IPasSy=1 do centers   28 through   28.
 Calling FoFCou, ICntrl=  3107 FMM=F I1Cent=   0 AccDes= 0.00D+00.
 CoulSu:  requested number of processors reduced to:  37 ShMem   1 Linda.
 G2DrvN:  IPasSy=1 do centers   29 through   29.
 Calling FoFCou, ICntrl=  3107 FMM=F I1Cent=   0 AccDes= 0.00D+00.
 CoulSu:  requested number of processors reduced to:  37 ShMem   1 Linda.
 G2DrvN:  IPasSy=1 do centers   30 through   30.
 Calling FoFCou, ICntrl=  3107 FMM=F I1Cent=   0 AccDes= 0.00D+00.
 CoulSu:  requested number of processors reduced to:  37 ShMem   1 Linda.
 G2DrvN:  IPasSy=1 do centers   31 through   31.
 Calling FoFCou, ICntrl=  3107 FMM=F I1Cent=   0 AccDes= 0.00D+00.
 CoulSu:  requested number of processors reduced to:  37 ShMem   1 Linda.
 G2DrvN:  IPasSy=1 do centers   32 through   32.
 Calling FoFCou, ICntrl=  3107 FMM=F I1Cent=   0 AccDes= 0.00D+00.
 CoulSu:  requested number of processors reduced to:  37 ShMem   1 Linda.
 G2DrvN:  IPasSy=1 do centers   33 through   33.
 Calling FoFCou, ICntrl=  3107 FMM=F I1Cent=   0 AccDes= 0.00D+00.
 CoulSu:  requested number of processors reduced to:  37 ShMem   1 Linda.
 G2DrvN:  IPasSy=1 do centers   34 through   34.
 Calling FoFCou, ICntrl=  3107 FMM=F I1Cent=   0 AccDes= 0.00D+00.
 CoulSu:  requested number of processors reduced to:  37 ShMem   1 Linda.
 G2DrvN:  IPasSy=1 do centers   35 through   35.
 Calling FoFCou, ICntrl=  3107 FMM=F I1Cent=   0 AccDes= 0.00D+00.
 CoulSu:  requested number of processors reduced to:  37 ShMem   1 Linda.
 G2DrvN:  IPasSy=1 do centers   36 through   36.
 Calling FoFCou, ICntrl=  3107 FMM=F I1Cent=   0 AccDes= 0.00D+00.
 CoulSu:  requested number of processors reduced to:  37 ShMem   1 Linda.
 G2DrvN:  IPasSy=1 do centers   37 through   37.
 Calling FoFCou, ICntrl=  3107 FMM=F I1Cent=   0 AccDes= 0.00D+00.
 CoulSu:  requested number of processors reduced to:  37 ShMem   1 Linda.
 G2DrvN:  IPasSy=1 do centers   38 through   38.
 Calling FoFCou, ICntrl=  3107 FMM=F I1Cent=   0 AccDes= 0.00D+00.
 CoulSu:  requested number of processors reduced to:  37 ShMem   1 Linda.
 G2DrvN:  IPasSy=1 do centers   39 through   39.
 Calling FoFCou, ICntrl=  3107 FMM=F I1Cent=   0 AccDes= 0.00D+00.
 CoulSu:  requested number of processors reduced to:  37 ShMem   1 Linda.
 G2DrvN:  IPasSy=1 do centers   40 through   40.
 Calling FoFCou, ICntrl=  3107 FMM=F I1Cent=   0 AccDes= 0.00D+00.
 CoulSu:  requested number of processors reduced to:  37 ShMem   1 Linda.
 NEqPCM:  Using equilibrium solvation (IEInf=0, Eps=  35.6880, EpsInf=   1.8069)
 G2PCM: DoFxE=T DoFxN=T DoGrad=T DoDP/DQ/DG/TGxP=FFFF NFrqRd=   0 IEInf=0 SqF1=F DoCFld=F IF1Alg=4.
 GePol: Maximum number of non-zero 1st derivatives   =     187
 CoulSu:  requested number of processors reduced to:  30 ShMem   1 Linda.
 CoulSu:  requested number of processors reduced to:  38 ShMem   1 Linda.
 CoulSu:  requested number of processors reduced to:  29 ShMem   1 Linda.
 CoulSu:  requested number of processors reduced to:  30 ShMem   1 Linda.
 CoulSu:  requested number of processors reduced to:  34 ShMem   1 Linda.
 CoulSu:  requested number of processors reduced to:  30 ShMem   1 Linda.
 CoulSu:  requested number of processors reduced to:  34 ShMem   1 Linda.
 CoulSu:  requested number of processors reduced to:  30 ShMem   1 Linda.
 CoulSu:  requested number of processors reduced to:  34 ShMem   1 Linda.
 CoulSu:  requested number of processors reduced to:  30 ShMem   1 Linda.
 CoulSu:  requested number of processors reduced to:  34 ShMem   1 Linda.
 CoulSu:  requested number of processors reduced to:  30 ShMem   1 Linda.
 CoulSu:  requested number of processors reduced to:  34 ShMem   1 Linda.
 CoulSu:  requested number of processors reduced to:  30 ShMem   1 Linda.
 CoulSu:  requested number of processors reduced to:  34 ShMem   1 Linda.
 CoulSu:  requested number of processors reduced to:  30 ShMem   1 Linda.
 CoulSu:  requested number of processors reduced to:  34 ShMem   1 Linda.
 CoulSu:  requested number of processors reduced to:  30 ShMem   1 Linda.
 CoulSu:  requested number of processors reduced to:  34 ShMem   1 Linda.
 CoulSu:  requested number of processors reduced to:  30 ShMem   1 Linda.
 CoulSu:  requested number of processors reduced to:  34 ShMem   1 Linda.
 CoulSu:  requested number of processors reduced to:  30 ShMem   1 Linda.
 CoulSu:  requested number of processors reduced to:  34 ShMem   1 Linda.
 CoulSu:  requested number of processors reduced to:  30 ShMem   1 Linda.
 CoulSu:  requested number of processors reduced to:  34 ShMem   1 Linda.
 CoulSu:  requested number of processors reduced to:  30 ShMem   1 Linda.
 CoulSu:  requested number of processors reduced to:  34 ShMem   1 Linda.
 CoulSu:  requested number of processors reduced to:  30 ShMem   1 Linda.
 CoulSu:  requested number of processors reduced to:  34 ShMem   1 Linda.
 CoulSu:  requested number of processors reduced to:  30 ShMem   1 Linda.
 CoulSu:  requested number of processors reduced to:  39 ShMem   1 Linda.
 CoulSu:  requested number of processors reduced to:  27 ShMem   1 Linda.
 CoulSu:  requested number of processors reduced to:  28 ShMem   1 Linda.
 CoulSu:  requested number of processors reduced to:  27 ShMem   1 Linda.
 CoulSu:  requested number of processors reduced to:  28 ShMem   1 Linda.
 End of G2Drv F.D. properties file   721 does not exist.
 End of G2Drv F.D. properties file   722 does not exist.
 End of G2Drv F.D. properties file   788 does not exist.
 Leave Link 1110 at Fri Jun 14 09:28:51 2019, MaxMem=   104857600 cpu:            5777.9 elap:             148.5
 (Enter /project/6004141/group/g16/g16/l1002.exe)
 Minotr:  Closed shell wavefunction.
          IDoAtm=1111111111111111111111111111111111111111
 NEqPCM:  Using equilibrium solvation (IEInf=0, Eps=  35.6880, EpsInf=   1.8069)
          Direct CPHF calculation.
          Differentiating once with respect to electric field.
                with respect to dipole field.
          Differentiating once with respect to nuclear coordinates.
          Requested convergence is 1.0D-08 RMS, and 1.0D-07 maximum.
          Secondary convergence is 1.0D-12 RMS, and 1.0D-12 maximum.
          NewPWx=T KeepS1=F KeepF1=F KeepIn=T MapXYZ=F SortEE=F KeepMc=T.
        12012 words used for storage of precomputed grid.
 Two-electron integrals replicated using symmetry.
          MDV=     104857600 using IRadAn=       1.
          Solving linear equations simultaneously, MaxMat=     360.
 FoF2E skips out because all densities are zero.
 CalDSu exits because no D1Ps are significant.
 FoFJK:  IHMeth= 1 ICntrl=       0 DoSepK=F KAlg= 0 I1Cent=           0 FoldK=F
 IRaf= 760000000 NMat=       8 IRICut=       1 DoRegI=T DoRafI=F ISym2E= 2 IDoP0=0 IntGTp=1.
          There are   123 degrees of freedom in the 1st order CPHF.  IDoFFX=6 NUNeed=     3.
    123 vectors produced by pass  0 Test12= 2.39D-14 1.00D-09 XBig12= 3.17D+02 7.62D+00.
 AX will form     8 AO Fock derivatives at one time.
    121 vectors produced by pass  1 Test12= 2.39D-14 1.00D-09 XBig12= 5.42D+01 9.88D-01.
    120 vectors produced by pass  2 Test12= 2.39D-14 1.00D-09 XBig12= 3.77D-01 5.90D-02.
    120 vectors produced by pass  3 Test12= 2.39D-14 1.00D-09 XBig12= 1.29D-03 3.22D-03.
    120 vectors produced by pass  4 Test12= 2.39D-14 1.00D-09 XBig12= 2.01D-06 1.70D-04.
     89 vectors produced by pass  5 Test12= 2.39D-14 1.00D-09 XBig12= 1.85D-09 3.57D-06.
      9 vectors produced by pass  6 Test12= 2.39D-14 1.00D-09 XBig12= 1.58D-12 9.31D-08.
      3 vectors produced by pass  7 Test12= 2.39D-14 1.00D-09 XBig12= 1.62D-15 2.97D-09.
      2 vectors produced by pass  8 Test12= 2.39D-14 1.00D-09 XBig12= 5.77D-16 1.57D-09.
 InvSVY:  IOpt=1 It=  1 EMax= 1.78D-14
 Solved reduced A of dimension   707 with   123 vectors.
 FullF1:  Do perturbations      1 to       3.
 Isotropic polarizability for W=    0.000000      236.18 Bohr**3.
 End of Minotr F.D. properties file   721 does not exist.
 End of Minotr F.D. properties file   722 does not exist.
 End of Minotr F.D. properties file   788 does not exist.
 Leave Link 1002 at Fri Jun 14 09:32:44 2019, MaxMem=   104857600 cpu:            9268.6 elap:             232.5
 (Enter /project/6004141/group/g16/g16/l601.exe)
 Copying SCF densities to generalized density rwf, IOpCl= 0 IROHF=0.

 **********************************************************************

            Population analysis using the SCF density.

 **********************************************************************

 Orbital symmetries:
       Occupied  (A) (A) (A) (A) (A) (A) (A) (A) (A) (A) (A) (A)
                 (A) (A) (A) (A) (A) (A) (A) (A) (A) (A) (A) (A)
                 (A) (A) (A) (A) (A) (A) (A) (A) (A) (A) (A) (A)
                 (A) (A) (A) (A) (A) (A) (A) (A) (A) (A) (A) (A)
                 (A) (A) (A) (A) (A) (A) (A) (A) (A) (A) (A) (A)
                 (A) (A) (A) (A) (A) (A) (A) (A) (A) (A) (A) (A)
                 (A)
       Virtual   (A) (A) (A) (A) (A) (A) (A) (A) (A) (A) (A) (A)
                 (A) (A) (A) (A) (A) (A) (A) (A) (A) (A) (A) (A)
                 (A) (A) (A) (A) (A) (A) (A) (A) (A) (A) (A) (A)
                 (A) (A) (A) (A) (A) (A) (A) (A) (A) (A) (A) (A)
                 (A) (A) (A) (A) (A) (A) (A) (A) (A) (A) (A) (A)
                 (A) (A) (A) (A) (A) (A) (A) (A) (A) (A) (A) (A)
                 (A) (A) (A) (A) (A) (A) (A) (A) (A) (A) (A) (A)
                 (A) (A) (A) (A) (A) (A) (A) (A) (A) (A) (A) (A)
                 (A) (A) (A) (A) (A) (A) (A) (A) (A) (A) (A) (A)
                 (A) (A) (A) (A) (A) (A) (A) (A) (A) (A) (A) (A)
                 (A) (A) (A) (A) (A) (A) (A) (A) (A) (A) (A) (A)
                 (A) (A) (A) (A) (A) (A) (A) (A) (A) (A) (A) (A)
                 (A) (A) (A) (A) (A) (A) (A) (A) (A) (A) (A) (A)
                 (A) (A) (A) (A) (A) (A) (A) (A) (A) (A) (A) (A)
                 (A) (A) (A) (A) (A) (A) (A) (A) (A) (A) (A) (A)
                 (A) (A) (A) (A) (A) (A) (A) (A) (A) (A) (A) (A)
                 (A) (A) (A) (A) (A) (A) (A) (A) (A) (A) (A) (A)
                 (A) (A) (A) (A) (A) (A) (A) (A) (A) (A) (A) (A)
                 (A) (A) (A) (A) (A) (A) (A) (A) (A) (A) (A) (A)
                 (A) (A) (A) (A) (A) (A) (A) (A) (A) (A) (A) (A)
                 (A) (A) (A) (A) (A) (A) (A) (A) (A) (A) (A) (A)
                 (A) (A) (A) (A) (A) (A) (A) (A) (A) (A) (A) (A)
                 (A) (A) (A) (A) (A) (A) (A) (A) (A) (A) (A) (A)
                 (A) (A) (A) (A) (A) (A) (A) (A) (A) (A) (A) (A)
                 (A) (A) (A) (A) (A) (A) (A) (A) (A) (A) (A) (A)
                 (A) (A) (A) (A) (A) (A) (A) (A) (A) (A) (A) (A)
                 (A) (A) (A) (A) (A) (A) (A) (A) (A) (A) (A) (A)
                 (A) (A) (A)
 The electronic state is 1-A.
 Alpha  occ. eigenvalues --  -19.14931 -19.14675 -14.32312 -14.32135 -10.28641
 Alpha  occ. eigenvalues --  -10.28477 -10.20321 -10.20314 -10.20269 -10.20262
 Alpha  occ. eigenvalues --  -10.20183 -10.20160 -10.19918 -10.19870 -10.19752
 Alpha  occ. eigenvalues --  -10.19745 -10.19736 -10.19673 -10.18646 -10.18507
 Alpha  occ. eigenvalues --   -1.04568  -1.04280  -0.92380  -0.86436  -0.86128
 Alpha  occ. eigenvalues --   -0.77599  -0.77536  -0.75454  -0.75254  -0.73260
 Alpha  occ. eigenvalues --   -0.73044  -0.72922  -0.63260  -0.63134  -0.60962
 Alpha  occ. eigenvalues --   -0.60891  -0.55543  -0.55404  -0.51582  -0.51214
 Alpha  occ. eigenvalues --   -0.48117  -0.47462  -0.46695  -0.46646  -0.46305
 Alpha  occ. eigenvalues --   -0.46145  -0.45617  -0.44644  -0.44576  -0.43464
 Alpha  occ. eigenvalues --   -0.42763  -0.42689  -0.42655  -0.41992  -0.41847
 Alpha  occ. eigenvalues --   -0.39080  -0.39029  -0.38434  -0.37745  -0.36004
 Alpha  occ. eigenvalues --   -0.35981  -0.35685  -0.35165  -0.34730  -0.34686
 Alpha  occ. eigenvalues --   -0.26955  -0.26557  -0.26318  -0.26054  -0.25694
 Alpha  occ. eigenvalues --   -0.25095  -0.24253  -0.23079
 Alpha virt. eigenvalues --   -0.06591  -0.05797  -0.01268  -0.00593   0.03583
 Alpha virt. eigenvalues --    0.03695   0.07665   0.09752   0.09947   0.11055
 Alpha virt. eigenvalues --    0.12183   0.12800   0.14770   0.15190   0.15317
 Alpha virt. eigenvalues --    0.15689   0.15980   0.16490   0.16690   0.17563
 Alpha virt. eigenvalues --    0.17954   0.18422   0.19356   0.19662   0.19975
 Alpha virt. eigenvalues --    0.21046   0.21669   0.22515   0.22565   0.23532
 Alpha virt. eigenvalues --    0.25363   0.27612   0.27948   0.29873   0.30053
 Alpha virt. eigenvalues --    0.30481   0.30674   0.31869   0.32386   0.35378
 Alpha virt. eigenvalues --    0.36471   0.36968   0.37502   0.41375   0.45564
 Alpha virt. eigenvalues --    0.48009   0.48802   0.49660   0.51331   0.51505
 Alpha virt. eigenvalues --    0.51626   0.52500   0.53292   0.53519   0.54764
 Alpha virt. eigenvalues --    0.55447   0.55542   0.56667   0.57201   0.59006
 Alpha virt. eigenvalues --    0.59190   0.59668   0.59890   0.60266   0.60718
 Alpha virt. eigenvalues --    0.60995   0.61658   0.64663   0.65057   0.65879
 Alpha virt. eigenvalues --    0.66607   0.67395   0.68298   0.68668   0.69032
 Alpha virt. eigenvalues --    0.69705   0.70410   0.71559   0.72008   0.73416
 Alpha virt. eigenvalues --    0.74770   0.75352   0.75526   0.75892   0.77347
 Alpha virt. eigenvalues --    0.78713   0.79475   0.80348   0.80722   0.81060
 Alpha virt. eigenvalues --    0.81778   0.81893   0.82180   0.82785   0.83044
 Alpha virt. eigenvalues --    0.83428   0.84468   0.85644   0.86489   0.87841
 Alpha virt. eigenvalues --    0.88448   0.88648   0.89749   0.90855   0.92412
 Alpha virt. eigenvalues --    0.93206   0.93579   0.93753   0.94568   0.96435
 Alpha virt. eigenvalues --    0.97140   0.98282   0.99359   1.00775   1.01625
 Alpha virt. eigenvalues --    1.01721   1.03134   1.03809   1.05921   1.07031
 Alpha virt. eigenvalues --    1.08159   1.09484   1.10706   1.13084   1.13747
 Alpha virt. eigenvalues --    1.14471   1.16140   1.17227   1.19270   1.20020
 Alpha virt. eigenvalues --    1.23097   1.24509   1.24795   1.26463   1.26645
 Alpha virt. eigenvalues --    1.27684   1.30766   1.32585   1.32820   1.33620
 Alpha virt. eigenvalues --    1.35296   1.35596   1.38220   1.38565   1.38968
 Alpha virt. eigenvalues --    1.39658   1.40002   1.40282   1.40839   1.41179
 Alpha virt. eigenvalues --    1.41536   1.42691   1.42811   1.44073   1.45585
 Alpha virt. eigenvalues --    1.46385   1.47453   1.49353   1.52685   1.59062
 Alpha virt. eigenvalues --    1.59827   1.68338   1.68894   1.71580   1.72903
 Alpha virt. eigenvalues --    1.74925   1.76275   1.76930   1.77478   1.77965
 Alpha virt. eigenvalues --    1.78897   1.81019   1.82385   1.82802   1.84796
 Alpha virt. eigenvalues --    1.86419   1.86673   1.87424   1.87922   1.88881
 Alpha virt. eigenvalues --    1.91351   1.91982   1.92891   1.93247   1.93934
 Alpha virt. eigenvalues --    1.94442   1.95152   1.95820   1.96898   1.97267
 Alpha virt. eigenvalues --    1.98520   2.00130   2.00681   2.01771   2.02844
 Alpha virt. eigenvalues --    2.03507   2.03810   2.04741   2.07169   2.07370
 Alpha virt. eigenvalues --    2.08261   2.08618   2.09276   2.10260   2.11732
 Alpha virt. eigenvalues --    2.12918   2.12999   2.15572   2.17034   2.17369
 Alpha virt. eigenvalues --    2.18399   2.19396   2.23563   2.24978   2.27139
 Alpha virt. eigenvalues --    2.27511   2.28528   2.28743   2.29415   2.29808
 Alpha virt. eigenvalues --    2.30432   2.34213   2.35513   2.36838   2.36948
 Alpha virt. eigenvalues --    2.37651   2.38414   2.38458   2.39891   2.40433
 Alpha virt. eigenvalues --    2.40686   2.41303   2.44180   2.44914   2.45942
 Alpha virt. eigenvalues --    2.46518   2.46841   2.47034   2.48056   2.49041
 Alpha virt. eigenvalues --    2.50245   2.52097   2.52293   2.53607   2.54253
 Alpha virt. eigenvalues --    2.56327   2.56916   2.57713   2.59052   2.59441
 Alpha virt. eigenvalues --    2.59669   2.59945   2.64539   2.65208   2.65276
 Alpha virt. eigenvalues --    2.65777   2.66013   2.67002   2.67744   2.73175
 Alpha virt. eigenvalues --    2.73657   2.74683   2.74822   2.76240   2.76749
 Alpha virt. eigenvalues --    2.78319   2.80633   2.81945   2.82258   2.84799
 Alpha virt. eigenvalues --    2.85420   2.87951   2.88523   2.93982   2.97301
 Alpha virt. eigenvalues --    2.98592   3.04186   3.04605   3.05320   3.06237
 Alpha virt. eigenvalues --    3.06379   3.09232   3.11364   3.19384   3.20064
 Alpha virt. eigenvalues --    3.23344   3.23434   3.24080   3.24842   3.25451
 Alpha virt. eigenvalues --    3.25592   3.31461   3.36075   3.37736   3.38485
 Alpha virt. eigenvalues --    3.40515   3.42462   3.42801   3.43123   3.43834
 Alpha virt. eigenvalues --    3.47419   3.48622   3.51174   3.51456   3.59935
 Alpha virt. eigenvalues --    3.83381   3.89272   3.89345   4.02468   4.08333
 Alpha virt. eigenvalues --    4.09489   4.13567   4.15567   4.20118   4.20612
 Alpha virt. eigenvalues --    4.23819   4.26187   4.36475   4.38965   4.43542
 Alpha virt. eigenvalues --    4.44175   4.45780   4.48354   4.60224   4.62391
 Alpha virt. eigenvalues --    4.83938   4.85093
          Condensed to atoms (all electrons):
               1          2          3          4          5          6
     1  C    4.608852  -0.000003   0.002089  -0.000902   0.496404   0.000247
     2  H   -0.000003   0.479366  -0.000034  -0.000022   0.000333  -0.049765
     3  C    0.002089  -0.000034   4.593844   0.507432   0.004627   0.000057
     4  O   -0.000902  -0.000022   0.507432   8.112474  -0.000567  -0.011350
     5  O    0.496404   0.000333   0.004627  -0.000567   8.112615   0.000222
     6  N    0.000247  -0.049765   0.000057  -0.011350   0.000222   6.767895
     7  H    0.000005   0.005981   0.000000   0.000301  -0.000016   0.348957
     8  N    0.000035   0.347519   0.000059   0.000225  -0.011696   0.210305
     9  H   -0.001173  -0.040001   0.000488   0.000352   0.037759  -0.042952
    10  H    0.000127  -0.000697  -0.000897   0.036064   0.000091   0.325418
    11  C    0.335817  -0.000035   0.000024   0.002569  -0.087523  -0.004431
    12  H   -0.018270   0.000000   0.000104   0.000076   0.001703   0.000029
    13  H   -0.018290  -0.000000  -0.000838   0.000632   0.001380   0.000014
    14  H   -0.019581   0.000168   0.000293   0.000228   0.001442   0.012253
    15  C   -0.000434   0.000437   0.339344  -0.088260  -0.004473   0.000555
    16  H    0.000014   0.000003  -0.017662   0.001888   0.000119  -0.000009
    17  H    0.000045   0.000141  -0.018963   0.001120   0.009970  -0.000029
    18  H   -0.000002   0.001573  -0.022040   0.003140  -0.000095  -0.000269
    19  C    0.295875   0.000000  -0.000721  -0.000007  -0.076644   0.000002
    20  C   -0.032112  -0.000000  -0.000033   0.000001  -0.001067  -0.000000
    21  C   -0.044054  -0.000000  -0.000086   0.000001   0.003560  -0.000000
    22  C    0.006370  -0.000000   0.000001   0.000000   0.000989  -0.000000
    23  H   -0.010781  -0.000000   0.000003   0.000000   0.016407  -0.000000
    24  C    0.005167   0.000000   0.000001  -0.000000  -0.000072  -0.000000
    25  H   -0.012334  -0.000000  -0.000013  -0.000002   0.000052  -0.000000
    26  C    0.000137  -0.000000   0.000000  -0.000000  -0.000010   0.000000
    27  H   -0.000151  -0.000000  -0.000000   0.000000   0.000002   0.000000
    28  H   -0.000138  -0.000000  -0.000000   0.000000   0.000000  -0.000000
    29  H    0.000008  -0.000000  -0.000000  -0.000000   0.000000   0.000000
    30  C    0.002555  -0.000001   0.292514  -0.078801  -0.002133  -0.000062
    31  C    0.000932   0.000000  -0.033305  -0.001783  -0.000033   0.000004
    32  C    0.000837  -0.000000  -0.044214   0.003794  -0.000215   0.000001
    33  C    0.000079   0.000000   0.006408   0.001027   0.000004   0.000000
    34  H   -0.000059  -0.000000  -0.010443   0.016216  -0.000000   0.000003
    35  C   -0.000500   0.000000   0.005137  -0.000070  -0.000007  -0.000000
    36  H   -0.000040  -0.000000  -0.012187   0.000063  -0.000091   0.000000
    37  C   -0.000123  -0.000000   0.000133  -0.000012   0.000004  -0.000000
    38  H   -0.000001  -0.000000  -0.000151   0.000003   0.000000   0.000000
    39  H   -0.000007   0.000000  -0.000135   0.000000   0.000000   0.000000
    40  H   -0.000001   0.000000   0.000008   0.000000   0.000000  -0.000000
               7          8          9         10         11         12
     1  C    0.000005   0.000035  -0.001173   0.000127   0.335817  -0.018270
     2  H    0.005981   0.347519  -0.040001  -0.000697  -0.000035   0.000000
     3  C    0.000000   0.000059   0.000488  -0.000897   0.000024   0.000104
     4  O    0.000301   0.000225   0.000352   0.036064   0.002569   0.000076
     5  O   -0.000016  -0.011696   0.037759   0.000091  -0.087523   0.001703
     6  N    0.348957   0.210305  -0.042952   0.325418  -0.004431   0.000029
     7  H    0.474772  -0.049226  -0.000507  -0.040728  -0.000480   0.000006
     8  N   -0.049226   6.788641   0.318785  -0.042512   0.000686  -0.000008
     9  H   -0.000507   0.318785   0.461884  -0.004550  -0.000118   0.000029
    10  H   -0.040728  -0.042512  -0.004550   0.456703  -0.000615   0.000002
    11  C   -0.000480   0.000686  -0.000118  -0.000615   5.196075   0.357660
    12  H    0.000006  -0.000008   0.000029   0.000002   0.357660   0.557972
    13  H   -0.000017  -0.000009   0.000071  -0.000021   0.359925  -0.024815
    14  H    0.003552  -0.001261  -0.002055   0.001945   0.346278  -0.021560
    15  C    0.000006  -0.000843  -0.000184  -0.001836  -0.000154   0.000002
    16  H    0.000000   0.000079   0.000051  -0.000001   0.000001   0.000000
    17  H    0.000001   0.000075  -0.000166   0.000021   0.000215  -0.000004
    18  H    0.000028   0.002750   0.000546   0.000570   0.000019  -0.000000
    19  C   -0.000000  -0.000033   0.000480   0.000003  -0.111045   0.000145
    20  C   -0.000000   0.000001  -0.000022  -0.000000   0.009609  -0.000376
    21  C   -0.000000   0.000000  -0.000005  -0.000000  -0.007018   0.000310
    22  C    0.000000   0.000000  -0.000000  -0.000000  -0.000111  -0.000004
    23  H   -0.000000   0.000002  -0.000032  -0.000000   0.000680  -0.000024
    24  C    0.000000  -0.000000   0.000000  -0.000000  -0.000144   0.000072
    25  H   -0.000000   0.000000  -0.000000  -0.000000   0.007185   0.000527
    26  C   -0.000000  -0.000000   0.000000   0.000000  -0.000013   0.000001
    27  H   -0.000000   0.000000  -0.000000   0.000000   0.000002   0.000000
    28  H   -0.000000   0.000000  -0.000000  -0.000000   0.000011  -0.000003
    29  H    0.000000  -0.000000   0.000000   0.000000  -0.000000   0.000000
    30  C    0.000001   0.000010  -0.000031   0.000595  -0.001549  -0.000004
    31  C   -0.000000   0.000000  -0.000004  -0.000039  -0.002979   0.000023
    32  C   -0.000000  -0.000001  -0.000009  -0.000011   0.000132  -0.000003
    33  C   -0.000000  -0.000000   0.000000  -0.000000  -0.000370   0.000010
    34  H   -0.000001  -0.000000  -0.000001  -0.000032  -0.000417   0.000010
    35  C    0.000000  -0.000000   0.000000   0.000000   0.000023  -0.000000
    36  H   -0.000000  -0.000000  -0.000003  -0.000001   0.000002  -0.000000
    37  C   -0.000000   0.000000   0.000000   0.000000   0.000008  -0.000000
    38  H   -0.000000  -0.000000  -0.000000  -0.000000  -0.000002   0.000000
    39  H   -0.000000   0.000000  -0.000000  -0.000000   0.000000   0.000000
    40  H   -0.000000   0.000000  -0.000000   0.000000   0.000000  -0.000000
              13         14         15         16         17         18
     1  C   -0.018290  -0.019581  -0.000434   0.000014   0.000045  -0.000002
     2  H   -0.000000   0.000168   0.000437   0.000003   0.000141   0.001573
     3  C   -0.000838   0.000293   0.339344  -0.017662  -0.018963  -0.022040
     4  O    0.000632   0.000228  -0.088260   0.001888   0.001120   0.003140
     5  O    0.001380   0.001442  -0.004473   0.000119   0.009970  -0.000095
     6  N    0.000014   0.012253   0.000555  -0.000009  -0.000029  -0.000269
     7  H   -0.000017   0.003552   0.000006   0.000000   0.000001   0.000028
     8  N   -0.000009  -0.001261  -0.000843   0.000079   0.000075   0.002750
     9  H    0.000071  -0.002055  -0.000184   0.000051  -0.000166   0.000546
    10  H   -0.000021   0.001945  -0.001836  -0.000001   0.000021   0.000570
    11  C    0.359925   0.346278  -0.000154   0.000001   0.000215   0.000019
    12  H   -0.024815  -0.021560   0.000002   0.000000  -0.000004  -0.000000
    13  H    0.546123  -0.023062   0.000060  -0.000001  -0.000039  -0.000002
    14  H   -0.023062   0.572633   0.000087   0.000001  -0.000028  -0.000042
    15  C    0.000060   0.000087   5.187335   0.354781   0.359330   0.360479
    16  H   -0.000001   0.000001   0.354781   0.563821  -0.024333  -0.021899
    17  H   -0.000039  -0.000028   0.359330  -0.024333   0.533687  -0.021597
    18  H   -0.000002  -0.000042   0.360479  -0.021899  -0.021597   0.562085
    19  C   -0.000638   0.004772   0.000089   0.000002  -0.000346  -0.000002
    20  C   -0.000308  -0.000140  -0.000027  -0.000002   0.000061  -0.000000
[...]
 0002858,0.00001342,-0.00002908,-0.00001284,0.00007094,0.00003480,0.000
 00654,-0.00004085,0.00001746,0.00002774,-0.00000647,-0.00000484,-0.000
 00304,-0.00000205,0.00000463,-0.00000683,-0.00000858,-0.00000881,0.000
 00704,0.00000442,-0.00000482,0.00000416,0.00000072,0.00000338,0.000008
 32,0.00000060,0.00000192,0.00083269,0.00161305,0.00156710,0.00047546,0
 .00606816,0.00090863,0.02588808,-0.05627314,0.06915326,0.00003530,-0.0
 0059847,-0.00020609,0.00015071,0.00070410,0.00017680,0.00098206,0.0029
 7199,0.00498643,-0.02996129,0.04624220,-0.00009739,0.00007963,-0.00029
 689,0.00001806,-0.00002052,0.00000752,-0.00197318,-0.00034583,-0.00103
 057,0.00058421,-0.00003164,0.00024927,0.00003274,0.00018855,0.00025968
 ,0.00000504,-0.00000911,-0.00000580,0.00000207,0.00000084,0.00000122,-
 0.00001793,0.00004598,0.00001167,0.00000393,-0.00002738,-0.00000932,-0
 .00000522,0.00001232,-0.00001411,-0.00000973,-0.00003344,0.00001473,0.
 00000232,-0.00001384,0.00000889,-0.00001421,0.00002467,0.00005605,-0.0
 0000216,-0.00000450,0.00000480,-0.00062142,0.00042880,0.00013787,-0.00
 012849,0.00034751,0.00020464,-0.00011698,-0.00059611,0.00016566,-0.000
 19206,-0.00015678,0.00051794,0.00001146,0.00004563,-0.00001523,0.00001
 783,0.00010930,-0.00000984,-0.00000601,0.00000709,-0.00000936,-0.00003
 193,0.00003219,0.00003005,0.00003316,-0.00005474,0.00006421,0.00003560
 ,-0.00001781,0.00001357,0.00000114,0.00000654,0.00001702,0.00000622,-0
 .00001684,-0.00000136,0.00000383,0.00000236,-0.00000375,0.00000574,0.0
 0000224,0.00000491,0.00000407,-0.00000088,0.00000336,-0.00957470,0.005
 49693,-0.01684232,0.00441791,0.00095974,-0.00126877,-0.08235462,0.0683
 5110,-0.29566715,0.00041518,-0.00027739,0.00041722,-0.00062148,0.00044
 556,-0.00090229,0.00089745,0.00079648,0.00030576,0.08981313,-0.0758369
 8,0.31130076,-0.00058852,-0.00001245,-0.00012044,0.00001503,-0.0000099
 0,0.00000261,0.00017358,-0.00036503,0.00172933,-0.00081205,0.00032413,
 -0.00092659,0.00028664,0.00004481,0.00020122,-0.00003718,0.00000610,0.
 00002911,-0.00000561,0.00001549,-0.00000166,0.00000310,0.00003744,0.00
 000764,-0.00002667,-0.00003710,-0.00000736,0.00008051,-0.00006020,-0.0
 0004298,0.00003314,0.00009421,-0.00002744,0.00000421,0.00001181,0.0000
 0462,-0.00008487,-0.00002379,0.00000746,0.00003559,-0.00004321,-0.0000
 0776,-0.00007592,0.00005069,-0.00000205,0.00007132,0.00005177,-0.00001
 093,0.00002894,-0.00010996,-0.00002008,-0.00002155,-0.00000748,0.00010
 231,-0.00004425,-0.00010419,-0.00033147,-0.00015649,0.00016760,0.00002
 555,0.00014517,-0.00018377,0.00015783,-0.00001288,0.00001303,-0.000088
 49,-0.00000150,-0.00000952,0.00001502,-0.00006692,-0.00012652,0.000245
 99,-0.00001300,0.00007372,0.00008806,0.00009857,-0.00014623,-0.0001720
 4,-0.00000235,-0.00000630,0.00002052,-0.00001237,-0.00000421,-0.000022
 64,-0.00003684,-0.00000203,0.00001051,-0.00170547,-0.00301165,0.010022
 50,-0.04269981,0.00329817,0.01769661,-0.00625159,0.00937842,-0.0357411
 3,-0.21026372,-0.00762900,0.13378408,-0.00419457,0.00211571,-0.0015249
 5,-0.15327137,0.03181497,-0.09579672,-0.00540374,0.00173096,-0.0001849
 0,0.73160697,0.00006074,0.00001093,0.00017213,-0.00000312,0.00000482,-
 0.00000140,-0.00093367,-0.00066750,0.00041504,-0.00007210,0.00000310,-
 0.00013931,0.00004053,-0.00015225,-0.00004457,0.00000850,0.00000163,-0
 .00000233,-0.00000199,-0.00000083,0.00000034,0.00000472,-0.00001212,-0
 .00000201,-0.00001040,0.00001345,0.00000065,-0.00001240,0.00000744,0.0
 0001181,-0.00001951,0.00002974,0.00003143,-0.00000749,0.00002360,-0.00
 001392,-0.00001189,0.00000333,-0.00006361,-0.00000299,0.00001516,0.000
 00083,0.00012170,0.00022455,0.00016964,0.00004038,-0.00007982,-0.00001
 609,0.00004017,-0.00002317,-0.00007300,0.00002281,-0.00000997,0.000006
 81,0.00002918,-0.00003714,-0.00007491,0.00009424,0.00017348,-0.0000693
 8,0.00023806,-0.00039829,0.00008638,-0.00011754,0.00017501,-0.00009581
 ,0.00000494,-0.00000814,-0.00000457,-0.00030310,-0.00046289,0.00022695
 ,-0.00002360,0.00007972,0.00007311,0.00006723,-0.00011417,-0.00015726,
 0.00000301,-0.00000299,0.00000005,0.00002792,0.00002750,0.00003141,0.0
 0002183,0.00002100,-0.00000541,-0.00227513,-0.00951182,0.00953109,-0.0
 0654566,0.00938830,-0.01094880,0.01849889,0.00309830,0.00254138,0.0060
 6348,-0.06615458,0.02075675,0.00223353,0.00725995,0.00159430,0.0179089
 6,-0.07685141,0.06244951,0.00166286,0.00702872,0.00129229,-0.07797673,
 0.16861918,-0.00067182,0.00022127,-0.00036011,0.00000556,-0.00000342,0
 .00000296,0.00141851,0.00030275,-0.00371585,0.00149373,-0.00035399,0.0
 0040211,0.00017267,0.00025459,0.00028288,0.00002089,-0.00000350,-0.000
 00790,-0.00000096,-0.00000520,0.00000210,-0.00000303,0.00000176,0.0000
 0406,-0.00000569,-0.00000758,-0.00000922,-0.00004959,0.00003044,0.0000
 0483,0.00017799,-0.00017406,-0.00024489,0.00006534,-0.00005150,0.00001
 270,0.00008353,-0.00012053,0.00012285,-0.00001244,-0.00000081,-0.00002
 086,-0.00020080,0.00031150,-0.00057244,-0.00020719,0.00008152,0.000262
 63,-0.00027631,-0.00001663,0.00014974,-0.00005574,0.00003059,-0.000071
 74,0.00009207,-0.00040292,-0.00011984,-0.00002583,-0.00002699,-0.00027
 880,0.00004222,-0.00043781,0.00026739,0.00002644,-0.00023784,-0.000219
 55,-0.00001950,0.00004378,-0.00001071,0.00021075,0.00027067,-0.0001486
 1,0.00000971,0.00002475,-0.00010960,0.00010911,-0.00007411,0.00029175,
 -0.00001770,0.00000209,0.00001535,0.00000340,0.00000275,-0.00000457,-0
 .00002386,-0.00000828,-0.00000644,0.00903992,0.00821829,-0.05929275,0.
 06261706,-0.01730737,0.04623994,-0.08199862,0.01035969,0.01653927,0.06
 812603,0.03054927,-0.24847168,-0.00209701,0.00155491,0.00116944,-0.029
 41015,0.05386518,-0.30288560,0.00063704,0.00114275,0.00191236,0.000191
 70,-0.10511686,0.64774368,-0.00007256,-0.00005970,-0.00003196,0.000011
 74,-0.00001225,0.00000342,0.00077333,0.00026049,-0.00191074,-0.0002797
 8,0.00003050,0.00040321,0.00004267,0.00005247,0.00004105,-0.00002487,0
 .00000339,0.00000861,0.00000227,0.00000749,-0.00000134,-0.00001064,0.0
 0003167,0.00000712,0.00000362,-0.00002647,-0.00000025,0.00004693,-0.00
 003395,-0.00002734,0.00000902,0.00000871,0.00001728,0.00000219,0.00001
 303,-0.00000025,0.00000514,-0.00002357,-0.00003556,0.00000366,-0.00000
 763,-0.00000506,-0.00054365,0.00004217,0.00009500,0.00000393,-0.000015
 16,-0.00001577,0.00001285,-0.00000007,0.00001099,-0.00009408,0.0000332
 2,-0.00015578,0.00001870,-0.00000529,-0.00000306,0.00000180,0.00000455
 ,0.00001589,-0.00000371,0.00000305,-0.00002099,0.00000559,0.00000220,0
 .00000307,-0.00000268,-0.00000149,0.00000233,0.00000532,0.00001740,-0.
 00000817,-0.00000837,0.00000122,-0.00000064,0.00000519,0.00000337,-0.0
 0000092,0.00000194,0.00000072,-0.00000259,0.00000461,0.00000299,-0.000
 00029,0.00000102,0.00000001,0.00000022,-0.00525203,0.00177629,0.000969
 01,-0.00615405,0.00732741,-0.02963246,-0.00099106,-0.00005570,0.000598
 83,-0.09142763,0.02512673,-0.08628186,0.00091047,-0.00080972,0.0001648
 3,-0.00231317,0.00057116,0.00321554,0.00014190,-0.00015220,-0.00015685
 ,0.01085628,-0.00518498,0.01984459,0.09314041,0.00000444,0.00003369,0.
 00000898,-0.00000375,0.00000350,-0.00000105,-0.00019023,0.00046048,0.0
 0032977,0.00021653,0.00009078,-0.00006642,-0.00001402,-0.00001307,-0.0
 0001451,0.00000879,-0.00000265,-0.00000280,-0.00000058,-0.00000274,0.0
 0000021,0.00000322,-0.00001022,-0.00000242,-0.00000061,0.00000841,0.00
 000064,-0.00001739,0.00001373,0.00000909,-0.00000569,-0.00000634,-0.00
 000550,0.00000106,-0.00000807,0.00000269,0.00000253,0.00003882,0.00001
 841,-0.00000099,0.00000260,-0.00000009,0.00005068,-0.00030625,-0.00004
 887,-0.00003836,0.00001836,-0.00004643,0.00003364,-0.00000574,0.000053
 29,0.00001488,-0.00005235,0.00001518,-0.00001408,-0.00000157,0.0000099
 2,0.00003569,0.00001592,-0.00004524,0.00000437,0.00006401,0.00004508,-
 0.00003160,0.00001161,-0.00002201,0.00000089,0.00000101,-0.00000410,0.
 00002260,0.00004762,-0.00003013,0.00001804,-0.00000869,-0.00003302,-0.
 00000042,-0.00001037,0.00002996,-0.00000185,-0.00000120,-0.00000044,-0
 .00000435,0.00000071,-0.00000599,0.00000102,0.00000183,-0.00000057,0.0
 0195191,0.00721576,0.00102245,0.00123359,0.00163870,0.00475972,-0.0002
 0167,-0.00039359,-0.00020603,0.02484861,-0.05361922,0.06433569,-0.0007
 2414,-0.00406418,-0.00101883,0.00053756,0.00663595,0.00136999,-0.00016
 808,-0.00116158,-0.00022470,0.00113335,0.00245596,0.00115375,-0.028214
 60,0.04426568,-0.00001962,-0.00008208,-0.00002828,0.00000758,-0.000008
 67,0.00000189,0.00094158,-0.00006171,-0.00021685,-0.00043127,0.0000946
 7,0.00022770,0.00000893,0.00006367,0.00001777,-0.00002957,0.00000271,0
 .00000769,0.00000333,0.00000593,-0.00000159,-0.00000855,0.00002647,0.0
 0000420,0.00000909,-0.00002314,0.00000210,0.00004838,-0.00003030,-0.00
 002070,0.00000262,0.00000984,0.00002362,-0.00000036,0.00001450,0.00000
 063,0.00000278,-0.00001535,-0.00004194,0.00000130,-0.00000476,-0.00000
 416,-0.00012726,-0.00002716,0.00001285,-0.00000399,0.00000774,-0.00002
 185,0.00000283,-0.00001062,0.00000451,-0.00003236,0.00000218,-0.000040
 91,0.00001090,-0.00000039,-0.00000108,0.00001014,-0.00000021,0.0000405
 6,0.00000599,-0.00001485,-0.00003660,0.00000342,0.00001316,0.00002837,
 -0.00000125,-0.00000335,0.00000400,-0.00001423,-0.00000412,-0.00001981
 ,-0.00001462,0.00000609,0.00000903,-0.00000772,0.00000885,-0.00000504,
 0.00000301,0.00000011,-0.00000432,0.00001077,0.00000141,0.00000894,0.0
 0000249,0.00000097,-0.00000046,-0.00052897,0.00129462,0.00196251,0.000
 84191,0.00041102,0.00029908,0.00071838,-0.00028203,0.00030939,-0.08623
 336,0.06438332,-0.29225996,-0.00033223,-0.00094518,0.00053000,0.004176
 94,0.00116061,-0.00130665,-0.00015907,-0.00020829,-0.00010159,-0.01072
 258,0.00550052,-0.01686591,0.09233606,-0.07063894,0.30777718,-0.000117
 12,-0.00008234,-0.00004585,0.00001151,-0.00001211,0.00000284,0.0009945
 2,-0.00044384,0.00132822,-0.00129469,0.00023252,0.00041811,0.00007319,
 0.00006856,0.00004184,-0.00004059,0.00000965,0.00001499,0.00000151,0.0
 0001102,-0.00000194,-0.00000938,0.00003733,0.00000521,0.00000493,-0.00
 003197,0.00000094,0.00006906,-0.00005820,-0.00003238,0.00001238,0.0000
 0983,0.00001186,0.00000386,0.00001386,0.00000055,-0.00000528,-0.000011
 25,-0.00003138,0.00000586,-0.00000936,-0.00000843,-0.00009471,0.000052
 72,-0.00002213,0.00002054,-0.00000136,-0.00000487,0.00000361,-0.000014
 55,-0.00000421,-0.00005351,0.00001844,-0.00004489,0.00003363,-0.000000
 59,0.00005332,-0.00004841,-0.00007264,-0.00000972,-0.00005698,0.000017
 49,-0.00005591,0.00000893,-0.00010389,-0.00006707,-0.00000607,0.000000
 90,0.00000200,0.00003346,0.00001532,-0.00003272,-0.00000403,-0.0000039
 1,-0.00000853,0.00003483,-0.00003745,0.00006757,0.00000641,0.00001555,
 -0.00000825,0.00000227,-0.00000057,-0.00000310,-0.00000162,0.00000023,
 -0.00000051,-0.00464321,0.00218826,-0.00271918,-0.00033694,0.00013780,
 -0.00085805,-0.01501363,-0.00314437,0.02513527,-0.00007609,0.00132539,
 -0.00226795,0.00003049,-0.00015009,0.00011201,-0.17336215,-0.01195831,
 0.13862343,0.00079424,-0.00059980,-0.00029560,0.01082700,0.00116849,-0
 .01052891,0.00043728,0.00007200,-0.00056009,0.18106583,0.00011097,0.00
 000343,-0.00000066,-0.00000116,0.00000016,-0.00000006,0.00016110,0.000
 59832,-0.00010057,0.00001028,-0.00035220,-0.00010775,-0.00006518,0.000
 00742,-0.00003007,0.00000371,-0.00000525,-0.00000135,0.00000122,-0.000
 00140,-0.00000012,-0.00000167,-0.00000181,-0.00000084,0.00000681,0.000
 00139,0.00000160,-0.00001070,0.00000900,0.00000192,-0.00001199,-0.0000
 0040,0.00000348,0.00000198,-0.00000405,0.00000035,0.00000076,0.0000046
 9,0.00000927,-0.00000400,-0.00000381,0.00000378,-0.00001563,-0.0000083
 2,-0.00001927,0.00000467,0.00001059,0.00000646,-0.00001286,0.00000938,
 0.00000400,0.00000299,0.00000971,0.00000870,-0.00005459,0.00003610,0.0
 0001864,0.00013314,0.00002346,0.00002151,0.00002645,-0.00000434,0.0000
 0652,-0.00000160,0.00015435,0.00018217,-0.00000506,0.00000193,-0.00000
 281,-0.00000992,0.00000808,-0.00000386,-0.00000182,-0.00000462,0.00000
 778,-0.00010924,0.00010865,-0.00007618,-0.00000051,-0.00002619,-0.0000
 0228,0.00000380,0.00000111,0.00001371,0.00001288,-0.00000286,0.0000023
 7,0.00199322,0.00673766,0.00165894,0.00014207,-0.00063020,0.00002398,0
 .00362247,0.00298086,-0.00438663,0.00156457,0.00641587,0.00237646,-0.0
 0019292,-0.00101426,-0.00024368,-0.01256219,-0.03975883,0.02310591,-0.
 00070581,-0.00375719,-0.00097971,-0.00522271,0.00250852,0.00546786,-0.
 00022783,0.00017072,0.00030472,0.01194366,0.02945753,0.00012831,0.0000
 4887,0.00001670,-0.00000466,0.00000462,-0.00000096,-0.00072257,0.00018
 145,0.00030690,0.00010403,-0.00006886,-0.00011280,-0.00006208,-0.00004
 201,-0.00003519,0.00001364,-0.00000068,-0.00000433,-0.00000118,-0.0000
 0282,0.00000075,0.00000280,-0.00001373,-0.00000278,0.00000008,0.000012
 53,0.00000005,-0.00002535,0.00001386,0.00001105,-0.00001939,-0.0000023
 2,-0.00000396,-0.00000011,-0.00001069,-0.00000117,-0.00000605,0.000014
 80,0.00002527,-0.00000318,-0.00000101,0.00000644,0.00005937,-0.0000252
 9,0.00005177,0.00000360,-0.00001155,-0.00000079,0.00000656,0.00001623,
 -0.00000120,0.00001686,0.00000013,0.00000514,-0.00006042,0.00001509,-0
 .00002893,0.00010842,0.00008352,0.00000461,0.00002718,-0.00001468,0.00
 003194,-0.00002080,0.00017043,0.00014825,-0.00000019,-0.00000275,-0.00
 000321,-0.00000045,0.00000319,-0.00000965,-0.00000270,0.00000863,0.000
 01959,-0.00008933,0.00014774,-0.00006916,-0.00000606,-0.00002819,0.000
 00332,0.00000161,0.00000342,0.00000978,0.00000565,-0.00000618,0.000001
 81,-0.00104011,0.00151057,0.00136329,-0.00099893,0.00002752,-0.0002168
 5,-0.00545799,-0.00031820,0.00751200,-0.00319682,0.00262082,-0.0032489
 0,0.00010297,-0.00024443,-0.00000893,0.13856011,0.02248234,-0.22512444
 ,0.00008928,-0.00104744,0.00057996,0.02019929,0.00157609,-0.01673146,0
 .00104010,0.00009171,-0.00095976,-0.14841916,-0.02625051,0.23578466,-0
 .00006601,-0.00007588,-0.00000717,0.00000821,-0.00000838,0.00000294,0.
 00045225,-0.00024334,-0.00001877,-0.00040263,0.00012496,0.00003973,0.0
 0003672,0.00005350,0.00002603,-0.00002653,0.00000192,0.00000683,0.0000
 0288,0.00000535,-0.00000184,-0.00000860,0.00002408,0.00000381,0.000008
 50,-0.00002080,0.00000120,0.00004154,-0.00002607,-0.00001920,0.0000142
 3,0.00000224,0.00002727,-0.00000097,0.00001992,-0.00000224,0.00000704,
 -0.00002848,-0.00005059,0.00000183,0.00000146,-0.00000650,-0.00009386,
 0.00005544,-0.00002836,0.00002236,0.00000767,-0.00000126,-0.00000552,-
 0.00002841,0.00000177,-0.00003418,0.00000421,-0.00001477,0.00004688,0.
 00000407,0.00001325,0.00002515,-0.00000614,0.00004501,-0.00009367,-0.0
 0001566,-0.00003503,-0.00001659,0.00001878,-0.00001054,-0.00000135,-0.
 00000720,0.00000482,0.00003836,-0.00012158,0.00001903,-0.00000243,-0.0
 0001211,-0.00001520,0.00001862,-0.00005253,-0.00004686,0.00000415,-0.0
 0000242,0.00000031,0.00001442,0.00001696,0.00001769,0.00001009,0.00000
 537,-0.00000068,0.00040556,-0.00016989,0.00021967,-0.00025864,0.000126
 85,0.00385482,0.00144376,0.00105514,-0.00168872,-0.01423673,0.00349842
 ,-0.00575876,-0.00072354,0.00016727,-0.00035337,-0.00592141,0.00099675
 ,0.00127537,-0.00041699,0.00002351,0.00009380,-0.32847680,0.04514012,-
 0.03878309,0.00073042,-0.00056298,0.00007865,0.00068907,-0.00052935,-0
 .00033230,0.34676440,0.00005193,0.00003766,0.00001169,-0.00000157,0.00
 000122,-0.00000083,-0.00029051,-0.00127925,-0.00027725,0.00012457,0.00
 023737,-0.00000877,-0.00002652,-0.00002257,-0.00000073,0.00000126,-0.0
 0000042,-0.00000280,0.00000092,-0.00000135,0.00000003,0.00000128,-0.00
 000296,-0.00000110,-0.00000012,0.00000346,0.00000002,-0.00000164,0.000
 00127,0.00000478,-0.00001089,0.00000555,0.00000781,-0.00000168,-0.0000
 0061,-0.00000198,-0.00000130,0.00000229,0.00000185,-0.00000224,-0.0000
 0022,0.00000157,0.00005835,0.00020447,0.00001318,0.00005092,-0.0000557
 7,-0.00001184,-0.00008595,-0.00001116,-0.00001060,0.00000504,-0.000021
 30,-0.00000486,-0.00002249,-0.00000845,0.00004141,0.00000057,-0.000034
 85,-0.00004994,0.00003266,0.00011681,-0.00000789,0.00003691,0.00001672
 ,0.00003679,-0.00000185,0.00000558,-0.00000189,-0.00000987,0.00007807,
 -0.00008004,-0.00000505,-0.00000440,0.00000556,-0.00006420,0.00012499,
 0.00005498,-0.00000172,0.00000538,-0.00000727,-0.00000764,-0.00000592,
 -0.00000622,-0.00000108,-0.00000776,-0.00000504,-0.00020315,-0.0006217
 3,0.00018302,0.00050847,0.00680150,0.00173095,0.00112230,0.00671783,0.
 00263122,-0.00268596,0.00420958,-0.00013753,-0.00018738,-0.00012565,-0
 .00005284,0.00710193,0.00306289,0.00043262,0.00032091,-0.00018098,-0.0
 0002756,0.04472960,-0.04668630,0.01045925,-0.00048961,-0.00352799,-0.0
 0095194,-0.00060243,-0.00368318,-0.00094222,-0.04944276,0.03465019,-0.
 00001293,0.00000070,-0.00004005,0.00000245,-0.00000234,0.00000084,0.00
 014859,-0.00030747,-0.00010256,-0.00001549,0.00001679,0.00024338,0.000
 01252,0.00001875,0.00003170,-0.00000162,-0.00000007,-0.00000042,0.0000
 0026,0.00000055,0.00000002,-0.00000209,0.00000581,0.00000129,0.0000000
 6,-0.00000404,-0.00000131,0.00000313,-0.00000186,-0.00000109,-0.000005
 91,-0.00000395,0.00000021,0.00000062,-0.00000379,0.00000175,-0.0000004
 0,0.00001448,0.00000729,-0.00000017,-0.00000141,0.00000011,-0.00002555
 ,0.00005853,-0.00000989,0.00002808,0.00002402,0.00001485,-0.00001426,-
 0.00005081,0.00000429,-0.00001365,-0.00000949,0.00003049,0.00002164,-0
 .00000454,0.00001405,0.00000408,-0.00001725,-0.00000856,-0.00002991,0.
 00002992,-0.00002144,-0.00000751,-0.00000423,0.00000258,0.00000152,-0.
 00000199,0.00000317,0.00001784,-0.00001734,-0.00001294,0.00000122,0.00
 000143,0.00000298,-0.00000307,-0.00001897,-0.00000466,-0.00000004,-0.0
 0000028,-0.00000172,-0.00000221,0.00000226,-0.00000185,0.00000288,0.00
 000146,0.00000077,0.00018311,0.00008980,-0.00121252,0.00308399,0.00173
 027,-0.00336757,-0.00090623,0.00264160,-0.00469153,0.02465436,-0.00406
 608,0.00807842,0.00113616,-0.00026678,0.00025431,-0.02916601,0.0044635
 9,0.00092472,-0.00147639,0.00020978,-0.00011077,-0.03878974,0.01036073
 ,-0.06527751,-0.00048530,-0.00083841,0.00066543,0.00021268,-0.00102378
 ,0.00068119,0.04144328,-0.01302559,0.06390255\\-0.00000601,0.00000173,
 0.00000876,-0.00000290,-0.00000116,0.00000709,-0.00000014,-0.00000493,
 -0.00001708,-0.00000474,0.00000305,0.00000582,0.00000694,0.00000669,-0
 .00000470,0.00001227,0.00000155,-0.00001015,-0.00000266,-0.00000229,-0
 .00000559,0.00000583,-0.00000534,0.00001088,-0.00001137,0.00000345,-0.
 00000030,-0.00000698,-0.00000320,0.00001006,0.00000359,0.00000463,-0.0
 0000077,0.00000212,-0.00000082,-0.00000245,-0.00000314,-0.00000223,0.0
 0000334,0.00000027,-0.00000894,0.00000077,0.00000179,-0.00001343,0.000
 01032,0.00000360,0.00000248,0.00000065,-0.00000332,0.00000595,-0.00000
 324,0.00000138,0.00000388,-0.00000344,-0.00000137,-0.00000277,0.000000
 59,0.00000036,-0.00000046,-0.00000289,0.00000023,-0.00000099,0.0000011
 2,-0.00000075,0.00000035,0.00000055,-0.00000054,0.00000258,0.00000098,
 -0.00000001,-0.00000074,-0.00000006,-0.00000162,0.00000032,0.00000002,
 -0.00000028,0.00000163,0.00000057,-0.00000037,0.00000197,0.00000021,0.
 00000003,-0.00000013,0.00000031,-0.00000006,0.00000090,0.00000002,-0.0
 0000228,-0.00000104,0.00000552,-0.00000010,0.00000033,-0.00000264,0.00
 000643,0.00000235,-0.00000550,0.00000067,0.00000217,-0.00000077,0.0000
 0086,-0.00000010,-0.00000048,-0.00000134,0.00000255,-0.00000274,-0.000
 00021,0.00000042,0.00000026,0.00000171,-0.00000099,-0.00000118,0.00000
 130,-0.00000188,-0.00000152,0.00000015,0.00000212,-0.00000140,0.000000
 66,0.00000030,-0.00000093\\\@


 AND THIS OUR LIFE, EXEMPT FROM PUBLIC HAUNT,
 FINDS TONGUES IN TREES, BOOKS IN THE RUNNING BROOKS,
 SERMONS IN STONES, AND GOOD IN EVERYTHING.
 I WOULD NOT CHANGE IT. -- W. SHAKESPEARE
 AS YOU LIKE IT, ACT II, SCENE 1.
 Job cpu time:       0 days  5 hours 26 minutes 34.3 seconds.
 Elapsed time:       0 days  0 hours  8 minutes 26.0 seconds.
 File lengths (MBytes):  RWF=    810 Int=      0 D2E=      0 Chk=     22 Scr=      2
 Normal termination of Gaussian 16 at Fri Jun 14 09:34:20 2019.
