 Entering Gaussian System, Link 0=g16
 Initial command:
 /opt/software/gaussian/g16.b01/l1.exe "/localscratch/rzk.14513168.0/Gau-31643.inp" -scrdir="/localscratch/rzk.14513168.0/"
 Entering Link 1 = /opt/software/gaussian/g16.b01/l1.exe PID=     31651.
  
 Copyright (c) 1988-2017, Gaussian, Inc.  All Rights Reserved.
  
 This is part of the Gaussian(R) 16 program.  It is based on
 the Gaussian(R) 09 system (copyright 2009, Gaussian, Inc.),
 the Gaussian(R) 03 system (copyright 2003, Gaussian, Inc.),
 the Gaussian(R) 98 system (copyright 1998, Gaussian, Inc.),
 the Gaussian(R) 94 system (copyright 1995, Gaussian, Inc.),
 the Gaussian 92(TM) system (copyright 1992, Gaussian, Inc.),
 the Gaussian 90(TM) system (copyright 1990, Gaussian, Inc.),
 the Gaussian 88(TM) system (copyright 1988, Gaussian, Inc.),
 the Gaussian 86(TM) system (copyright 1986, Carnegie Mellon
 University), and the Gaussian 82(TM) system (copyright 1983,
 Carnegie Mellon University). Gaussian is a federally registered
 trademark of Gaussian, Inc.
  
 This software contains proprietary and confidential information,
 including trade secrets, belonging to Gaussian, Inc.
  
 This software is provided under written license and may be
 used, copied, transmitted, or stored only in accord with that
 written license.
  
 The following legend is applicable only to US Government
 contracts under FAR:
  
                    RESTRICTED RIGHTS LEGEND
  
 Use, reproduction and disclosure by the US Government is
 subject to restrictions as set forth in subparagraphs (a)
 and (c) of the Commercial Computer Software - Restricted
 Rights clause in FAR 52.227-19.
  
 Gaussian, Inc.
 340 Quinnipiac St., Bldg. 40, Wallingford CT 06492
  
  
 ---------------------------------------------------------------
 Warning -- This program may not be used in any manner that
 competes with the business of Gaussian, Inc. or will provide
 assistance to any competitor of Gaussian, Inc.  The licensee
 of this program is prohibited from giving any competitor of
 Gaussian, Inc. access to this program.  By using this program,
 the user acknowledges that Gaussian, Inc. is engaged in the
 business of creating and licensing software in the field of
 computational chemistry and represents and warrants to the
 licensee that it is not a competitor of Gaussian, Inc. and that
 it will not use this program in any manner prohibited above.
 ---------------------------------------------------------------
  

 Cite this work as:
 Gaussian 16, Revision B.01,
 M. J. Frisch, G. W. Trucks, H. B. Schlegel, G. E. Scuseria, 
 M. A. Robb, J. R. Cheeseman, G. Scalmani, V. Barone, 
 G. A. Petersson, H. Nakatsuji, X. Li, M. Caricato, A. V. Marenich, 
 J. Bloino, B. G. Janesko, R. Gomperts, B. Mennucci, H. P. Hratchian, 
 J. V. Ortiz, A. F. Izmaylov, J. L. Sonnenberg, D. Williams-Young, 
 F. Ding, F. Lipparini, F. Egidi, J. Goings, B. Peng, A. Petrone, 
 T. Henderson, D. Ranasinghe, V. G. Zakrzewski, J. Gao, N. Rega, 
 G. Zheng, W. Liang, M. Hada, M. Ehara, K. Toyota, R. Fukuda, 
 J. Hasegawa, M. Ishida, T. Nakajima, Y. Honda, O. Kitao, H. Nakai, 
 T. Vreven, K. Throssell, J. A. Montgomery, Jr., J. E. Peralta, 
 F. Ogliaro, M. J. Bearpark, J. J. Heyd, E. N. Brothers, K. N. Kudin, 
 V. N. Staroverov, T. A. Keith, R. Kobayashi, J. Normand, 
 K. Raghavachari, A. P. Rendell, J. C. Burant, S. S. Iyengar, 
 J. Tomasi, M. Cossi, J. M. Millam, M. Klene, C. Adamo, R. Cammi, 
 J. W. Ochterski, R. L. Martin, K. Morokuma, O. Farkas, 
 J. B. Foresman, and D. J. Fox, Gaussian, Inc., Wallingford CT, 2016.
 
 ******************************************
 Gaussian 16:  ES64L-G16RevB.01 20-Dec-2017
                 8-May-2019 
 ******************************************
 %NProcShared=32
 Will use up to   32 processors via shared memory.
 %chk=Step01-opt-singlet-restart.chk
 ----------------------------------------------------------------------
 #p opt rb3lyp/6-31g(d,p) scrf=(iefpcm,solvent=acetonitrile) empiricald
 ispersion=gd3
 ----------------------------------------------------------------------
 1/18=20,19=15,26=3,38=1/1,3;
 2/9=110,12=2,17=6,18=5,40=1/2;
 3/5=1,6=6,7=101,11=2,25=1,30=1,70=2201,71=1,72=2,74=-5,116=1,124=31/1,2,3;
 4//1;
 5/5=2,38=5,53=2/2;
 6/7=2,8=2,9=2,10=2,28=1/1;
 7//1,2,3,16;
 1/18=20,19=15,26=3/3(2);
 2/9=110/2;
 99//99;
 2/9=110/2;
 3/5=1,6=6,7=101,11=2,25=1,30=1,70=2205,71=1,72=2,74=-5,116=1,124=31/1,2,3;
 4/5=5,16=3,69=1/1;
 5/5=2,38=5,53=2/2;
 7//1,2,3,16;
 1/18=20,19=15,26=3/3(-5);
 2/9=110/2;
 6/7=2,8=2,9=2,10=2,19=2,28=1/1;
 99/9=1/99;
 Leave Link    1 at Wed May  8 23:29:30 2019, MaxMem=           0 cpu:               3.7 elap:               0.1
 (Enter /opt/software/gaussian/g16.b01/l101.exe)
 -------------------
 Title Card Required
 -------------------
 Symbolic Z-matrix:
 Charge =  0 Multiplicity = 1
 C                    -0.8364    1.53854  -0.52881 
 H                    -5.10782   1.44424   0.69806 
 C                    -1.19587  -1.53524   0.53251 
 O                    -2.00477  -1.64658  -0.38959 
 O                    -1.64231   1.69973   0.38898 
 N                    -4.79667  -0.41104   0.02971 
 H                    -5.30274  -0.69885  -0.80829 
 N                    -4.63309   1.04563  -0.11254 
 H                    -3.64735   1.26122   0.05276 
 H                    -3.87236  -0.83006  -0.0892 
 C                    -1.31844   1.17     -1.91453 
 H                    -0.82943   1.76882  -2.68746 
 H                    -1.08745   0.11616  -2.10185 
 H                    -2.39922   1.3065   -1.96583 
 C                    -1.6612   -1.13869   1.91622 
 H                    -1.24542  -1.79401   2.68669 
 H                    -1.33104  -0.11582   2.12194 
 H                    -2.75045  -1.1711    1.94612 
 C                     0.62599   1.66965  -0.2656 
 C                     1.04196   2.12097   0.99847 
 C                     1.5921    1.3314   -1.22556 
 C                     2.39557   2.23829   1.29468 
 H                     0.28647   2.37384   1.73427 
 C                     2.94856   1.44013  -0.92364 
 H                     1.29338   0.96191  -2.19981 
 C                     3.35189   1.89646   0.3328 
 H                     2.70887   2.59144   2.27234 
 H                     3.68982   1.16207  -1.66585 
 H                     4.40926   1.98116   0.56493 
 C                     0.25669  -1.75279   0.27756 
 C                     0.65341  -2.22907  -0.98354 
 C                     1.23558  -1.46217   1.24048 
 C                     2.00071  -2.41358  -1.27543 
 H                    -0.11162  -2.4484   -1.7202 
 C                     2.58544  -1.63774   0.94299 
 H                     0.95188  -1.0767    2.21307 
 C                     2.96925  -2.11508  -0.31198 
 H                     2.29908  -2.78436  -2.25117 
 H                     3.33766  -1.39262   1.68545 
 H                     4.02209  -2.24923  -0.54108 
 
 Add virtual bond connecting atoms H10        and O4         Dist= 3.89D+00.
 Add virtual bond connecting atoms H9         and O5         Dist= 3.93D+00.
 ITRead=  0  0  0  0  0  0  0  0  0  0  0  0  0  0  0  0  0  0  0  0
 ITRead=  0  0  0  0  0  0  0  0  0  0  0  0  0  0  0  0  0  0  0  0
 MicOpt= -1 -1 -1 -1 -1 -1 -1 -1 -1 -1 -1 -1 -1 -1 -1 -1 -1 -1 -1 -1
 MicOpt= -1 -1 -1 -1 -1 -1 -1 -1 -1 -1 -1 -1 -1 -1 -1 -1 -1 -1 -1 -1
 NAtoms=     40 NQM=       40 NQMF=       0 NMMI=      0 NMMIF=      0
                NMic=       0 NMicF=      0.
                    Isotopes and Nuclear Properties:
 (Nuclear quadrupole moments (NQMom) in fm**2, nuclear magnetic moments (NMagM)
  in nuclear magnetons)

  Atom         1           2           3           4           5           6           7           8           9          10
 IAtWgt=          12           1          12          16          16          14           1          14           1           1
 AtmWgt=  12.0000000   1.0078250  12.0000000  15.9949146  15.9949146  14.0030740   1.0078250  14.0030740   1.0078250   1.0078250
 NucSpn=           0           1           0           0           0           2           1           2           1           1
 AtZEff=  -0.0000000  -0.0000000  -0.0000000  -0.0000000  -0.0000000  -0.0000000  -0.0000000  -0.0000000  -0.0000000  -0.0000000
 NQMom=    0.0000000   0.0000000   0.0000000   0.0000000   0.0000000   2.0440000   0.0000000   2.0440000   0.0000000   0.0000000
 NMagM=    0.0000000   2.7928460   0.0000000   0.0000000   0.0000000   0.4037610   2.7928460   0.4037610   2.7928460   2.7928460
 AtZNuc=   6.0000000   1.0000000   6.0000000   8.0000000   8.0000000   7.0000000   1.0000000   7.0000000   1.0000000   1.0000000

  Atom        11          12          13          14          15          16          17          18          19          20
 IAtWgt=          12           1           1           1          12           1           1           1          12          12
 AtmWgt=  12.0000000   1.0078250   1.0078250   1.0078250  12.0000000   1.0078250   1.0078250   1.0078250  12.0000000  12.0000000
 NucSpn=           0           1           1           1           0           1           1           1           0           0
 AtZEff=  -0.0000000  -0.0000000  -0.0000000  -0.0000000  -0.0000000  -0.0000000  -0.0000000  -0.0000000  -0.0000000  -0.0000000
 NQMom=    0.0000000   0.0000000   0.0000000   0.0000000   0.0000000   0.0000000   0.0000000   0.0000000   0.0000000   0.0000000
 NMagM=    0.0000000   2.7928460   2.7928460   2.7928460   0.0000000   2.7928460   2.7928460   2.7928460   0.0000000   0.0000000
 AtZNuc=   6.0000000   1.0000000   1.0000000   1.0000000   6.0000000   1.0000000   1.0000000   1.0000000   6.0000000   6.0000000

  Atom        21          22          23          24          25          26          27          28          29          30
 IAtWgt=          12          12           1          12           1          12           1           1           1          12
 AtmWgt=  12.0000000  12.0000000   1.0078250  12.0000000   1.0078250  12.0000000   1.0078250   1.0078250   1.0078250  12.0000000
 NucSpn=           0           0           1           0           1           0           1           1           1           0
 AtZEff=  -0.0000000  -0.0000000  -0.0000000  -0.0000000  -0.0000000  -0.0000000  -0.0000000  -0.0000000  -0.0000000  -0.0000000
 NQMom=    0.0000000   0.0000000   0.0000000   0.0000000   0.0000000   0.0000000   0.0000000   0.0000000   0.0000000   0.0000000
 NMagM=    0.0000000   0.0000000   2.7928460   0.0000000   2.7928460   0.0000000   2.7928460   2.7928460   2.7928460   0.0000000
 AtZNuc=   6.0000000   6.0000000   1.0000000   6.0000000   1.0000000   6.0000000   1.0000000   1.0000000   1.0000000   6.0000000

  Atom        31          32          33          34          35          36          37          38          39          40
 IAtWgt=          12          12          12           1          12           1          12           1           1           1
 AtmWgt=  12.0000000  12.0000000  12.0000000   1.0078250  12.0000000   1.0078250  12.0000000   1.0078250   1.0078250   1.0078250
 NucSpn=           0           0           0           1           0           1           0           1           1           1
 AtZEff=  -0.0000000  -0.0000000  -0.0000000  -0.0000000  -0.0000000  -0.0000000  -0.0000000  -0.0000000  -0.0000000  -0.0000000
 NQMom=    0.0000000   0.0000000   0.0000000   0.0000000   0.0000000   0.0000000   0.0000000   0.0000000   0.0000000   0.0000000
 NMagM=    0.0000000   0.0000000   0.0000000   2.7928460   0.0000000   2.7928460   0.0000000   2.7928460   2.7928460   2.7928460
 AtZNuc=   6.0000000   6.0000000   6.0000000   1.0000000   6.0000000   1.0000000   6.0000000   1.0000000   1.0000000   1.0000000
 Leave Link  101 at Wed May  8 23:29:31 2019, MaxMem=   104857600 cpu:               6.0 elap:               0.2
 (Enter /opt/software/gaussian/g16.b01/l103.exe)

 GradGradGradGradGradGradGradGradGradGradGradGradGradGradGradGradGradGrad
 Berny optimization.
 Initialization pass.
                           ----------------------------
                           !    Initial Parameters    !
                           ! (Angstroms and Degrees)  !
 --------------------------                            --------------------------
 ! Name  Definition              Value          Derivative Info.                !
 --------------------------------------------------------------------------------
 ! R1    R(1,5)                  1.232          estimate D2E/DX2                !
 ! R2    R(1,11)                 1.5127         estimate D2E/DX2                !
 ! R3    R(1,19)                 1.4917         estimate D2E/DX2                !
 ! R4    R(2,8)                  1.0205         estimate D2E/DX2                !
 ! R5    R(3,4)                  1.2317         estimate D2E/DX2                !
 ! R6    R(3,15)                 1.5128         estimate D2E/DX2                !
 ! R7    R(3,30)                 1.4907         estimate D2E/DX2                !
 ! R8    R(4,10)                 2.0603         estimate D2E/DX2                !
 ! R9    R(5,9)                  2.0798         estimate D2E/DX2                !
 ! R10   R(6,7)                  1.0204         estimate D2E/DX2                !
 ! R11   R(6,8)                  1.4727         estimate D2E/DX2                !
 ! R12   R(6,10)                 1.0218         estimate D2E/DX2                !
 ! R13   R(8,9)                  1.0225         estimate D2E/DX2                !
 ! R14   R(11,12)                1.0932         estimate D2E/DX2                !
 ! R15   R(11,13)                1.095          estimate D2E/DX2                !
 ! R16   R(11,14)                1.0906         estimate D2E/DX2                !
 ! R17   R(15,16)                1.0936         estimate D2E/DX2                !
 ! R18   R(15,17)                1.0943         estimate D2E/DX2                !
 ! R19   R(15,18)                1.0901         estimate D2E/DX2                !
 ! R20   R(19,20)                1.4052         estimate D2E/DX2                !
 ! R21   R(19,21)                1.4033         estimate D2E/DX2                !
 ! R22   R(20,22)                1.3906         estimate D2E/DX2                !
 ! R23   R(20,23)                1.0845         estimate D2E/DX2                !
 ! R24   R(21,24)                1.3939         estimate D2E/DX2                !
 ! R25   R(21,25)                1.0839         estimate D2E/DX2                !
 ! R26   R(22,26)                1.3988         estimate D2E/DX2                !
 ! R27   R(22,27)                1.0857         estimate D2E/DX2                !
 ! R28   R(24,26)                1.3963         estimate D2E/DX2                !
 ! R29   R(24,28)                1.0852         estimate D2E/DX2                !
 ! R30   R(26,29)                1.0859         estimate D2E/DX2                !
 ! R31   R(30,31)                1.4052         estimate D2E/DX2                !
 ! R32   R(30,32)                1.4035         estimate D2E/DX2                !
 ! R33   R(31,33)                1.3908         estimate D2E/DX2                !
 ! R34   R(31,34)                1.0845         estimate D2E/DX2                !
 ! R35   R(32,35)                1.3934         estimate D2E/DX2                !
 ! R36   R(32,36)                1.084          estimate D2E/DX2                !
 ! R37   R(33,37)                1.3984         estimate D2E/DX2                !
 ! R38   R(33,38)                1.0856         estimate D2E/DX2                !
 ! R39   R(35,37)                1.3965         estimate D2E/DX2                !
 ! R40   R(35,39)                1.085          estimate D2E/DX2                !
 ! R41   R(37,40)                1.0858         estimate D2E/DX2                !
 ! A1    A(5,1,11)             120.3873         estimate D2E/DX2                !
 ! A2    A(5,1,19)             119.8917         estimate D2E/DX2                !
 ! A3    A(11,1,19)            119.6989         estimate D2E/DX2                !
 ! A4    A(4,3,15)             120.429          estimate D2E/DX2                !
 ! A5    A(4,3,30)             119.9145         estimate D2E/DX2                !
 ! A6    A(15,3,30)            119.632          estimate D2E/DX2                !
 ! A7    A(3,4,10)             116.766          estimate D2E/DX2                !
 ! A8    A(1,5,9)              118.8564         estimate D2E/DX2                !
 ! A9    A(7,6,8)              104.7588         estimate D2E/DX2                !
 ! A10   A(7,6,10)             103.7331         estimate D2E/DX2                !
 ! A11   A(8,6,10)             107.0915         estimate D2E/DX2                !
 ! A12   A(2,8,6)              104.9495         estimate D2E/DX2                !
 ! A13   A(2,8,9)              103.7517         estimate D2E/DX2                !
 ! A14   A(6,8,9)              107.4585         estimate D2E/DX2                !
 ! A15   A(1,11,12)            111.8187         estimate D2E/DX2                !
 ! A16   A(1,11,13)            108.9023         estimate D2E/DX2                !
 ! A17   A(1,11,14)            109.1709         estimate D2E/DX2                !
 ! A18   A(12,11,13)           108.171          estimate D2E/DX2                !
 ! A19   A(12,11,14)           109.9667         estimate D2E/DX2                !
 ! A20   A(13,11,14)           108.7516         estimate D2E/DX2                !
 ! A21   A(3,15,16)            111.7401         estimate D2E/DX2                !
 ! A22   A(3,15,17)            108.915          estimate D2E/DX2                !
 ! A23   A(3,15,18)            108.9444         estimate D2E/DX2                !
 ! A24   A(16,15,17)           108.2368         estimate D2E/DX2                !
 ! A25   A(16,15,18)           110.0443         estimate D2E/DX2                !
 ! A26   A(17,15,18)           108.9102         estimate D2E/DX2                !
 ! A27   A(1,19,20)            118.5007         estimate D2E/DX2                !
 ! A28   A(1,19,21)            122.2116         estimate D2E/DX2                !
 ! A29   A(20,19,21)           119.2736         estimate D2E/DX2                !
 ! A30   A(19,20,22)           120.4549         estimate D2E/DX2                !
 ! A31   A(19,20,23)           118.6204         estimate D2E/DX2                !
 ! A32   A(22,20,23)           120.9247         estimate D2E/DX2                !
 ! A33   A(19,21,24)           120.1975         estimate D2E/DX2                !
 ! A34   A(19,21,25)           120.483          estimate D2E/DX2                !
 ! A35   A(24,21,25)           119.3047         estimate D2E/DX2                !
 ! A36   A(20,22,26)           119.8939         estimate D2E/DX2                !
 ! A37   A(20,22,27)           120.011          estimate D2E/DX2                !
 ! A38   A(26,22,27)           120.0948         estimate D2E/DX2                !
 ! A39   A(21,24,26)           120.0999         estimate D2E/DX2                !
 ! A40   A(21,24,28)           119.7743         estimate D2E/DX2                !
 ! A41   A(26,24,28)           120.1243         estimate D2E/DX2                !
 ! A42   A(22,26,24)           120.0774         estimate D2E/DX2                !
 ! A43   A(22,26,29)           119.9782         estimate D2E/DX2                !
 ! A44   A(24,26,29)           119.9437         estimate D2E/DX2                !
 ! A45   A(3,30,31)            118.5578         estimate D2E/DX2                !
 ! A46   A(3,30,32)            122.1429         estimate D2E/DX2                !
 ! A47   A(31,30,32)           119.2746         estimate D2E/DX2                !
 ! A48   A(30,31,33)           120.4501         estimate D2E/DX2                !
 ! A49   A(30,31,34)           118.6216         estimate D2E/DX2                !
 ! A50   A(33,31,34)           120.9284         estimate D2E/DX2                !
 ! A51   A(30,32,35)           120.205          estimate D2E/DX2                !
 ! A52   A(30,32,36)           120.4421         estimate D2E/DX2                !
 ! A53   A(35,32,36)           119.3363         estimate D2E/DX2                !
 ! A54   A(31,33,37)           119.8695         estimate D2E/DX2                !
 ! A55   A(31,33,38)           120.0115         estimate D2E/DX2                !
 ! A56   A(37,33,38)           120.1184         estimate D2E/DX2                !
 ! A57   A(32,35,37)           120.0802         estimate D2E/DX2                !
 ! A58   A(32,35,39)           119.8076         estimate D2E/DX2                !
 ! A59   A(37,35,39)           120.109          estimate D2E/DX2                !
 ! A60   A(33,37,35)           120.1177         estimate D2E/DX2                !
 ! A61   A(33,37,40)           119.9906         estimate D2E/DX2                !
 ! A62   A(35,37,40)           119.8909         estimate D2E/DX2                !
 ! A63   L(5,9,8,4,-1)         180.0            estimate D2E/DX2                !
 ! A64   L(4,10,6,5,-1)        179.5635         estimate D2E/DX2                !
 ! A65   L(5,9,8,4,-2)         180.0            estimate D2E/DX2                !
 ! A66   L(4,10,6,5,-2)        178.1147         estimate D2E/DX2                !
 ! D1    D(11,1,5,9)             6.4194         estimate D2E/DX2                !
 ! D2    D(19,1,5,9)          -171.8668         estimate D2E/DX2                !
 ! D3    D(5,1,11,12)          134.3321         estimate D2E/DX2                !
 ! D4    D(5,1,11,13)         -106.1857         estimate D2E/DX2                !
 ! D5    D(5,1,11,14)           12.4206         estimate D2E/DX2                !
 ! D6    D(19,1,11,12)         -47.3784         estimate D2E/DX2                !
 ! D7    D(19,1,11,13)          72.1038         estimate D2E/DX2                !
 ! D8    D(19,1,11,14)        -169.2899         estimate D2E/DX2                !
 ! D9    D(5,1,19,20)           -6.9337         estimate D2E/DX2                !
 ! D10   D(5,1,19,21)          171.6939         estimate D2E/DX2                !
 ! D11   D(11,1,19,20)         174.7682         estimate D2E/DX2                !
 ! D12   D(11,1,19,21)          -6.6042         estimate D2E/DX2                !
 ! D13   D(15,3,4,10)           14.8451         estimate D2E/DX2                !
 ! D14   D(30,3,4,10)         -163.3469         estimate D2E/DX2                !
 ! D15   D(4,3,15,16)          131.9487         estimate D2E/DX2                !
 ! D16   D(4,3,15,17)         -108.5277         estimate D2E/DX2                !
 ! D17   D(4,3,15,18)           10.1462         estimate D2E/DX2                !
 ! D18   D(30,3,15,16)         -49.8541         estimate D2E/DX2                !
 ! D19   D(30,3,15,17)          69.6695         estimate D2E/DX2                !
 ! D20   D(30,3,15,18)        -171.6567         estimate D2E/DX2                !
 ! D21   D(4,3,30,31)           -7.0752         estimate D2E/DX2                !
 ! D22   D(4,3,30,32)          171.1003         estimate D2E/DX2                !
 ! D23   D(15,3,30,31)         174.7182         estimate D2E/DX2                !
 ! D24   D(15,3,30,32)          -7.1062         estimate D2E/DX2                !
 ! D25   D(3,4,6,7)           -174.9851         estimate D2E/DX2                !
 ! D26   D(3,4,6,8)             75.1096         estimate D2E/DX2                !
 ! D27   D(1,5,8,2)           -168.1071         estimate D2E/DX2                !
 ! D28   D(1,5,8,6)             81.0766         estimate D2E/DX2                !
 ! D29   D(7,6,8,2)            119.9266         estimate D2E/DX2                !
 ! D30   D(7,6,8,9)           -130.0809         estimate D2E/DX2                !
 ! D31   D(10,6,8,2)          -130.3278         estimate D2E/DX2                !
 ! D32   D(10,6,8,9)           -20.3353         estimate D2E/DX2                !
 ! D33   D(1,19,20,22)         178.9915         estimate D2E/DX2                !
 ! D34   D(1,19,20,23)          -0.9716         estimate D2E/DX2                !
 ! D35   D(21,19,20,22)          0.3227         estimate D2E/DX2                !
 ! D36   D(21,19,20,23)       -179.6404         estimate D2E/DX2                !
 ! D37   D(1,19,21,24)        -178.4623         estimate D2E/DX2                !
 ! D38   D(1,19,21,25)           0.1275         estimate D2E/DX2                !
 ! D39   D(20,19,21,24)          0.155          estimate D2E/DX2                !
 ! D40   D(20,19,21,25)        178.7448         estimate D2E/DX2                !
 ! D41   D(19,20,22,26)         -0.4508         estimate D2E/DX2                !
 ! D42   D(19,20,22,27)        179.7604         estimate D2E/DX2                !
 ! D43   D(23,20,22,26)        179.5115         estimate D2E/DX2                !
 ! D44   D(23,20,22,27)         -0.2773         estimate D2E/DX2                !
 ! D45   D(19,21,24,26)         -0.5026         estimate D2E/DX2                !
 ! D46   D(19,21,24,28)        179.0521         estimate D2E/DX2                !
 ! D47   D(25,21,24,26)       -179.109          estimate D2E/DX2                !
 ! D48   D(25,21,24,28)          0.4457         estimate D2E/DX2                !
 ! D49   D(20,22,26,24)          0.1013         estimate D2E/DX2                !
 ! D50   D(20,22,26,29)       -179.5871         estimate D2E/DX2                !
 ! D51   D(27,22,26,24)        179.8899         estimate D2E/DX2                !
 ! D52   D(27,22,26,29)          0.2015         estimate D2E/DX2                !
 ! D53   D(21,24,26,22)          0.3752         estimate D2E/DX2                !
 ! D54   D(21,24,26,29)       -179.9363         estimate D2E/DX2                !
 ! D55   D(28,24,26,22)       -179.1779         estimate D2E/DX2                !
 ! D56   D(28,24,26,29)          0.5106         estimate D2E/DX2                !
 ! D57   D(3,30,31,33)         178.3518         estimate D2E/DX2                !
 ! D58   D(3,30,31,34)          -1.6536         estimate D2E/DX2                !
 ! D59   D(32,30,31,33)          0.1228         estimate D2E/DX2                !
 ! D60   D(32,30,31,34)       -179.8827         estimate D2E/DX2                !
 ! D61   D(3,30,32,35)        -177.7888         estimate D2E/DX2                !
 ! D62   D(3,30,32,36)           0.7182         estimate D2E/DX2                !
 ! D63   D(31,30,32,35)          0.3741         estimate D2E/DX2                !
 ! D64   D(31,30,32,36)        178.8811         estimate D2E/DX2                !
 ! D65   D(30,31,33,37)         -0.438          estimate D2E/DX2                !
 ! D66   D(30,31,33,38)        179.8406         estimate D2E/DX2                !
 ! D67   D(34,31,33,37)        179.5675         estimate D2E/DX2                !
 ! D68   D(34,31,33,38)         -0.1538         estimate D2E/DX2                !
 ! D69   D(30,32,35,37)         -0.554          estimate D2E/DX2                !
 ! D70   D(30,32,35,39)        178.8025         estimate D2E/DX2                !
 ! D71   D(36,32,35,37)       -179.0774         estimate D2E/DX2                !
 ! D72   D(36,32,35,39)          0.2791         estimate D2E/DX2                !
 ! D73   D(31,33,37,35)          0.2588         estimate D2E/DX2                !
 ! D74   D(31,33,37,40)       -179.406          estimate D2E/DX2                !
 ! D75   D(38,33,37,35)        179.9799         estimate D2E/DX2                !
 ! D76   D(38,33,37,40)          0.315          estimate D2E/DX2                !
 ! D77   D(32,35,37,33)          0.2369         estimate D2E/DX2                !
 ! D78   D(32,35,37,40)        179.9021         estimate D2E/DX2                !
 ! D79   D(39,35,37,33)       -179.1176         estimate D2E/DX2                !
 ! D80   D(39,35,37,40)          0.5475         estimate D2E/DX2                !
 --------------------------------------------------------------------------------
 Trust Radius=3.00D-01 FncErr=1.00D-07 GrdErr=1.00D-06 EigMax=2.50D+02 EigMin=1.00D-04
 Number of steps in this run=    197 maximum allowed number of steps=    240.
 GradGradGradGradGradGradGradGradGradGradGradGradGradGradGradGradGradGrad

 Leave Link  103 at Wed May  8 23:29:31 2019, MaxMem=   104857600 cpu:               1.5 elap:               0.1
 (Enter /opt/software/gaussian/g16.b01/l202.exe)
                          Input orientation:                          
 ---------------------------------------------------------------------
 Center     Atomic      Atomic             Coordinates (Angstroms)
 Number     Number       Type             X           Y           Z
 ---------------------------------------------------------------------
      1          6           0       -0.836403    1.538535   -0.528806
      2          1           0       -5.107820    1.444243    0.698062
      3          6           0       -1.195868   -1.535236    0.532514
      4          8           0       -2.004773   -1.646579   -0.389589
      5          8           0       -1.642308    1.699732    0.388984
      6          7           0       -4.796669   -0.411043    0.029709
      7          1           0       -5.302736   -0.698851   -0.808287
      8          7           0       -4.633090    1.045631   -0.112540
      9          1           0       -3.647351    1.261218    0.052759
     10          1           0       -3.872357   -0.830064   -0.089204
     11          6           0       -1.318438    1.169997   -1.914527
     12          1           0       -0.829429    1.768818   -2.687456
     13          1           0       -1.087448    0.116160   -2.101854
     14          1           0       -2.399215    1.306495   -1.965830
     15          6           0       -1.661203   -1.138685    1.916216
     16          1           0       -1.245416   -1.794006    2.686694
     17          1           0       -1.331044   -0.115816    2.121941
     18          1           0       -2.750447   -1.171100    1.946117
     19          6           0        0.625991    1.669648   -0.265603
     20          6           0        1.041961    2.120967    0.998472
     21          6           0        1.592097    1.331397   -1.225559
     22          6           0        2.395566    2.238287    1.294684
     23          1           0        0.286466    2.373840    1.734272
     24          6           0        2.948561    1.440134   -0.923638
     25          1           0        1.293384    0.961913   -2.199809
     26          6           0        3.351888    1.896455    0.332798
     27          1           0        2.708870    2.591436    2.272338
     28          1           0        3.689821    1.162071   -1.665847
     29          1           0        4.409256    1.981160    0.564930
     30          6           0        0.256692   -1.752791    0.277557
     31          6           0        0.653406   -2.229065   -0.983540
     32          6           0        1.235582   -1.462167    1.240484
     33          6           0        2.000706   -2.413578   -1.275432
     34          1           0       -0.111620   -2.448404   -1.720202
     35          6           0        2.585437   -1.637740    0.942987
     36          1           0        0.951879   -1.076699    2.213072
     37          6           0        2.969246   -2.115081   -0.311982
     38          1           0        2.299084   -2.784355   -2.251165
     39          1           0        3.337658   -1.392624    1.685446
     40          1           0        4.022090   -2.249234   -0.541080
 ---------------------------------------------------------------------
                    Distance matrix (angstroms):
                    1          2          3          4          5
     1  C    0.000000
     2  H    4.445121   0.000000
     3  C    3.271648   4.920170   0.000000
     4  O    3.395500   4.512767   1.231665   0.000000
     5  O    1.231993   3.488635   3.268781   3.454758   0.000000
     6  N    4.449326   1.996396   3.805574   3.081727   3.812406
     7  H    5.003213   2.626772   4.400415   3.456885   4.537113
     8  N    3.851112   1.020459   4.346431   3.772638   3.102282
     9  H    2.883843   1.607135   3.749678   3.368830   2.079793
    10  H    3.875633   2.705296   2.836793   2.060291   3.406120
    11  C    1.512746   4.610884   3.649838   3.275606   2.385723
    12  H    2.170910   5.465502   4.628094   4.280954   3.182771
    13  H    2.135569   5.076093   3.111070   2.623087   3.003305
    14  H    2.135711   3.801557   3.970542   3.370574   2.504534
    15  C    3.718324   4.476001   1.512753   2.385945   3.223260
    16  H    4.648931   5.418402   2.170232   3.172046   4.200381
    17  H    3.163543   4.327268   2.135253   3.017438   2.529079
    18  H    4.138953   3.735621   2.132507   2.497525   3.448813
    19  C    1.491664   5.818595   3.771928   4.234814   2.361053
    20  C    2.489991   6.194191   4.311939   5.040209   2.784639
    21  C    2.534952   6.971509   4.368198   4.743908   3.633703
    22  C    3.776293   7.568835   5.264862   6.106713   4.173100
    23  H    2.660844   5.571015   4.349990   5.091594   2.446301
    24  C    3.806774   8.217980   5.305610   5.860761   4.781887
    25  H    2.767804   7.043132   4.460686   4.578096   3.983028
    26  C    4.290950   8.479656   5.700743   6.462875   4.998385
    27  H    4.639393   8.055746   5.941665   6.874959   4.824408
    28  H    4.682018   9.114065   5.998184   6.476554   5.739600
    29  H    5.376720   9.533139   6.616911   7.430435   6.060659
    30  C    3.560605   6.259061   1.490726   2.360209   3.941894
    31  C    4.076901   7.036526   2.489906   2.785316   4.752849
    32  C    4.053113   6.998585   2.533478   3.631948   4.359462
    33  C    4.921975   8.325179   3.776008   4.173352   5.741180
    34  H    4.223792   6.779581   2.661616   2.448976   4.898847
    35  C    4.895292   8.291249   3.804900   4.779735   5.414745
    36  H    4.189904   6.735752   2.765384   3.980000   4.214934
    37  C    5.280046   8.884142   4.289239   4.996637   6.025826
    38  H    5.611165   9.024478   4.639381   4.825265   6.527786
    39  H    5.560341   8.963751   4.680005   5.736884   6.003627
    40  H    6.160544   9.926354   5.374894   6.058813   6.967407
                    6          7          8          9         10
     6  N    0.000000
     7  H    1.020380   0.000000
     8  N    1.472716   1.993918   0.000000
     9  H    2.029266   2.706210   1.022489   0.000000
    10  H    1.021798   1.606325   2.024226   2.108137   0.000000
    11  C    4.286937   4.537730   3.774857   3.049979   3.722170
    12  H    5.279562   5.443449   4.649842   3.963221   4.771217
    13  H    4.310432   4.483995   4.170475   3.536470   3.563961
    14  H    3.560884   3.713725   2.914263   2.373730   3.202617
    15  C    3.730887   4.569150   4.209418   3.629985   3.001026
    16  H    4.645810   5.465904   5.232168   4.694816   3.941524
    17  H    4.058959   4.969960   4.152755   3.397501   3.443484
    18  H    2.904708   3.784698   3.563188   3.210204   2.348940
    19  C    5.815645   6.407347   5.298184   4.304605   5.149253
    20  C    6.437327   7.174324   5.881913   4.860369   5.834565
    21  C    6.740039   7.199635   6.330358   5.393592   5.985271
    22  C    7.768356   8.503712   7.266685   6.246110   7.114547
    23  H    6.041471   6.866237   5.420045   4.420445   5.557506
    24  C    8.020244   8.524815   7.635113   6.670189   7.237058
    25  H    6.629065   6.942857   6.283852   5.438245   5.860948
    26  C    8.474396   9.107151   8.042518   7.033583   7.733156
    27  H    8.389123   9.192501   7.872835   6.862766   7.784349
    28  H    8.796028   9.223043   8.467418   7.536414   7.977527
    29  H    9.526707  10.168135   9.115821   8.104909   8.770176
    30  C    5.234326   5.761691   5.647416   4.937240   4.246762
    31  C    5.833969   6.152064   6.279277   5.634936   4.820744
    32  C    6.241706   6.894180   6.523882   5.715816   5.315888
    33  C    7.205404   7.516567   7.571373   6.867952   6.197380
    34  H    5.400251   5.553396   5.936038   5.422737   4.407076
    35  C    7.538856   8.134602   7.773143   6.931386   6.589451
    36  H    6.185142   6.956406   6.411290   5.593364   5.351127
    37  C    7.958011   8.407004   8.235617   7.437189   6.964799
    38  H    7.822065   8.013669   8.203508   7.552140   6.824955
    39  H    8.358962   9.019780   8.527055   7.648457   7.446487
    40  H    9.026365   9.456610   9.271026   8.455545   8.033712
                   11         12         13         14         15
    11  C    0.000000
    12  H    1.093223   0.000000
    13  H    1.094998   1.772225   0.000000
    14  H    1.090570   1.788495   1.776551   0.000000
    15  C    4.485766   5.508105   4.248378   4.646918   0.000000
    16  H    5.473745   6.461288   5.157895   5.708795   1.093600
    17  H    4.236337   5.189775   4.237168   4.458007   1.094344
    18  H    4.736661   5.814071   4.561652   4.643831   1.090136
    19  C    2.597962   2.827270   2.953137   3.489201   4.228277
    20  C    3.867996   4.148756   4.262119   4.614341   4.332976
    21  C    2.995320   2.862214   3.069960   4.059457   5.153253
    22  C    5.023356   5.145720   5.307662   5.872743   5.314849
    23  H    4.163975   4.600321   4.658393   4.694983   4.020491
    24  C    4.388863   4.182379   4.408001   5.450021   5.997083
    25  H    2.635583   2.322764   2.528489   3.716015   5.484866
    26  C    5.233561   5.159616   5.367000   6.221489   6.070450
    27  H    5.980764   6.147830   6.298617   6.760597   5.756576
    28  H    5.014435   4.672841   4.909820   6.098131   6.837990
    29  H    6.293820   6.169840   6.387779   7.294875   6.957721
    30  C    3.978562   4.729978   3.310783   4.630967   2.596276
    31  C    4.038382   4.591862   3.127504   4.773214   3.867160
    32  C    4.837913   5.489285   4.365639   5.581907   2.992093
    33  C    4.926172   5.243654   4.076671   5.803008   5.022106
    34  H    3.819293   4.385863   2.770359   4.403713   4.164145
    35  C    5.593658   6.037058   5.083041   6.478927   4.385223
    36  H    5.219105   5.940135   4.919385   5.862821   2.630620
    37  C    5.634192   5.929374   4.963753   6.577444   5.230609
    38  H    5.369980   5.541600   4.461376   6.236223   5.979897
    39  H    6.419195   6.817742   6.016779   7.316336   5.010624
    40  H    6.488354   6.654991   5.842815   7.477050   6.290584
                   16         17         18         19         20
    16  H    0.000000
    17  H    1.772738   0.000000
    18  H    1.789297   1.777426   0.000000
    19  C    4.920886   3.566263   4.935776   0.000000
    20  C    4.838306   3.449135   5.110587   1.405207   0.000000
    21  C    5.755462   4.673857   5.931248   1.403314   2.423300
    22  C    5.608371   4.484839   6.207232   2.426776   1.390594
    23  H    4.541444   2.994163   4.672721   2.147246   1.084490
    24  C    6.409649   5.478280   6.894398   2.424875   2.791624
    25  H    6.157800   5.169782   6.171792   2.165053   3.411103
    26  C    6.347876   5.401863   7.017919   2.800007   2.414392
    27  H    5.919474   4.865464   6.638316   3.410165   2.150038
    28  H    7.213846   6.417898   7.743838   3.406666   3.876756
    29  H    7.122435   6.306555   7.943914   3.885861   3.397967
    30  C    2.839361   2.932975   3.487885   3.484895   4.017756
    31  C    4.155168   4.248279   4.613935   3.964360   4.796053
    32  C    2.890846   3.029389   4.058456   3.528196   3.596513
    33  C    5.159421   5.284166   5.873294   4.425193   5.162551
    34  H    4.597223   4.657255   4.694338   4.429253   5.440688
    35  C    4.211932   4.364059   5.449374   4.029756   4.063653
    36  H    2.359439   2.478576   3.713138   3.713819   3.421759
    37  C    5.182521   5.330435   6.221334   4.451648   4.834855
    38  H    6.158468   6.278773   6.761474   5.155564   6.016867
    39  H    4.708309   4.859789   6.097708   4.531803   4.252938
    40  H    6.194544   6.348165   7.294915   5.192977   5.509088
                   21         22         23         24         25
    21  C    0.000000
    22  C    2.796361   0.000000
    23  H    3.398817   2.158684   0.000000
    24  C    1.393906   2.421529   3.875957   0.000000
    25  H    1.083933   3.880131   4.299351   2.144043   0.000000
    26  C    2.417567   1.398794   3.404238   1.396257   3.394835
    27  H    3.882031   1.085671   2.490965   3.405468   4.965787
    28  H    2.150109   3.405595   4.961050   1.085200   2.463349
    29  H    3.400651   2.157221   4.303366   2.154570   4.288508
    30  C    3.681695   4.640909   4.376298   4.345549   3.818598
    31  C    3.690068   5.308734   5.357974   4.328319   3.474367
    32  C    3.743324   3.878384   3.982411   4.005131   4.208933
    33  C    3.767531   5.329283   5.909002   3.984129   3.570535
    34  H    4.175430   6.110695   5.945242   5.011981   3.719452
    35  C    3.808555   3.896579   4.690861   3.617935   4.278407
    36  H    4.246527   3.730523   3.546582   4.490004   4.872995
    37  C    3.822221   4.675714   5.615592   3.607507   3.979987
    38  H    4.300129   6.148926   6.822120   4.475540   3.879252
    39  H    4.352152   3.771438   4.847516   3.870818   4.981778
    40  H    4.381130   5.114045   6.364348   3.861379   4.528651
                   26         27         28         29         30
    26  C    0.000000
    27  H    2.158306   0.000000
    28  H    2.155945   4.302865   0.000000
    29  H    1.085858   2.485758   2.482914   0.000000
    30  C    4.785424   5.372582   4.905060   5.591848   0.000000
    31  C    5.102398   6.169514   4.602734   5.850655   1.405199
    32  C    4.072221   4.434749   4.621328   4.731287   1.403537
    33  C    4.794630   6.175624   3.973764   5.338705   2.426932
    34  H    5.923554   7.021077   5.243037   6.729130   2.147224
    35  C    3.667467   4.434900   3.983042   4.070096   2.424683
    36  H    4.258535   4.067646   5.249231   4.901054   2.164857
    37  C    4.081002   5.375668   3.618274   4.429649   2.799421
    38  H    5.449334   7.037694   4.225047   5.923964   3.410267
    39  H    3.556389   4.075850   4.228670   3.712990   3.406497
    40  H    4.289472   5.750822   3.607285   4.389691   3.885208
                   31         32         33         34         35
    31  C    0.000000
    32  C    2.423498   0.000000
    33  C    1.390850   2.796503   0.000000
    34  H    1.084456   3.399011   2.158924   0.000000
    35  C    2.791758   1.393355   2.421821   3.876063   0.000000
    36  H    3.411065   1.083974   3.880328   4.299215   2.143920
    37  C    2.413938   2.417031   1.398358   3.403810   1.396464
    38  H    2.150227   3.882117   1.085615   2.491240   3.405779
    39  H    3.876639   2.149779   3.405376   4.960910   1.084972
    40  H    3.397677   3.399716   2.156913   4.303203   2.154148
                   36         37         38         39         40
    36  H    0.000000
    37  C    3.394688   0.000000
    38  H    4.965930   2.158119   0.000000
    39  H    2.463765   2.155781   4.302611   0.000000
    40  H    4.287935   1.085801   2.485859   2.481863   0.000000
 Stoichiometry    C16H20N2O2
 Framework group  C1[X(C16H20N2O2)]
 Deg. of freedom   114
 Full point group                 C1      NOp   1
 Largest Abelian subgroup         C1      NOp   1
 Largest concise Abelian subgroup C1      NOp   1
                         Standard orientation:                         
 ---------------------------------------------------------------------
 Center     Atomic      Atomic             Coordinates (Angstroms)
 Number     Number       Type             X           Y           Z
 ---------------------------------------------------------------------
      1          6           0        0.836403   -1.538535   -0.528806
      2          1           0        5.107820   -1.444242    0.698062
      3          6           0        1.195868    1.535236    0.532514
      4          8           0        2.004773    1.646579   -0.389589
      5          8           0        1.642308   -1.699732    0.388984
      6          7           0        4.796669    0.411043    0.029709
      7          1           0        5.302736    0.698852   -0.808287
      8          7           0        4.633090   -1.045631   -0.112540
      9          1           0        3.647351   -1.261218    0.052759
     10          1           0        3.872357    0.830064   -0.089204
     11          6           0        1.318438   -1.169997   -1.914527
     12          1           0        0.829429   -1.768818   -2.687456
     13          1           0        1.087448   -0.116160   -2.101854
     14          1           0        2.399215   -1.306495   -1.965830
     15          6           0        1.661203    1.138685    1.916216
     16          1           0        1.245416    1.794006    2.686694
     17          1           0        1.331044    0.115816    2.121941
     18          1           0        2.750447    1.171100    1.946117
     19          6           0       -0.625991   -1.669648   -0.265603
     20          6           0       -1.041961   -2.120967    0.998472
     21          6           0       -1.592097   -1.331397   -1.225559
     22          6           0       -2.395566   -2.238287    1.294684
     23          1           0       -0.286466   -2.373840    1.734272
     24          6           0       -2.948561   -1.440134   -0.923638
     25          1           0       -1.293384   -0.961913   -2.199809
     26          6           0       -3.351888   -1.896455    0.332798
     27          1           0       -2.708870   -2.591436    2.272338
     28          1           0       -3.689821   -1.162071   -1.665847
     29          1           0       -4.409256   -1.981160    0.564930
     30          6           0       -0.256692    1.752791    0.277557
     31          6           0       -0.653406    2.229065   -0.983540
     32          6           0       -1.235582    1.462167    1.240484
     33          6           0       -2.000706    2.413578   -1.275432
     34          1           0        0.111620    2.448404   -1.720202
     35          6           0       -2.585437    1.637740    0.942987
     36          1           0       -0.951879    1.076699    2.213072
     37          6           0       -2.969246    2.115081   -0.311982
     38          1           0       -2.299084    2.784355   -2.251165
     39          1           0       -3.337658    1.392624    1.685446
     40          1           0       -4.022090    2.249234   -0.541080
 ---------------------------------------------------------------------
 Rotational constants (GHZ):           0.4788303           0.2671537           0.2134136
 Leave Link  202 at Wed May  8 23:29:31 2019, MaxMem=   104857600 cpu:               2.7 elap:               0.1
 (Enter /opt/software/gaussian/g16.b01/l301.exe)
 Standard basis: 6-31G(d,p) (6D, 7F)
 Ernie: Thresh=  0.10000D-02 Tol=  0.10000D-05 Strict=F.
 There are   400 symmetry adapted cartesian basis functions of A   symmetry.
 There are   400 symmetry adapted basis functions of A   symmetry.
   400 basis functions,   700 primitive gaussians,   400 cartesian basis functions
    73 alpha electrons       73 beta electrons
       nuclear repulsion energy      1566.8300861552 Hartrees.
 IExCor=  402 DFT=T Ex+Corr=B3LYP ExCW=0 ScaHFX=  0.200000
 ScaDFX=  0.800000  0.720000  1.000000  0.810000 ScalE2=  1.000000  1.000000
 IRadAn=      5 IRanWt=     -1 IRanGd=            0 ICorTp=0 IEmpDi=131
 NAtoms=   40 NActive=   40 NUniq=   40 SFac= 1.00D+00 NAtFMM=   60 NAOKFM=F Big=F
 Integral buffers will be    131072 words long.
 Raffenetti 2 integral format.
 Two-electron integral symmetry is turned on.
 R6Disp:  Grimme-D3 Dispersion energy=       -0.0467858717 Hartrees.
 Nuclear repulsion after empirical dispersion term =     1566.7833002835 Hartrees.
 ------------------------------------------------------------------------------
 Polarizable Continuum Model (PCM)
 =================================
 Model                : PCM.
 Atomic radii         : UFF (Universal Force Field).
 Polarization charges : Total charges.
 Charge compensation  : None.
 Solution method      : On-the-fly selection.
 Cavity type          : Scaled VdW (van der Waals Surface) (Alpha=1.100).
 Cavity algorithm     : GePol (No added spheres)
                        Default sphere list used, NSphG=   40.
                        Lebedev-Laikov grids with approx.  5.0 points / Ang**2.
                        Smoothing algorithm: York/Karplus (Gamma=1.0000).
                        Polarization charges: spherical gaussians, with
                                              point-specific exponents (IZeta= 3).
                        Self-potential: point-specific (ISelfS= 7).
                        Self-field    : sphere-specific E.n sum rule (ISelfD= 2).
 1st derivatives      : Analytical E(r).r(x)/FMM algorithm (CHGder, D1EAlg=3).
                        Cavity 1st derivative terms included.
 Solvent              : Acetonitrile, Eps=  35.688000 Eps(inf)=   1.806874
 ------------------------------------------------------------------------------
 GePol: Number of generator spheres                  =      40
 GePol: Total number of spheres                      =      40
 GePol: Number of exposed spheres                    =      40 (100.00%)
 GePol: Number of points                             =    2779
 GePol: Average weight of points                     =       0.13
 GePol: Minimum weight of points                     =   0.13D-08
 GePol: Maximum weight of points                     =    0.20577
 GePol: Number of points with low weight             =     181
 GePol: Fraction of low-weight points (<1% of avg)   =       6.51%
 GePol: Cavity surface area                          =    351.362 Ang**2
 GePol: Cavity volume                                =    413.659 Ang**3
 Leave Link  301 at Wed May  8 23:29:31 2019, MaxMem=   104857600 cpu:               4.3 elap:               0.2
 (Enter /opt/software/gaussian/g16.b01/l302.exe)
 NPDir=0 NMtPBC=     1 NCelOv=     1 NCel=       1 NClECP=     1 NCelD=      1
         NCelK=      1 NCelE2=     1 NClLst=     1 CellRange=     0.0.
 One-electron integrals computed using PRISM.
 One-electron integral symmetry used in STVInt
 PrsmSu:  requested number of processors reduced to:  27 ShMem   1 Linda.
 NBasis=   400 RedAO= T EigKep=  4.58D-04  NBF=   400
 NBsUse=   400 1.00D-06 EigRej= -1.00D+00 NBFU=   400
 Precomputing XC quadrature grid using
 IXCGrd= 4 IRadAn=           5 IRanWt=          -1 IRanGd=           0 AccXCQ= 0.00D+00.
 Generated NRdTot=       0 NPtTot=           0 NUsed=           0 NTot=          32
 NSgBfM=   397   397   397   397   397 MxSgAt=    40 MxSgA2=    40.
 Leave Link  302 at Wed May  8 23:29:32 2019, MaxMem=   104857600 cpu:              17.3 elap:               0.6
 (Enter /opt/software/gaussian/g16.b01/l303.exe)
 DipDrv:  MaxL=1.
 Leave Link  303 at Wed May  8 23:29:32 2019, MaxMem=   104857600 cpu:               3.1 elap:               0.2
 (Enter /opt/software/gaussian/g16.b01/l401.exe)
 ExpMin= 1.61D-01 ExpMax= 5.48D+03 ExpMxC= 8.25D+02 IAcc=3 IRadAn=         5 AccDes= 0.00D+00
 Harris functional with IExCor=  402 and IRadAn=       5 diagonalized for initial guess.
 HarFok:  IExCor=  402 AccDes= 0.00D+00 IRadAn=         5 IDoV= 1 UseB2=F ITyADJ=14
 ICtDFT=  3500011 ScaDFX=  1.000000  1.000000  1.000000  1.000000
 FoFCou: FMM=F IPFlag=           0 FMFlag=      100000 FMFlg1=           0
         NFxFlg=           0 DoJE=T BraDBF=F KetDBF=T FulRan=T
         wScrn=  0.000000 ICntrl=       500 IOpCl=  0 I1Cent=   200000004 NGrid=           0
         NMat0=    1 NMatS0=      1 NMatT0=    0 NMatD0=    1 NMtDS0=    0 NMtDT0=    0
 Petite list used in FoFCou.
 Harris En= -881.796908831461    
 JPrj=0 DoOrth=F DoCkMO=F.
 Leave Link  401 at Wed May  8 23:29:34 2019, MaxMem=   104857600 cpu:              33.3 elap:               1.1
 (Enter /opt/software/gaussian/g16.b01/l502.exe)
 Integral symmetry usage will be decided dynamically.
 Closed shell SCF:
 Using DIIS extrapolation, IDIIS=  1040.
 NGot=   104857600 LenX=   104520454 LenY=   104360013
 Requested convergence on RMS density matrix=1.00D-08 within 128 cycles.
 Requested convergence on MAX density matrix=1.00D-06.
 Requested convergence on             energy=1.00D-06.
 No special actions if energy rises.
 Fock matrices will be formed incrementally for  20 cycles.

 Cycle   1  Pass 1  IDiag  1:
 FoFJK:  IHMeth= 1 ICntrl=       0 DoSepK=F KAlg= 0 I1Cent=           0 FoldK=F
 IRaf= 800000000 NMat=       1 IRICut=       1 DoRegI=T DoRafI=F ISym2E= 0 IDoP0=0 IntGTp=1.
 FoFCou: FMM=F IPFlag=           0 FMFlag=      100000 FMFlg1=           0
         NFxFlg=           0 DoJE=F BraDBF=F KetDBF=F FulRan=T
         wScrn=  0.000000 ICntrl=         0 IOpCl=  0 I1Cent=           0 NGrid=           0
         NMat0=    1 NMatS0=      1 NMatT0=    0 NMatD0=    1 NMtDS0=    0 NMtDT0=    0
 Symmetry not used in FoFCou.
 Inv3:  Mode=1 IEnd=    23168523.
 Iteration    1 A*A^-1 deviation from unit magnitude is 3.22D-15 for    320.
 Iteration    1 A*A^-1 deviation from orthogonality  is 2.30D-15 for   2530   1126.
 Iteration    1 A^-1*A deviation from unit magnitude is 3.11D-15 for   2066.
 Iteration    1 A^-1*A deviation from orthogonality  is 1.97D-15 for   1530    990.
 E= -881.254834462736    
 DIIS: error= 2.38D-02 at cycle   1 NSaved=   1.
 NSaved= 1 IEnMin= 1 EnMin= -881.254834462736     IErMin= 1 ErrMin= 2.38D-02
 ErrMax= 2.38D-02  0.00D+00 EMaxC= 1.00D-01 BMatC= 5.17D-01 BMatP= 5.17D-01
 IDIUse=3 WtCom= 7.62D-01 WtEn= 2.38D-01
 Coeff-Com:  0.100D+01
 Coeff-En:   0.100D+01
 Coeff:      0.100D+01
 Gap=     0.101 Goal=   None    Shift=    0.000
 GapD=    0.101 DampG=1.000 DampE=0.500 DampFc=0.5000 IDamp=-1.
 Damping current iteration by 5.00D-01
 RMSDP=3.77D-03 MaxDP=1.53D-01              OVMax= 1.85D-01

 Cycle   2  Pass 1  IDiag  1:
 RMSU=  1.85D-03    CP:  9.78D-01
 E= -881.469356746461     Delta-E=       -0.214522283725 Rises=F Damp=T
 DIIS: error= 6.93D-03 at cycle   2 NSaved=   2.
 NSaved= 2 IEnMin= 2 EnMin= -881.469356746461     IErMin= 2 ErrMin= 6.93D-03
 ErrMax= 6.93D-03  0.00D+00 EMaxC= 1.00D-01 BMatC= 4.28D-02 BMatP= 5.17D-01
 IDIUse=3 WtCom= 9.31D-01 WtEn= 6.93D-02
 Coeff-Com:  0.100D+00 0.900D+00
 Coeff-En:   0.132D+00 0.868D+00
 Coeff:      0.102D+00 0.898D+00
 Gap=     0.136 Goal=   None    Shift=    0.000
 RMSDP=9.93D-04 MaxDP=4.65D-02 DE=-2.15D-01 OVMax= 1.61D-01

 Cycle   3  Pass 1  IDiag  1:
 RMSU=  9.65D-04    CP:  9.68D-01  9.04D-01
 E= -881.713420428050     Delta-E=       -0.244063681589 Rises=F Damp=F
 DIIS: error= 9.69D-03 at cycle   3 NSaved=   3.
 NSaved= 3 IEnMin= 3 EnMin= -881.713420428050     IErMin= 2 ErrMin= 6.93D-03
 ErrMax= 9.69D-03  0.00D+00 EMaxC= 1.00D-01 BMatC= 5.00D-02 BMatP= 4.28D-02
 IDIUse=3 WtCom= 9.22D-02 WtEn= 9.08D-01
 Coeff-Com:  0.704D-03 0.523D+00 0.477D+00
 Coeff-En:   0.000D+00 0.000D+00 0.100D+01
 Coeff:      0.649D-04 0.482D-01 0.952D+00
 Gap=     0.119 Goal=   None    Shift=    0.000
 RMSDP=1.50D-03 MaxDP=1.01D-01 DE=-2.44D-01 OVMax= 1.47D-01

 Cycle   4  Pass 1  IDiag  1:
 RMSU=  9.63D-04    CP:  9.72D-01  1.17D+00 -8.13D-02
 E= -881.578520284248     Delta-E=        0.134900143802 Rises=F Damp=F
 DIIS: error= 2.17D-02 at cycle   4 NSaved=   4.
 NSaved= 4 IEnMin= 3 EnMin= -881.713420428050     IErMin= 2 ErrMin= 6.93D-03
 ErrMax= 2.17D-02  0.00D+00 EMaxC= 1.00D-01 BMatC= 2.21D-01 BMatP= 4.28D-02
 IDIUse=2 WtCom= 0.00D+00 WtEn= 1.00D+00
 Coeff-En:   0.000D+00 0.000D+00 0.754D+00 0.246D+00
 Coeff:      0.000D+00 0.000D+00 0.754D+00 0.246D+00
 Gap=     0.126 Goal=   None    Shift=    0.000
 RMSDP=8.14D-04 MaxDP=5.34D-02 DE= 1.35D-01 OVMax= 7.94D-02

 Cycle   5  Pass 1  IDiag  1:
 RMSU=  1.28D-04    CP:  9.70D-01  9.95D-01  4.71D-01  4.72D-01
 E= -881.745296325285     Delta-E=       -0.166776041037 Rises=F Damp=F
 DIIS: error= 4.82D-03 at cycle   5 NSaved=   5.
 NSaved= 5 IEnMin= 5 EnMin= -881.745296325285     IErMin= 5 ErrMin= 4.82D-03
 ErrMax= 4.82D-03  0.00D+00 EMaxC= 1.00D-01 BMatC= 1.22D-02 BMatP= 4.28D-02
 IDIUse=3 WtCom= 9.52D-01 WtEn= 4.82D-02
 Coeff-Com:  0.627D-03 0.821D-02 0.291D+00-0.382D-01 0.739D+00
 Coeff-En:   0.000D+00 0.000D+00 0.242D+00 0.000D+00 0.758D+00
 Coeff:      0.597D-03 0.781D-02 0.288D+00-0.364D-01 0.740D+00
 Gap=     0.134 Goal=   None    Shift=    0.000
 RMSDP=2.48D-04 MaxDP=1.48D-02 DE=-1.67D-01 OVMax= 2.30D-02

 Cycle   6  Pass 1  IDiag  1:
 RMSU=  4.70D-05    CP:  9.70D-01  9.63D-01  6.48D-01  3.09D-01  6.78D-01
 E= -881.755353033307     Delta-E=       -0.010056708022 Rises=F Damp=F
 DIIS: error= 2.99D-04 at cycle   6 NSaved=   6.
 NSaved= 6 IEnMin= 6 EnMin= -881.755353033307     IErMin= 6 ErrMin= 2.99D-04
 ErrMax= 2.99D-04  0.00D+00 EMaxC= 1.00D-01 BMatC= 6.73D-05 BMatP= 1.22D-02
 IDIUse=3 WtCom= 9.97D-01 WtEn= 2.99D-03
 Coeff-Com: -0.133D-02 0.311D-02 0.119D+00-0.423D-01 0.423D+00 0.498D+00
 Coeff-En:   0.000D+00 0.000D+00 0.000D+00 0.000D+00 0.000D+00 0.100D+01
 Coeff:     -0.133D-02 0.311D-02 0.118D+00-0.422D-01 0.422D+00 0.500D+00
 Gap=     0.134 Goal=   None    Shift=    0.000
 RMSDP=2.59D-05 MaxDP=1.08D-03 DE=-1.01D-02 OVMax= 2.94D-03

 Cycle   7  Pass 1  IDiag  1:
 RMSU=  9.28D-06    CP:  9.70D-01  9.64D-01  6.44D-01  3.15D-01  7.75D-01
                    CP:  5.90D-01
 E= -881.755422604909     Delta-E=       -0.000069571601 Rises=F Damp=F
 DIIS: error= 8.06D-05 at cycle   7 NSaved=   7.
 NSaved= 7 IEnMin= 7 EnMin= -881.755422604909     IErMin= 7 ErrMin= 8.06D-05
 ErrMax= 8.06D-05  0.00D+00 EMaxC= 1.00D-01 BMatC= 3.54D-06 BMatP= 6.73D-05
 IDIUse=1 WtCom= 1.00D+00 WtEn= 0.00D+00
 Coeff-Com: -0.780D-03 0.140D-02 0.498D-01-0.228D-01 0.196D+00 0.266D+00
 Coeff-Com:  0.510D+00
 Coeff:     -0.780D-03 0.140D-02 0.498D-01-0.228D-01 0.196D+00 0.266D+00
 Coeff:      0.510D+00
 Gap=     0.133 Goal=   None    Shift=    0.000
 RMSDP=5.49D-06 MaxDP=2.74D-04 DE=-6.96D-05 OVMax= 6.15D-04

 Cycle   8  Pass 1  IDiag  1:
 RMSU=  3.07D-06    CP:  9.70D-01  9.63D-01  6.45D-01  3.14D-01  7.74D-01
                    CP:  6.19D-01  5.73D-01
 E= -881.755425987656     Delta-E=       -0.000003382748 Rises=F Damp=F
 DIIS: error= 2.23D-05 at cycle   8 NSaved=   8.
 NSaved= 8 IEnMin= 8 EnMin= -881.755425987656     IErMin= 8 ErrMin= 2.23D-05
 ErrMax= 2.23D-05  0.00D+00 EMaxC= 1.00D-01 BMatC= 3.40D-07 BMatP= 3.54D-06
 IDIUse=1 WtCom= 1.00D+00 WtEn= 0.00D+00
 Coeff-Com: -0.161D-03 0.219D-03 0.946D-02-0.590D-02 0.417D-01 0.606D-01
 Coeff-Com:  0.258D+00 0.636D+00
 Coeff:     -0.161D-03 0.219D-03 0.946D-02-0.590D-02 0.417D-01 0.606D-01
 Coeff:      0.258D+00 0.636D+00
 Gap=     0.133 Goal=   None    Shift=    0.000
 RMSDP=1.62D-06 MaxDP=8.75D-05 DE=-3.38D-06 OVMax= 1.59D-04

 Cycle   9  Pass 1  IDiag  1:
 RMSU=  8.12D-07    CP:  9.70D-01  9.63D-01  6.45D-01  3.14D-01  7.77D-01
                    CP:  6.13D-01  6.50D-01  6.54D-01
 E= -881.755426286420     Delta-E=       -0.000000298764 Rises=F Damp=F
 DIIS: error= 1.03D-05 at cycle   9 NSaved=   9.
 NSaved= 9 IEnMin= 9 EnMin= -881.755426286420     IErMin= 9 ErrMin= 1.03D-05
 ErrMax= 1.03D-05  0.00D+00 EMaxC= 1.00D-01 BMatC= 2.92D-08 BMatP= 3.40D-07
 IDIUse=1 WtCom= 1.00D+00 WtEn= 0.00D+00
 Coeff-Com: -0.324D-04 0.461D-05 0.245D-02-0.192D-02 0.117D-01 0.171D-01
 Coeff-Com:  0.108D+00 0.339D+00 0.524D+00
 Coeff:     -0.324D-04 0.461D-05 0.245D-02-0.192D-02 0.117D-01 0.171D-01
 Coeff:      0.108D+00 0.339D+00 0.524D+00
 Gap=     0.133 Goal=   None    Shift=    0.000
 RMSDP=4.71D-07 MaxDP=2.81D-05 DE=-2.99D-07 OVMax= 5.24D-05

 Cycle  10  Pass 1  IDiag  1:
 RMSU=  2.88D-07    CP:  9.70D-01  9.63D-01  6.45D-01  3.14D-01  7.77D-01
                    CP:  6.14D-01  6.53D-01  7.04D-01  6.25D-01
 E= -881.755426312464     Delta-E=       -0.000000026043 Rises=F Damp=F
 DIIS: error= 2.21D-06 at cycle  10 NSaved=  10.
 NSaved=10 IEnMin=10 EnMin= -881.755426312464     IErMin=10 ErrMin= 2.21D-06
 ErrMax= 2.21D-06  0.00D+00 EMaxC= 1.00D-01 BMatC= 2.84D-09 BMatP= 2.92D-08
 IDIUse=1 WtCom= 1.00D+00 WtEn= 0.00D+00
 Coeff-Com:  0.330D-05-0.321D-04 0.353D-03-0.401D-03 0.188D-02 0.274D-02
 Coeff-Com:  0.297D-01 0.112D+00 0.288D+00 0.566D+00
 Coeff:      0.330D-05-0.321D-04 0.353D-03-0.401D-03 0.188D-02 0.274D-02
 Coeff:      0.297D-01 0.112D+00 0.288D+00 0.566D+00
 Gap=     0.133 Goal=   None    Shift=    0.000
 RMSDP=1.60D-07 MaxDP=1.21D-05 DE=-2.60D-08 OVMax= 1.29D-05

 Cycle  11  Pass 1  IDiag  1:
 RMSU=  1.04D-07    CP:  9.70D-01  9.63D-01  6.45D-01  3.14D-01  7.77D-01
                    CP:  6.14D-01  6.53D-01  7.08D-01  6.93D-01  6.40D-01
 E= -881.755426314395     Delta-E=       -0.000000001932 Rises=F Damp=F
 DIIS: error= 1.02D-06 at cycle  11 NSaved=  11.
 NSaved=11 IEnMin=11 EnMin= -881.755426314395     IErMin=11 ErrMin= 1.02D-06
 ErrMax= 1.02D-06  0.00D+00 EMaxC= 1.00D-01 BMatC= 5.54D-10 BMatP= 2.84D-09
 IDIUse=1 WtCom= 1.00D+00 WtEn= 0.00D+00
 Coeff-Com:  0.728D-05-0.235D-04-0.126D-03 0.143D-04-0.461D-03-0.573D-03
 Coeff-Com:  0.438D-02 0.263D-01 0.120D+00 0.364D+00 0.487D+00
 Coeff:      0.728D-05-0.235D-04-0.126D-03 0.143D-04-0.461D-03-0.573D-03
 Coeff:      0.438D-02 0.263D-01 0.120D+00 0.364D+00 0.487D+00
 Gap=     0.133 Goal=   None    Shift=    0.000
 RMSDP=5.97D-08 MaxDP=4.30D-06 DE=-1.93D-09 OVMax= 4.78D-06

 Cycle  12  Pass 1  IDiag  1:
 RMSU=  3.44D-08    CP:  9.70D-01  9.63D-01  6.45D-01  3.14D-01  7.77D-01
                    CP:  6.14D-01  6.54D-01  7.07D-01  6.99D-01  7.13D-01
                    CP:  5.91D-01
 E= -881.755426314836     Delta-E=       -0.000000000441 Rises=F Damp=F
 DIIS: error= 2.22D-07 at cycle  12 NSaved=  12.
 NSaved=12 IEnMin=12 EnMin= -881.755426314836     IErMin=12 ErrMin= 2.22D-07
 ErrMax= 2.22D-07  0.00D+00 EMaxC= 1.00D-01 BMatC= 3.23D-11 BMatP= 5.54D-10
 IDIUse=1 WtCom= 1.00D+00 WtEn= 0.00D+00
 Coeff-Com:  0.296D-05-0.865D-05-0.834D-04 0.355D-04-0.338D-03-0.360D-03
 Coeff-Com: -0.163D-03 0.416D-02 0.375D-01 0.134D+00 0.246D+00 0.579D+00
 Coeff:      0.296D-05-0.865D-05-0.834D-04 0.355D-04-0.338D-03-0.360D-03
 Coeff:     -0.163D-03 0.416D-02 0.375D-01 0.134D+00 0.246D+00 0.579D+00
 Gap=     0.133 Goal=   None    Shift=    0.000
 RMSDP=1.64D-08 MaxDP=9.31D-07 DE=-4.41D-10 OVMax= 1.60D-06

 Cycle  13  Pass 1  IDiag  1:
 RMSU=  1.02D-08    CP:  9.70D-01  9.63D-01  6.45D-01  3.14D-01  7.77D-01
                    CP:  6.14D-01  6.54D-01  7.07D-01  7.00D-01  7.19D-01
                    CP:  6.28D-01  6.77D-01
 E= -881.755426314851     Delta-E=       -0.000000000015 Rises=F Damp=F
 DIIS: error= 8.60D-08 at cycle  13 NSaved=  13.
 NSaved=13 IEnMin=13 EnMin= -881.755426314851     IErMin=13 ErrMin= 8.60D-08
 ErrMax= 8.60D-08  0.00D+00 EMaxC= 1.00D-01 BMatC= 4.00D-12 BMatP= 3.23D-11
 IDIUse=1 WtCom= 1.00D+00 WtEn= 0.00D+00
 Coeff-Com:  0.786D-06-0.226D-05-0.356D-04 0.195D-04-0.145D-03-0.109D-03
 Coeff-Com: -0.559D-03-0.410D-03 0.813D-02 0.318D-01 0.725D-01 0.295D+00
 Coeff-Com:  0.594D+00
 Coeff:      0.786D-06-0.226D-05-0.356D-04 0.195D-04-0.145D-03-0.109D-03
 Coeff:     -0.559D-03-0.410D-03 0.813D-02 0.318D-01 0.725D-01 0.295D+00
 Coeff:      0.594D+00
 Gap=     0.133 Goal=   None    Shift=    0.000
 RMSDP=5.87D-09 MaxDP=2.33D-07 DE=-1.48D-11 OVMax= 7.56D-07

 Error on total polarization charges =  0.00978
 SCF Done:  E(RB3LYP) =  -881.755426315     A.U. after   13 cycles
            NFock= 13  Conv=0.59D-08     -V/T= 2.0096
 KE= 8.733821474685D+02 PE=-5.183209739443D+03 EE= 1.861288865376D+03
 Leave Link  502 at Wed May  8 23:30:05 2019, MaxMem=   104857600 cpu:             953.0 elap:              30.9
 (Enter /opt/software/gaussian/g16.b01/l601.exe)
 Copying SCF densities to generalized density rwf, IOpCl= 0 IROHF=0.

 **********************************************************************

            Population analysis using the SCF Density.

 **********************************************************************

 Orbital symmetries:
       Occupied  (A) (A) (A) (A) (A) (A) (A) (A) (A) (A) (A) (A)
                 (A) (A) (A) (A) (A) (A) (A) (A) (A) (A) (A) (A)
                 (A) (A) (A) (A) (A) (A) (A) (A) (A) (A) (A) (A)
                 (A) (A) (A) (A) (A) (A) (A) (A) (A) (A) (A) (A)
                 (A) (A) (A) (A) (A) (A) (A) (A) (A) (A) (A) (A)
                 (A) (A) (A) (A) (A) (A) (A) (A) (A) (A) (A) (A)
                 (A)
       Virtual   (A) (A) (A) (A) (A) (A) (A) (A) (A) (A) (A) (A)
                 (A) (A) (A) (A) (A) (A) (A) (A) (A) (A) (A) (A)
                 (A) (A) (A) (A) (A) (A) (A) (A) (A) (A) (A) (A)
                 (A) (A) (A) (A) (A) (A) (A) (A) (A) (A) (A) (A)
                 (A) (A) (A) (A) (A) (A) (A) (A) (A) (A) (A) (A)
                 (A) (A) (A) (A) (A) (A) (A) (A) (A) (A) (A) (A)
                 (A) (A) (A) (A) (A) (A) (A) (A) (A) (A) (A) (A)
                 (A) (A) (A) (A) (A) (A) (A) (A) (A) (A) (A) (A)
                 (A) (A) (A) (A) (A) (A) (A) (A) (A) (A) (A) (A)
                 (A) (A) (A) (A) (A) (A) (A) (A) (A) (A) (A) (A)
                 (A) (A) (A) (A) (A) (A) (A) (A) (A) (A) (A) (A)
                 (A) (A) (A) (A) (A) (A) (A) (A) (A) (A) (A) (A)
                 (A) (A) (A) (A) (A) (A) (A) (A) (A) (A) (A) (A)
                 (A) (A) (A) (A) (A) (A) (A) (A) (A) (A) (A) (A)
                 (A) (A) (A) (A) (A) (A) (A) (A) (A) (A) (A) (A)
                 (A) (A) (A) (A) (A) (A) (A) (A) (A) (A) (A) (A)
                 (A) (A) (A) (A) (A) (A) (A) (A) (A) (A) (A) (A)
                 (A) (A) (A) (A) (A) (A) (A) (A) (A) (A) (A) (A)
                 (A) (A) (A) (A) (A) (A) (A) (A) (A) (A) (A) (A)
                 (A) (A) (A) (A) (A) (A) (A) (A) (A) (A) (A) (A)
                 (A) (A) (A) (A) (A) (A) (A) (A) (A) (A) (A) (A)
                 (A) (A) (A) (A) (A) (A) (A) (A) (A) (A) (A) (A)
                 (A) (A) (A) (A) (A) (A) (A) (A) (A) (A) (A) (A)
                 (A) (A) (A) (A) (A) (A) (A) (A) (A) (A) (A) (A)
                 (A) (A) (A) (A) (A) (A) (A) (A) (A) (A) (A) (A)
                 (A) (A) (A) (A) (A) (A) (A) (A) (A) (A) (A) (A)
                 (A) (A) (A) (A) (A) (A) (A) (A) (A) (A) (A) (A)
                 (A) (A) (A)
 The electronic state is 1-A.
 Alpha  occ. eigenvalues --  -19.14967 -19.14869 -14.31896 -14.31880 -10.28647
 Alpha  occ. eigenvalues --  -10.28574 -10.20343 -10.20339 -10.20284 -10.20268
 Alpha  occ. eigenvalues --  -10.20185 -10.20151 -10.19936 -10.19889 -10.19751
 Alpha  occ. eigenvalues --  -10.19744 -10.19733 -10.19705 -10.18599 -10.18510
 Alpha  occ. eigenvalues --   -1.04668  -1.04407  -0.91735  -0.86458  -0.86132
 Alpha  occ. eigenvalues --   -0.77621  -0.77498  -0.75399  -0.75322  -0.73222
 Alpha  occ. eigenvalues --   -0.73085  -0.73026  -0.63337  -0.63125  -0.60976
 Alpha  occ. eigenvalues --   -0.60911  -0.55586  -0.55392  -0.51574  -0.51220
 Alpha  occ. eigenvalues --   -0.49035  -0.46792  -0.46769  -0.46434  -0.46369
 Alpha  occ. eigenvalues --   -0.45775  -0.44736  -0.44659  -0.43414  -0.42842
 Alpha  occ. eigenvalues --   -0.42741  -0.42682  -0.42647  -0.41656  -0.41593
 Alpha  occ. eigenvalues --   -0.38984  -0.38864  -0.38488  -0.37944  -0.36015
 Alpha  occ. eigenvalues --   -0.35981  -0.35616  -0.35041  -0.34750  -0.34728
 Alpha  occ. eigenvalues --   -0.29373  -0.27078  -0.26432  -0.26211  -0.25823
 Alpha  occ. eigenvalues --   -0.25574  -0.25036  -0.20304
 Alpha virt. eigenvalues --   -0.06965  -0.05549  -0.01210  -0.00668   0.03475
 Alpha virt. eigenvalues --    0.03711   0.08160   0.09997   0.10343   0.11700
 Alpha virt. eigenvalues --    0.12483   0.12616   0.14450   0.14943   0.15286
 Alpha virt. eigenvalues --    0.15659   0.16341   0.16496   0.16622   0.17106
 Alpha virt. eigenvalues --    0.17474   0.18114   0.18687   0.19805   0.19825
 Alpha virt. eigenvalues --    0.20331   0.21255   0.21808   0.22486   0.23105
 Alpha virt. eigenvalues --    0.25669   0.27526   0.28208   0.29703   0.29972
 Alpha virt. eigenvalues --    0.30279   0.30833   0.31815   0.32608   0.35293
 Alpha virt. eigenvalues --    0.36311   0.37281   0.38865   0.41005   0.45044
 Alpha virt. eigenvalues --    0.48175   0.48974   0.49396   0.51238   0.51387
 Alpha virt. eigenvalues --    0.51949   0.53016   0.53217   0.53642   0.54419
 Alpha virt. eigenvalues --    0.55051   0.56118   0.56269   0.57515   0.59044
 Alpha virt. eigenvalues --    0.59407   0.59899   0.60126   0.60333   0.60448
 Alpha virt. eigenvalues --    0.61041   0.62340   0.63012   0.64848   0.66301
 Alpha virt. eigenvalues --    0.66974   0.67546   0.67615   0.68155   0.68337
 Alpha virt. eigenvalues --    0.69422   0.69770   0.70122   0.72021   0.73166
 Alpha virt. eigenvalues --    0.73777   0.74872   0.75141   0.75364   0.77780
 Alpha virt. eigenvalues --    0.78653   0.80288   0.80422   0.80985   0.81417
 Alpha virt. eigenvalues --    0.81574   0.81837   0.82456   0.83514   0.83611
 Alpha virt. eigenvalues --    0.83931   0.84610   0.86550   0.87048   0.87424
 Alpha virt. eigenvalues --    0.88501   0.89382   0.89667   0.90047   0.91414
 Alpha virt. eigenvalues --    0.92156   0.94016   0.94260   0.94818   0.96162
 Alpha virt. eigenvalues --    0.97094   0.98054   1.00055   1.00885   1.00983
 Alpha virt. eigenvalues --    1.01212   1.03158   1.05774   1.06827   1.07579
 Alpha virt. eigenvalues --    1.08260   1.08795   1.11996   1.12472   1.12778
 Alpha virt. eigenvalues --    1.14592   1.15256   1.17535   1.19763   1.22080
 Alpha virt. eigenvalues --    1.23114   1.23856   1.24729   1.25317   1.26511
 Alpha virt. eigenvalues --    1.26912   1.29453   1.30984   1.33103   1.34276
 Alpha virt. eigenvalues --    1.34811   1.35594   1.36163   1.37290   1.38311
 Alpha virt. eigenvalues --    1.38937   1.39891   1.39915   1.40917   1.41012
 Alpha virt. eigenvalues --    1.41950   1.42356   1.42621   1.43744   1.44904
 Alpha virt. eigenvalues --    1.46526   1.48105   1.49317   1.55259   1.59000
 Alpha virt. eigenvalues --    1.59906   1.66022   1.69753   1.70980   1.72844
 Alpha virt. eigenvalues --    1.74822   1.75217   1.76907   1.77320   1.77831
 Alpha virt. eigenvalues --    1.79453   1.79968   1.81849   1.82615   1.83320
 Alpha virt. eigenvalues --    1.85569   1.86468   1.86898   1.88109   1.91658
 Alpha virt. eigenvalues --    1.91930   1.92925   1.93336   1.93910   1.94346
 Alpha virt. eigenvalues --    1.95444   1.96049   1.96654   1.97228   1.97480
 Alpha virt. eigenvalues --    1.98420   1.99012   2.00454   2.00832   2.02561
 Alpha virt. eigenvalues --    2.03160   2.03642   2.04946   2.06900   2.07157
 Alpha virt. eigenvalues --    2.08133   2.09224   2.09391   2.10148   2.10600
 Alpha virt. eigenvalues --    2.11065   2.12538   2.13722   2.17040   2.17937
 Alpha virt. eigenvalues --    2.18192   2.20807   2.25172   2.26612   2.27538
 Alpha virt. eigenvalues --    2.27585   2.28012   2.29246   2.29358   2.29775
 Alpha virt. eigenvalues --    2.31178   2.33634   2.35306   2.36522   2.36537
 Alpha virt. eigenvalues --    2.37453   2.38178   2.38539   2.39527   2.40862
 Alpha virt. eigenvalues --    2.40921   2.42586   2.43702   2.45299   2.45331
 Alpha virt. eigenvalues --    2.46240   2.46710   2.47621   2.48373   2.49531
 Alpha virt. eigenvalues --    2.50028   2.52051   2.52754   2.53446   2.53947
 Alpha virt. eigenvalues --    2.54569   2.56761   2.57081   2.59331   2.59420
 Alpha virt. eigenvalues --    2.59543   2.59809   2.64751   2.65034   2.65405
 Alpha virt. eigenvalues --    2.66015   2.66443   2.67687   2.68571   2.72878
 Alpha virt. eigenvalues --    2.73449   2.74172   2.74793   2.75738   2.77440
 Alpha virt. eigenvalues --    2.78553   2.81889   2.82019   2.84598   2.85414
 Alpha virt. eigenvalues --    2.86560   2.87680   2.88560   2.92177   2.95599
 Alpha virt. eigenvalues --    2.99457   3.01849   3.03820   3.04764   3.06174
 Alpha virt. eigenvalues --    3.06399   3.09059   3.10860   3.19110   3.20497
 Alpha virt. eigenvalues --    3.23300   3.23479   3.24254   3.24516   3.24978
 Alpha virt. eigenvalues --    3.25832   3.28365   3.38103   3.38304   3.40599
 Alpha virt. eigenvalues --    3.41788   3.42646   3.43741   3.44003   3.46009
 Alpha virt. eigenvalues --    3.46043   3.51055   3.51225   3.52114   3.52454
 Alpha virt. eigenvalues --    3.86377   3.89118   3.89541   4.02016   4.08945
 Alpha virt. eigenvalues --    4.10568   4.13668   4.16207   4.18710   4.20381
 Alpha virt. eigenvalues --    4.22585   4.28204   4.36696   4.36885   4.43371
 Alpha virt. eigenvalues --    4.44500   4.45225   4.46052   4.60166   4.62916
 Alpha virt. eigenvalues --    4.84033   4.85149
          Condensed to atoms (all electrons):
               1          2          3          4          5          6
     1  C    4.612579  -0.000031   0.004537   0.000273   0.487770  -0.000086
     2  H   -0.000031   0.495843  -0.000011  -0.000012   0.000474  -0.054099
     3  C    0.004537  -0.000011   4.608786   0.493113   0.002534   0.000059
     4  O    0.000273  -0.000012   0.493113   8.116234  -0.000856  -0.014360
     5  O    0.487770   0.000474   0.002534  -0.000856   8.117019   0.000219
     6  N   -0.000086  -0.054099   0.000059  -0.014360   0.000219   6.835910
     7  H   -0.000009   0.003889  -0.000026   0.000522  -0.000012   0.335126
     8  N    0.000162   0.334816  -0.000086   0.000232  -0.013626   0.183327
     9  H   -0.001210  -0.036549   0.000218   0.000558   0.041707  -0.029379
    10  H    0.000143   0.004116  -0.001116   0.042393   0.000499   0.307661
    11  C    0.339527   0.000093  -0.000577  -0.000694  -0.084470   0.000249
    12  H   -0.018494  -0.000001   0.000080   0.000119   0.002396   0.000002
    13  H   -0.018445   0.000000  -0.000490   0.006771   0.000181   0.000011
    14  H   -0.020088  -0.000190  -0.000029  -0.000221  -0.000223  -0.000434
    15  C   -0.000816   0.000085   0.340507  -0.085686  -0.002831  -0.001553
    16  H    0.000045  -0.000000  -0.018164   0.002244   0.000138   0.000002
    17  H   -0.000074  -0.000001  -0.018569   0.000454   0.009416  -0.000025
    18  H    0.000006  -0.000205  -0.020745   0.000090  -0.000190   0.006927
    19  C    0.303886  -0.000000  -0.001747  -0.000209  -0.075454   0.000000
    20  C   -0.033408  -0.000000   0.000052   0.000009  -0.001741   0.000000
    21  C   -0.044629   0.000000  -0.000360  -0.000008   0.003540  -0.000000
    22  C    0.006257  -0.000000   0.000017   0.000000   0.000965  -0.000000
    23  H   -0.011197  -0.000000   0.000003  -0.000000   0.015484  -0.000000
    24  C    0.005234   0.000000  -0.000003   0.000000  -0.000076   0.000000
    25  H   -0.012057  -0.000000  -0.000044  -0.000017   0.000053  -0.000000
    26  C    0.000155  -0.000000  -0.000001  -0.000000  -0.000010  -0.000000
    27  H   -0.000152  -0.000000   0.000000   0.000000   0.000003  -0.000000
    28  H   -0.000140  -0.000000   0.000000   0.000000   0.000000  -0.000000
    29  H    0.000008  -0.000000  -0.000000  -0.000000   0.000000  -0.000000
    30  C   -0.000680  -0.000000   0.301629  -0.075759  -0.000802  -0.000054
    31  C    0.000274   0.000000  -0.033090  -0.002099   0.000020   0.000002
    32  C   -0.000462   0.000000  -0.045736   0.003624  -0.000074   0.000000
    33  C    0.000037   0.000000   0.006304   0.000964   0.000000   0.000000
    34  H   -0.000019   0.000000  -0.011015   0.015387  -0.000000   0.000003
    35  C   -0.000027   0.000000   0.005338  -0.000078   0.000002  -0.000000
    36  H   -0.000054   0.000000  -0.012201   0.000061  -0.000053   0.000000
    37  C   -0.000014  -0.000000   0.000152  -0.000010  -0.000000  -0.000000
    38  H   -0.000000  -0.000000  -0.000153   0.000002  -0.000000   0.000000
    39  H    0.000000   0.000000  -0.000140   0.000000   0.000000   0.000000
    40  H   -0.000000  -0.000000   0.000008   0.000000  -0.000000  -0.000000
               7          8          9         10         11         12
     1  C   -0.000009   0.000162  -0.001210   0.000143   0.339527  -0.018494
     2  H    0.003889   0.334816  -0.036549   0.004116   0.000093  -0.000001
     3  C   -0.000026  -0.000086   0.000218  -0.001116  -0.000577   0.000080
     4  O    0.000522   0.000232   0.000558   0.042393  -0.000694   0.000119
     5  O   -0.000012  -0.013626   0.041707   0.000499  -0.084470   0.002396
     6  N    0.335126   0.183327  -0.029379   0.307661   0.000249   0.000002
     7  H    0.495840  -0.054415   0.004121  -0.036706   0.000074  -0.000000
     8  N   -0.054415   6.836159   0.307558  -0.029711  -0.001665   0.000001
     9  H    0.004121   0.307558   0.450503  -0.011770  -0.002517   0.000078
    10  H   -0.036706  -0.029711  -0.011770   0.449020  -0.000026   0.000005
    11  C    0.000074  -0.001665  -0.002517  -0.000026   5.178574   0.357667
    12  H   -0.000000   0.000001   0.000078   0.000005   0.357667   0.566772
    13  H   -0.000003  -0.000016   0.000097  -0.000127   0.359494  -0.024666
    14  H   -0.000204   0.007157   0.000180   0.000683   0.358593  -0.024464
    15  C    0.000101   0.000314   0.000097  -0.002965  -0.000154   0.000002
    16  H   -0.000001   0.000002   0.000009   0.000087   0.000002   0.000000
    17  H    0.000001   0.000034  -0.000188   0.000082   0.000275  -0.000005
    18  H   -0.000194  -0.000513   0.000570   0.000438  -0.000011  -0.000000
    19  C   -0.000000  -0.000043   0.000588   0.000007  -0.108742  -0.000131
    20  C    0.000000   0.000002  -0.000025  -0.000001   0.009306  -0.000412
    21  C    0.000000   0.000000  -0.000008  -0.000000  -0.006961   0.000753
    22  C    0.000000   0.000000  -0.000000  -0.000000  -0.000111  -0.000007
    23  H    0.000000   0.000002  -0.000030  -0.000000   0.000638  -0.000026
    24  C    0.000000  -0.000000   0.000000  -0.000000  -0.000148   0.000137
    25  H    0.000000   0.000000  -0.000001  -0.000000   0.006967   0.000783
    26  C   -0.000000  -0.000000   0.000000   0.000000  -0.000013   0.000000
    27  H   -0.000000   0.000000  -0.000000  -0.000000   0.000002   0.000000
    28  H    0.000000   0.000000  -0.000000  -0.000000   0.000011  -0.000004
    29  H   -0.000000  -0.000000   0.000000   0.000000  -0.000000  -0.000000
    30  C   -0.000000   0.000001   0.000006   0.000654  -0.000187  -0.000036
    31  C   -0.000000   0.000000  -0.000001  -0.000028  -0.001006  -0.000028
    32  C    0.000000   0.000000  -0.000001  -0.000010  -0.000011  -0.000001
    33  C   -0.000000  -0.000000  -0.000000  -0.000000  -0.000095   0.000001
    34  H   -0.000000  -0.000000  -0.000000  -0.000030  -0.000364   0.000003
    35  C    0.000000   0.000000  -0.000000   0.000000   0.000007   0.000000
    36  H   -0.000000  -0.000000  -0.000000  -0.000001  -0.000002  -0.000000
    37  C   -0.000000  -0.000000   0.000000   0.000000   0.000001   0.000000
    38  H   -0.000000  -0.000000  -0.000000  -0.000000  -0.000001   0.000000
    39  H   -0.000000  -0.000000  -0.000000  -0.000000  -0.000000   0.000000
    40  H   -0.000000  -0.000000  -0.000000   0.000000   0.000000  -0.000000
              13         14         15         16         17         18
     1  C   -0.018445  -0.020088  -0.000816   0.000045  -0.000074   0.000006
     2  H    0.000000  -0.000190   0.000085  -0.000000  -0.000001  -0.000205
     3  C   -0.000490  -0.000029   0.340507  -0.018164  -0.018569  -0.020745
     4  O    0.006771  -0.000221  -0.085686   0.002244   0.000454   0.000090
     5  O    0.000181  -0.000223  -0.002831   0.000138   0.009416  -0.000190
     6  N    0.000011  -0.000434  -0.001553   0.000002  -0.000025   0.006927
     7  H   -0.000003  -0.000204   0.000101  -0.000001   0.000001  -0.000194
     8  N   -0.000016   0.007157   0.000314   0.000002   0.000034  -0.000513
     9  H    0.000097   0.000180   0.000097   0.000009  -0.000188   0.000570
    10  H   -0.000127   0.000683  -0.002965   0.000087   0.000082   0.000438
    11  C    0.359494   0.358593  -0.000154   0.000002   0.000275  -0.000011
    12  H   -0.024666  -0.024464   0.000002   0.000000  -0.000005  -0.000000
    13  H    0.534864  -0.020467   0.000250  -0.000004  -0.000101  -0.000002
    14  H   -0.020467   0.558714  -0.000016  -0.000000  -0.000003   0.000003
    15  C    0.000250  -0.000016   5.181785   0.357906   0.358915   0.358524
[...]
     9  H    0.000071  -0.002055  -0.000184   0.000051  -0.000166   0.000546
    10  H   -0.000021   0.001945  -0.001836  -0.000001   0.000021   0.000570
    11  C    0.359925   0.346278  -0.000154   0.000001   0.000215   0.000019
    12  H   -0.024815  -0.021560   0.000002   0.000000  -0.000004  -0.000000
    13  H    0.546123  -0.023062   0.000060  -0.000001  -0.000039  -0.000002
    14  H   -0.023062   0.572632   0.000087   0.000001  -0.000028  -0.000042
    15  C    0.000060   0.000087   5.187335   0.354781   0.359330   0.360479
    16  H   -0.000001   0.000001   0.354781   0.563821  -0.024333  -0.021899
    17  H   -0.000039  -0.000028   0.359330  -0.024333   0.533688  -0.021597
    18  H   -0.000002  -0.000042   0.360479  -0.021899  -0.021597   0.562084
    19  C   -0.000638   0.004772   0.000089   0.000002  -0.000346  -0.000002
    20  C   -0.000308  -0.000140  -0.000027  -0.000002   0.000061  -0.000000
    21  C    0.000045   0.000177   0.000000  -0.000000  -0.000002   0.000000
    22  C   -0.000002   0.000002  -0.000001  -0.000000   0.000005   0.000000
    23  H   -0.000019  -0.000012  -0.000050  -0.000001   0.000334  -0.000000
    24  C    0.000140  -0.000005  -0.000000   0.000000  -0.000000   0.000000
    25  H    0.000823  -0.000063  -0.000000   0.000000  -0.000000   0.000000
    26  C    0.000000   0.000000  -0.000000   0.000000   0.000000  -0.000000
    27  H    0.000000  -0.000000  -0.000000  -0.000000  -0.000000   0.000000
    28  H   -0.000004  -0.000000  -0.000000  -0.000000   0.000000   0.000000
    29  H    0.000000  -0.000000   0.000000   0.000000  -0.000000  -0.000000
    30  C    0.000673  -0.000194  -0.110100   0.000157  -0.000397   0.005080
    31  C    0.005481   0.000026   0.009553  -0.000396  -0.000261  -0.000144
    32  C   -0.000078  -0.000007  -0.007394   0.000475   0.000118   0.000153
    33  C    0.000548   0.000004  -0.000111  -0.000005  -0.000001   0.000002
    34  H    0.001705   0.000037   0.000667  -0.000026  -0.000017  -0.000015
    35  C   -0.000042   0.000000  -0.000105   0.000088   0.000126  -0.000003
    36  H   -0.000000  -0.000000   0.007520   0.000465   0.000745  -0.000078
    37  C   -0.000018  -0.000000  -0.000013   0.000001   0.000002   0.000000
    38  H    0.000009  -0.000000   0.000002   0.000000   0.000000  -0.000000
    39  H    0.000000   0.000000   0.000011  -0.000003  -0.000004  -0.000000
    40  H   -0.000001  -0.000000  -0.000000   0.000000   0.000000  -0.000000
              19         20         21         22         23         24
     1  C    0.295875  -0.032112  -0.044054   0.006370  -0.010781   0.005167
     2  H    0.000000  -0.000000  -0.000000  -0.000000  -0.000000   0.000000
     3  C   -0.000721  -0.000033  -0.000086   0.000001   0.000003   0.000001
     4  O   -0.000007   0.000001   0.000001   0.000000   0.000000  -0.000000
     5  O   -0.076644  -0.001067   0.003560   0.000989   0.016407  -0.000072
     6  N    0.000002  -0.000000  -0.000000  -0.000000  -0.000000  -0.000000
     7  H   -0.000000  -0.000000  -0.000000   0.000000  -0.000000   0.000000
     8  N   -0.000033   0.000001   0.000000   0.000000   0.000002  -0.000000
     9  H    0.000480  -0.000022  -0.000005  -0.000000  -0.000032   0.000000
    10  H    0.000003  -0.000000  -0.000000  -0.000000  -0.000000  -0.000000
    11  C   -0.111045   0.009609  -0.007018  -0.000111   0.000680  -0.000144
    12  H    0.000145  -0.000376   0.000310  -0.000004  -0.000024   0.000072
    13  H   -0.000638  -0.000308   0.000045  -0.000002  -0.000019   0.000140
    14  H    0.004772  -0.000140   0.000177   0.000002  -0.000012  -0.000005
    15  C    0.000089  -0.000027   0.000000  -0.000001  -0.000050  -0.000000
    16  H    0.000002  -0.000002  -0.000000  -0.000000  -0.000001   0.000000
    17  H   -0.000346   0.000061  -0.000002   0.000005   0.000334  -0.000000
    18  H   -0.000002  -0.000000   0.000000   0.000000  -0.000000   0.000000
    19  C    4.987661   0.481862   0.517382  -0.026170  -0.047918  -0.019592
    20  C    0.481862   4.950860  -0.070748   0.498591   0.369032  -0.041134
    21  C    0.517382  -0.070748   4.935206  -0.040247   0.005797   0.514779
    22  C   -0.026170   0.498591  -0.040247   4.862772  -0.039838  -0.031874
    23  H   -0.047918   0.369032   0.005797  -0.039838   0.595507   0.000216
    24  C   -0.019592  -0.041134   0.514779  -0.031874   0.000216   4.834756
    25  H   -0.037455   0.005361   0.368859   0.000283  -0.000153  -0.039710
    26  C   -0.034913  -0.036782  -0.039265   0.530499   0.004599   0.542193
    27  H    0.003462  -0.037131   0.000782   0.373082  -0.005239   0.004386
    28  H    0.003501   0.000816  -0.035566   0.004319   0.000016   0.371883
    29  H    0.000674   0.004349   0.004690  -0.039964  -0.000160  -0.039687
    30  C   -0.001202  -0.000549  -0.000388  -0.000004  -0.000032   0.000025
    31  C   -0.000526  -0.000048   0.000259   0.000006   0.000000  -0.000107
    32  C    0.000258   0.001110  -0.000441  -0.000364   0.000126  -0.000038
    33  C   -0.000463  -0.000059   0.001231   0.000018  -0.000001  -0.000304
    34  H   -0.000002  -0.000001  -0.000008   0.000000  -0.000000  -0.000001
    35  C   -0.000453   0.001354  -0.000734  -0.000065  -0.000022   0.000044
    36  H   -0.000041   0.000326   0.000010   0.000006   0.000225  -0.000004
    37  C   -0.000724  -0.000189   0.001661  -0.000131   0.000006   0.000918
    38  H    0.000003   0.000001  -0.000032  -0.000000   0.000000  -0.000001
    39  H   -0.000073   0.000149  -0.000055   0.000917  -0.000006  -0.000020
    40  H   -0.000019  -0.000013  -0.000032   0.000001  -0.000000   0.000368
              25         26         27         28         29         30
     1  C   -0.012334   0.000137  -0.000151  -0.000138   0.000008   0.002555
     2  H   -0.000000  -0.000000  -0.000000  -0.000000  -0.000000  -0.000001
     3  C   -0.000013   0.000000  -0.000000  -0.000000  -0.000000   0.292514
     4  O   -0.000002  -0.000000   0.000000   0.000000  -0.000000  -0.078801
     5  O    0.000052  -0.000010   0.000002   0.000000   0.000000  -0.002133
     6  N   -0.000000   0.000000   0.000000  -0.000000   0.000000  -0.000062
     7  H   -0.000000  -0.000000  -0.000000  -0.000000   0.000000   0.000001
     8  N    0.000000  -0.000000   0.000000   0.000000  -0.000000   0.000010
     9  H   -0.000000   0.000000  -0.000000  -0.000000   0.000000  -0.000031
    10  H   -0.000000   0.000000   0.000000  -0.000000   0.000000   0.000595
    11  C    0.007185  -0.000013   0.000002   0.000011  -0.000000  -0.001549
    12  H    0.000527   0.000001   0.000000  -0.000003   0.000000  -0.000004
    13  H    0.000823   0.000000   0.000000  -0.000004   0.000000   0.000673
    14  H   -0.000063   0.000000  -0.000000  -0.000000  -0.000000  -0.000194
    15  C   -0.000000  -0.000000  -0.000000  -0.000000   0.000000  -0.110100
    16  H    0.000000   0.000000  -0.000000  -0.000000   0.000000   0.000157
    17  H   -0.000000   0.000000  -0.000000   0.000000  -0.000000  -0.000397
    18  H    0.000000  -0.000000   0.000000   0.000000  -0.000000   0.005080
    19  C   -0.037455  -0.034913   0.003462   0.003501   0.000674  -0.001202
    20  C    0.005361  -0.036782  -0.037131   0.000816   0.004349  -0.000549
    21  C    0.368859  -0.039265   0.000782  -0.035566   0.004690  -0.000388
    22  C    0.000283   0.530499   0.373082   0.004319  -0.039964  -0.000004
    23  H   -0.000153   0.004599  -0.005239   0.000016  -0.000160  -0.000032
    24  C   -0.039710   0.542193   0.004386   0.371883  -0.039687   0.000025
    25  H    0.595361   0.004661   0.000015  -0.005633  -0.000170  -0.000020
    26  C    0.004661   4.820509  -0.040381  -0.040161   0.373377   0.000016
    27  H    0.000015  -0.040381   0.597521  -0.000171  -0.005539  -0.000000
    28  H   -0.005633  -0.040161  -0.000171   0.596643  -0.005615  -0.000000
    29  H   -0.000170   0.373377  -0.005539  -0.005615   0.596186   0.000000
    30  C   -0.000020   0.000016  -0.000000  -0.000000   0.000000   5.021104
    31  C    0.000139  -0.000006  -0.000000   0.000001   0.000000   0.480505
    32  C   -0.000018  -0.000047  -0.000007   0.000001  -0.000000   0.513016
    33  C    0.000477  -0.000038   0.000000  -0.000002  -0.000000  -0.027708
    34  H   -0.000023  -0.000000  -0.000000   0.000000   0.000000  -0.048092
    35  C   -0.000002   0.000125  -0.000034  -0.000002  -0.000004  -0.020141
    36  H    0.000000  -0.000000  -0.000002   0.000000  -0.000000  -0.038332
    37  C    0.000003   0.000030  -0.000001  -0.000016   0.000000  -0.035166
    38  H    0.000057   0.000001  -0.000000   0.000005  -0.000000   0.003527
    39  H   -0.000000   0.000253   0.000061  -0.000001  -0.000000   0.003597
    40  H   -0.000004   0.000176  -0.000001   0.000038   0.000006   0.000670
              31         32         33         34         35         36
     1  C    0.000932   0.000837   0.000079  -0.000059  -0.000500  -0.000040
     2  H    0.000000  -0.000000   0.000000  -0.000000   0.000000  -0.000000
     3  C   -0.033305  -0.044214   0.006408  -0.010443   0.005137  -0.012187
     4  O   -0.001783   0.003794   0.001027   0.016216  -0.000070   0.000063
     5  O   -0.000033  -0.000215   0.000004  -0.000000  -0.000007  -0.000091
     6  N    0.000004   0.000001   0.000000   0.000003  -0.000000   0.000000
     7  H   -0.000000  -0.000000  -0.000000  -0.000001   0.000000  -0.000000
     8  N    0.000000  -0.000001  -0.000000  -0.000000  -0.000000  -0.000000
     9  H   -0.000004  -0.000009   0.000000  -0.000001   0.000000  -0.000003
    10  H   -0.000039  -0.000011  -0.000000  -0.000032   0.000000  -0.000001
    11  C   -0.002979   0.000132  -0.000370  -0.000417   0.000023   0.000002
    12  H    0.000023  -0.000003   0.000010   0.000010  -0.000000  -0.000000
    13  H    0.005481  -0.000078   0.000548   0.001705  -0.000042  -0.000000
    14  H    0.000026  -0.000007   0.000004   0.000037   0.000000  -0.000000
    15  C    0.009553  -0.007394  -0.000111   0.000667  -0.000105   0.007520
    16  H   -0.000396   0.000475  -0.000005  -0.000026   0.000088   0.000465
    17  H   -0.000261   0.000118  -0.000001  -0.000017   0.000126   0.000745
    18  H   -0.000144   0.000153   0.000002  -0.000015  -0.000003  -0.000078
    19  C   -0.000526   0.000258  -0.000463  -0.000002  -0.000453  -0.000041
    20  C   -0.000048   0.001110  -0.000059  -0.000001   0.001354   0.000326
    21  C    0.000259  -0.000441   0.001231  -0.000008  -0.000734   0.000010
    22  C    0.000006  -0.000364   0.000018   0.000000  -0.000065   0.000006
    23  H    0.000000   0.000126  -0.000001  -0.000000  -0.000022   0.000225
    24  C   -0.000107  -0.000038  -0.000304  -0.000001   0.000044  -0.000004
    25  H    0.000139  -0.000018   0.000477  -0.000023  -0.000002   0.000000
    26  C   -0.000006  -0.000047  -0.000038  -0.000000   0.000125  -0.000000
    27  H   -0.000000  -0.000007   0.000000  -0.000000  -0.000034  -0.000002
    28  H    0.000001   0.000001  -0.000002   0.000000  -0.000002   0.000000
    29  H    0.000000  -0.000000  -0.000000   0.000000  -0.000004  -0.000000
    30  C    0.480505   0.513016  -0.027708  -0.048092  -0.020141  -0.038332
    31  C    4.966552  -0.072749   0.496863   0.369240  -0.040913   0.005403
    32  C   -0.072749   4.939411  -0.039866   0.005663   0.516110   0.369826
    33  C    0.496863  -0.039866   4.862689  -0.039261  -0.031083   0.000270
    34  H    0.369240   0.005663  -0.039261   0.590985   0.000234  -0.000152
    35  C   -0.040913   0.516110  -0.031083   0.000234   4.823343  -0.039808
    36  H    0.005403   0.369826   0.000270  -0.000152  -0.039808   0.594430
    37  C   -0.036648  -0.038450   0.529550   0.004519   0.542514   0.004689
    38  H   -0.037383   0.000778   0.373251  -0.005203   0.004385   0.000015
    39  H    0.000794  -0.035648   0.004351   0.000016   0.371267  -0.005654
    40  H    0.004377   0.004687  -0.039929  -0.000159  -0.039363  -0.000170
              37         38         39         40
     1  C   -0.000123  -0.000001  -0.000007  -0.000001
     2  H   -0.000000  -0.000000   0.000000   0.000000
     3  C    0.000133  -0.000151  -0.000135   0.000008
     4  O   -0.000012   0.000003   0.000000   0.000000
     5  O    0.000004   0.000000   0.000000   0.000000
     6  N   -0.000000   0.000000   0.000000  -0.000000
     7  H   -0.000000  -0.000000  -0.000000  -0.000000
     8  N    0.000000  -0.000000   0.000000   0.000000
     9  H    0.000000  -0.000000  -0.000000  -0.000000
    10  H    0.000000  -0.000000  -0.000000   0.000000
    11  C    0.000008  -0.000002   0.000000   0.000000
    12  H   -0.000000   0.000000   0.000000  -0.000000
    13  H   -0.000018   0.000009   0.000000  -0.000001
    14  H   -0.000000  -0.000000   0.000000  -0.000000
    15  C   -0.000013   0.000002   0.000011  -0.000000
    16  H    0.000001   0.000000  -0.000003   0.000000
    17  H    0.000002   0.000000  -0.000004   0.000000
    18  H    0.000000  -0.000000  -0.000000  -0.000000
    19  C   -0.000724   0.000003  -0.000073  -0.000019
    20  C   -0.000189   0.000001   0.000149  -0.000013
    21  C    0.001661  -0.000032  -0.000055  -0.000032
    22  C   -0.000131  -0.000000   0.000917   0.000001
    23  H    0.000006   0.000000  -0.000006  -0.000000
    24  C    0.000918  -0.000001  -0.000020   0.000368
    25  H    0.000003   0.000057  -0.000000  -0.000004
    26  C    0.000030   0.000001   0.000253   0.000176
    27  H   -0.000001  -0.000000   0.000061  -0.000001
    28  H   -0.000016   0.000005  -0.000001   0.000038
    29  H    0.000000  -0.000000  -0.000000   0.000006
    30  C   -0.035166   0.003527   0.003597   0.000670
    31  C   -0.036648  -0.037383   0.000794   0.004377
    32  C   -0.038450   0.000778  -0.035648   0.004687
    33  C    0.529550   0.373251   0.004351  -0.039929
    34  H    0.004519  -0.005203   0.000016  -0.000159
    35  C    0.542514   0.004385   0.371267  -0.039363
    36  H    0.004689   0.000015  -0.005654  -0.000170
    37  C    4.811577  -0.040172  -0.039910   0.373066
    38  H   -0.040172   0.596644  -0.000170  -0.005554
    39  H   -0.039910  -0.000170   0.596093  -0.005648
    40  H    0.373066  -0.005554  -0.005648   0.595992
 Mulliken charges:
               1
     1  C    0.403363
     2  H    0.255037
     3  C    0.409154
     4  O   -0.505828
     5  O   -0.503042
     6  N   -0.557097
     7  H    0.257364
     8  N   -0.563584
     9  H    0.271367
    10  H    0.270400
    11  C   -0.399914
    12  H    0.146393
    13  H    0.150573
    14  H    0.124114
    15  C   -0.406271
    16  H    0.142391
    17  H    0.160191
    18  H    0.129765
    19  C    0.062817
    20  C   -0.102740
    21  C   -0.116069
    22  C   -0.099084
    23  H    0.111339
    24  C   -0.102254
    25  H    0.111797
    26  C   -0.084963
    27  H    0.109344
    28  H    0.110077
    29  H    0.111849
    30  C    0.040860
    31  C   -0.112836
    32  C   -0.116935
    33  C   -0.097578
    34  H    0.114617
    35  C   -0.091397
    36  H    0.112568
    37  C   -0.077107
    38  H    0.109988
    39  H    0.109826
    40  H    0.111505
 Sum of Mulliken charges =  -0.00000
 Mulliken charges with hydrogens summed into heavy atoms:
               1
     1  C    0.403363
     3  C    0.409154
     4  O   -0.505828
     5  O   -0.503042
     6  N   -0.029333
     8  N   -0.037179
    11  C    0.021166
    15  C    0.026075
    19  C    0.062817
    20  C    0.008598
    21  C   -0.004272
    22  C    0.010259
    24  C    0.007823
    26  C    0.026887
    30  C    0.040860
    31  C    0.001781
    32  C   -0.004367
    33  C    0.012410
    35  C    0.018428
    37  C    0.034398
 Electronic spatial extent (au):  <R**2>=           5515.4326
 Charge=              0.0000 electrons
 Dipole moment (field-independent basis, Debye):
    X=             -9.7712    Y=              2.1429    Z=              0.1512  Tot=             10.0046
 Quadrupole moment (field-independent basis, Debye-Ang):
   XX=           -136.0271   YY=           -125.0118   ZZ=           -102.1660
   XY=              7.1016   XZ=              4.2619   YZ=              5.1626
 Traceless Quadrupole moment (field-independent basis, Debye-Ang):
   XX=            -14.9588   YY=             -3.9435   ZZ=             18.9023
   XY=              7.1016   XZ=              4.2619   YZ=              5.1626
 Octapole moment (field-independent basis, Debye-Ang**2):
  XXX=           -215.4123  YYY=             10.0958  ZZZ=             -0.6683  XYY=            -19.4443
  XXY=             39.5050  XXZ=             21.6851  XZZ=              8.2454  YZZ=             -3.4607
  YYZ=             -7.1180  XYZ=             20.9775
 Hexadecapole moment (field-independent basis, Debye-Ang**3):
 XXXX=          -5011.9783 YYYY=          -2108.4874 ZZZZ=           -889.4660 XXXY=            206.9780
 XXXZ=             86.2102 YYYX=             28.5451 YYYZ=              2.7151 ZZZX=             -4.5132
 ZZZY=             -8.5553 XXYY=          -1172.5020 XXZZ=           -770.5886 YYZZ=           -452.7215
 XXYZ=             20.5433 YYXZ=            -11.1975 ZZXY=            -15.9164
 N-N= 1.570504037671D+03 E-N=-5.190425688589D+03  KE= 8.733729503674D+02
 No NMR shielding tensors so no spin-rotation constants.
 Leave Link  601 at Wed May  8 23:52:54 2019, MaxMem=   104857600 cpu:               8.1 elap:               0.3
 (Enter /opt/software/gaussian/g16.b01/l9999.exe)
 1\1\GINC-GRA681\FOpt\RB3LYP\6-31G(d,p)\C16H20N2O2\RZK\08-May-2019\0\\#
 p opt rb3lyp/6-31g(d,p) scrf=(iefpcm,solvent=acetonitrile) empiricaldi
 spersion=gd3\\Title Card Required\\0,1\C,-0.6196200601,1.3438452579,-0
 .4323320311\H,-4.7443377374,0.5735639054,1.347318065\C,-1.4871325391,-
 1.7444585069,0.5377032929\O,-2.230213727,-1.9406975122,-0.4234963742\O
 ,-1.3399324076,1.4303236276,0.5630616938\N,-4.7280530051,-0.0800598186
 ,-0.5325693479\H,-4.7471275178,0.3850941944,-1.4371783204\N,-4.4393735
 267,0.945825665,0.4509911147\H,-3.4302161222,1.0943119123,0.5282427241
 \H,-3.9699488297,-0.7656265539,-0.5701018759\C,-1.2052698473,0.9590966
 034,-1.7722437987\H,-1.0225226323,1.7445969956,-2.512466485\H,-0.73635
 76077,0.0417209658,-2.1394900781\H,-2.276314758,0.7902084029,-1.665796
 0759\C,-2.0544853539,-1.4174017746,1.9005043185\H,-1.6838880611,-2.115
 9966626,2.6570328307\H,-1.7482404992,-0.408626283,2.1919917291\H,-3.14
 26538396,-1.4628881904,1.8565698066\C,0.8439524687,1.6102588382,-0.324
 4214647\C,1.3601660518,2.0362384523,0.9111741732\C,1.7189439706,1.4299
 658814,-1.4064885633\C,2.7207404371,2.2800882941,1.0614312656\H,0.6754
 010849,2.1651051068,1.7420515939\C,3.0843392501,1.6691575197,-1.253420
 0029\H,1.3445666267,1.0934657175,-2.3664907391\C,3.5864154069,2.094802
 319,-0.0221474421\H,3.1107335223,2.6097856559,2.0194673441\H,3.7552764
 124,1.520423141,-2.0935875803\H,4.6499118527,2.2805777936,0.0948088378
 \C,-0.0059261963,-1.8022784383,0.3612483452\C,0.5069477322,-2.18236658
 59,-0.8912452635\C,0.8846557405,-1.4445361806,1.3850536477\C,1.8786647
 067,-2.1945003335,-1.1180134021\H,-0.1905284519,-2.4592966979,-1.67426
 93724\C,2.259658374,-1.4515206839,1.1547965533\H,0.5115889372,-1.13740
 55626,2.3554605986\C,2.7578190065,-1.8222606609,-0.0951945234\H,2.2658
 379697,-2.4844545031,-2.0898493171\H,2.9401746007,-1.1526795548,1.9452
 374341\H,3.8283545682,-1.8163827462,-0.275257311\\Version=ES64L-G16Rev
 B.01\State=1-A\HF=-881.7587116\RMSD=3.159e-09\RMSF=4.204e-06\Dipole=3.
 9335206,-0.1424321,-0.0088114\Quadrupole=-12.8110833,-2.0978554,14.908
 9387,3.1850574,-2.2137271,-2.6636396\PG=C01 [X(C16H20N2O2)]\\@


 ACHIEVEMENT--  THE MAN WHO ROWS THE BOAT GENERALLY 
                DOESN'T HAVE TIME TO ROCK IT.

                   -- FROM THE BACK OF A SUGAR PACKET
 Job cpu time:       0 days 11 hours 51 minutes 46.4 seconds.
 Elapsed time:       0 days  0 hours 23 minutes 17.6 seconds.
 File lengths (MBytes):  RWF=    369 Int=      0 D2E=      0 Chk=     20 Scr=      1
 Normal termination of Gaussian 16 at Wed May  8 23:52:54 2019.
