 Entering Gaussian System, Link 0=g16
 Initial command:
 /opt/software/gaussian/g16.b01/l1.exe "/localscratch/rzk.14504742.0/Gau-28222.inp" -scrdir="/localscratch/rzk.14504742.0/"
 Entering Link 1 = /opt/software/gaussian/g16.b01/l1.exe PID=     28223.
  
 Copyright (c) 1988-2017, Gaussian, Inc.  All Rights Reserved.
  
 This is part of the Gaussian(R) 16 program.  It is based on
 the Gaussian(R) 09 system (copyright 2009, Gaussian, Inc.),
 the Gaussian(R) 03 system (copyright 2003, Gaussian, Inc.),
 the Gaussian(R) 98 system (copyright 1998, Gaussian, Inc.),
 the Gaussian(R) 94 system (copyright 1995, Gaussian, Inc.),
 the Gaussian 92(TM) system (copyright 1992, Gaussian, Inc.),
 the Gaussian 90(TM) system (copyright 1990, Gaussian, Inc.),
 the Gaussian 88(TM) system (copyright 1988, Gaussian, Inc.),
 the Gaussian 86(TM) system (copyright 1986, Carnegie Mellon
 University), and the Gaussian 82(TM) system (copyright 1983,
 Carnegie Mellon University). Gaussian is a federally registered
 trademark of Gaussian, Inc.
  
 This software contains proprietary and confidential information,
 including trade secrets, belonging to Gaussian, Inc.
  
 This software is provided under written license and may be
 used, copied, transmitted, or stored only in accord with that
 written license.
  
 The following legend is applicable only to US Government
 contracts under FAR:
  
                    RESTRICTED RIGHTS LEGEND
  
 Use, reproduction and disclosure by the US Government is
 subject to restrictions as set forth in subparagraphs (a)
 and (c) of the Commercial Computer Software - Restricted
 Rights clause in FAR 52.227-19.
  
 Gaussian, Inc.
 340 Quinnipiac St., Bldg. 40, Wallingford CT 06492
  
  
 ---------------------------------------------------------------
 Warning -- This program may not be used in any manner that
 competes with the business of Gaussian, Inc. or will provide
 assistance to any competitor of Gaussian, Inc.  The licensee
 of this program is prohibited from giving any competitor of
 Gaussian, Inc. access to this program.  By using this program,
 the user acknowledges that Gaussian, Inc. is engaged in the
 business of creating and licensing software in the field of
 computational chemistry and represents and warrants to the
 licensee that it is not a competitor of Gaussian, Inc. and that
 it will not use this program in any manner prohibited above.
 ---------------------------------------------------------------
  

 Cite this work as:
 Gaussian 16, Revision B.01,
 M. J. Frisch, G. W. Trucks, H. B. Schlegel, G. E. Scuseria, 
 M. A. Robb, J. R. Cheeseman, G. Scalmani, V. Barone, 
 G. A. Petersson, H. Nakatsuji, X. Li, M. Caricato, A. V. Marenich, 
 J. Bloino, B. G. Janesko, R. Gomperts, B. Mennucci, H. P. Hratchian, 
 J. V. Ortiz, A. F. Izmaylov, J. L. Sonnenberg, D. Williams-Young, 
 F. Ding, F. Lipparini, F. Egidi, J. Goings, B. Peng, A. Petrone, 
 T. Henderson, D. Ranasinghe, V. G. Zakrzewski, J. Gao, N. Rega, 
 G. Zheng, W. Liang, M. Hada, M. Ehara, K. Toyota, R. Fukuda, 
 J. Hasegawa, M. Ishida, T. Nakajima, Y. Honda, O. Kitao, H. Nakai, 
 T. Vreven, K. Throssell, J. A. Montgomery, Jr., J. E. Peralta, 
 F. Ogliaro, M. J. Bearpark, J. J. Heyd, E. N. Brothers, K. N. Kudin, 
 V. N. Staroverov, T. A. Keith, R. Kobayashi, J. Normand, 
 K. Raghavachari, A. P. Rendell, J. C. Burant, S. S. Iyengar, 
 J. Tomasi, M. Cossi, J. M. Millam, M. Klene, C. Adamo, R. Cammi, 
 J. W. Ochterski, R. L. Martin, K. Morokuma, O. Farkas, 
 J. B. Foresman, and D. J. Fox, Gaussian, Inc., Wallingford CT, 2016.
 
 ******************************************
 Gaussian 16:  ES64L-G16RevB.01 20-Dec-2017
                 8-May-2019 
 ******************************************
 %NProcShared=32
 Will use up to   32 processors via shared memory.
 %chk=Step01-opt-singlet.chk
 ----------------------------------------------------------------------
 #p opt ub3lyp/6-31g(d,p) scrf=(iefpcm,solvent=acetonitrile) guess=(cor
 e,mix,local) empiricaldispersion=gd3
 ----------------------------------------------------------------------
 1/18=20,19=15,26=3,38=1/1,3;
 2/9=110,12=2,17=6,18=5,40=1/2;
 3/5=1,6=6,7=101,11=2,25=1,30=1,70=2201,71=1,72=2,74=-5,116=2,124=31/1,2,3;
 4/5=2,9=10,13=-1/1;
 5/5=2,38=5,53=2/2;
 6/7=2,8=2,9=2,10=2,28=1/1;
 7//1,2,3,16;
 1/18=20,19=15,26=3/3(2);
 2/9=110/2;
 99//99;
 2/9=110/2;
 3/5=1,6=6,7=101,11=2,25=1,30=1,70=2205,71=1,72=2,74=-5,116=2,124=31/1,2,3;
 4/5=5,16=3,69=1/1;
 5/5=2,38=5,53=2/2;
 7//1,2,3,16;
 1/18=20,19=15,26=3/3(-5);
 2/9=110/2;
 6/7=2,8=2,9=2,10=2,19=2,28=1/1;
 99/9=1/99;
 Leave Link    1 at Wed May  8 17:22:24 2019, MaxMem=           0 cpu:               2.9 elap:               0.1
 (Enter /opt/software/gaussian/g16.b01/l101.exe)
 -------------------
 Title Card Required
 -------------------
 Symbolic Z-matrix:
 Charge =  0 Multiplicity = 1
 C                     4.00225   0.6137    0.04018 
 H                     0.39586   2.81147   1.29369 
 C                    -4.00136   0.61284  -0.04562 
 O                    -2.94333   0.1921   -0.40809 
 O                     2.94453   0.19889   0.41029 
 N                    -0.60536   2.55032  -0.38044 
 H                    -0.3939    2.79169  -1.32631 
 N                     0.60758   2.55631   0.35151 
 H                     1.04947   1.65736   0.36322 
 H                    -1.0464    1.65088  -0.37886 
 C                     4.18664   2.04063  -0.42273 
 H                     4.95677   2.52731   0.16939 
 H                     4.52495   2.05168  -1.45543 
 H                     3.2574    2.58569  -0.33661 
 C                    -4.18505   2.04579   0.39859 
 H                    -4.95523   2.52511  -0.19941 
 H                    -4.52289   2.07027   1.43122 
 H                    -3.25558   2.58926   0.3052 
 C                     5.24761  -0.29184   0.01377 
 C                     6.03673  -0.42614   1.15645 
 C                     5.5866   -0.97783  -1.15243 
 C                     7.16496  -1.24574   1.13264 
 H                     5.76964   0.11543   2.07548 
 C                     6.71459  -1.7985   -1.17613 
 H                     4.96466  -0.87224  -2.05308 
 C                     7.50384  -1.93244  -0.0339 
 H                     7.78736  -1.35115   2.03308 
 H                     6.9814   -2.33958  -2.09565 
 H                     8.39343  -2.57866  -0.05242 
 C                    -5.24781  -0.29088  -0.01019 
 C                    -6.01321  -0.46902  -1.16297 
 C                    -5.61152  -0.9314    1.17429 
 C                    -7.14243  -1.28698  -1.13101 
 H                    -5.72664   0.0367   -2.09644 
 C                    -6.74049  -1.75043   1.20617 
 H                    -5.00827  -0.79125   2.08291 
 C                    -7.50603  -1.92819   0.05383 
 H                    -7.74613  -1.42694  -2.03945 
 H                    -7.02679  -2.25565   2.14012 
 H                    -8.39639  -2.57312   0.07877 
 
 Add virtual bond connecting atoms H9         and O5         Dist= 4.52D+00.
 Add virtual bond connecting atoms H9         and H14        Dist= 4.72D+00.
 Add virtual bond connecting atoms H10        and O4         Dist= 4.52D+00.
 Add virtual bond connecting atoms H10        and H18        Dist= 4.72D+00.
 ITRead=  0  0  0  0  0  0  0  0  0  0  0  0  0  0  0  0  0  0  0  0
 ITRead=  0  0  0  0  0  0  0  0  0  0  0  0  0  0  0  0  0  0  0  0
 MicOpt= -1 -1 -1 -1 -1 -1 -1 -1 -1 -1 -1 -1 -1 -1 -1 -1 -1 -1 -1 -1
 MicOpt= -1 -1 -1 -1 -1 -1 -1 -1 -1 -1 -1 -1 -1 -1 -1 -1 -1 -1 -1 -1
 NAtoms=     40 NQM=       40 NQMF=       0 NMMI=      0 NMMIF=      0
                NMic=       0 NMicF=      0.
                    Isotopes and Nuclear Properties:
 (Nuclear quadrupole moments (NQMom) in fm**2, nuclear magnetic moments (NMagM)
  in nuclear magnetons)

  Atom         1           2           3           4           5           6           7           8           9          10
 IAtWgt=          12           1          12          16          16          14           1          14           1           1
 AtmWgt=  12.0000000   1.0078250  12.0000000  15.9949146  15.9949146  14.0030740   1.0078250  14.0030740   1.0078250   1.0078250
 NucSpn=           0           1           0           0           0           2           1           2           1           1
 AtZEff=  -0.0000000  -0.0000000  -0.0000000  -0.0000000  -0.0000000  -0.0000000  -0.0000000  -0.0000000  -0.0000000  -0.0000000
 NQMom=    0.0000000   0.0000000   0.0000000   0.0000000   0.0000000   2.0440000   0.0000000   2.0440000   0.0000000   0.0000000
 NMagM=    0.0000000   2.7928460   0.0000000   0.0000000   0.0000000   0.4037610   2.7928460   0.4037610   2.7928460   2.7928460
 AtZNuc=   6.0000000   1.0000000   6.0000000   8.0000000   8.0000000   7.0000000   1.0000000   7.0000000   1.0000000   1.0000000

  Atom        11          12          13          14          15          16          17          18          19          20
 IAtWgt=          12           1           1           1          12           1           1           1          12          12
 AtmWgt=  12.0000000   1.0078250   1.0078250   1.0078250  12.0000000   1.0078250   1.0078250   1.0078250  12.0000000  12.0000000
 NucSpn=           0           1           1           1           0           1           1           1           0           0
 AtZEff=  -0.0000000  -0.0000000  -0.0000000  -0.0000000  -0.0000000  -0.0000000  -0.0000000  -0.0000000  -0.0000000  -0.0000000
 NQMom=    0.0000000   0.0000000   0.0000000   0.0000000   0.0000000   0.0000000   0.0000000   0.0000000   0.0000000   0.0000000
 NMagM=    0.0000000   2.7928460   2.7928460   2.7928460   0.0000000   2.7928460   2.7928460   2.7928460   0.0000000   0.0000000
 AtZNuc=   6.0000000   1.0000000   1.0000000   1.0000000   6.0000000   1.0000000   1.0000000   1.0000000   6.0000000   6.0000000

  Atom        21          22          23          24          25          26          27          28          29          30
 IAtWgt=          12          12           1          12           1          12           1           1           1          12
 AtmWgt=  12.0000000  12.0000000   1.0078250  12.0000000   1.0078250  12.0000000   1.0078250   1.0078250   1.0078250  12.0000000
 NucSpn=           0           0           1           0           1           0           1           1           1           0
 AtZEff=  -0.0000000  -0.0000000  -0.0000000  -0.0000000  -0.0000000  -0.0000000  -0.0000000  -0.0000000  -0.0000000  -0.0000000
 NQMom=    0.0000000   0.0000000   0.0000000   0.0000000   0.0000000   0.0000000   0.0000000   0.0000000   0.0000000   0.0000000
 NMagM=    0.0000000   0.0000000   2.7928460   0.0000000   2.7928460   0.0000000   2.7928460   2.7928460   2.7928460   0.0000000
 AtZNuc=   6.0000000   6.0000000   1.0000000   6.0000000   1.0000000   6.0000000   1.0000000   1.0000000   1.0000000   6.0000000

  Atom        31          32          33          34          35          36          37          38          39          40
 IAtWgt=          12          12          12           1          12           1          12           1           1           1
 AtmWgt=  12.0000000  12.0000000  12.0000000   1.0078250  12.0000000   1.0078250  12.0000000   1.0078250   1.0078250   1.0078250
 NucSpn=           0           0           0           1           0           1           0           1           1           1
 AtZEff=  -0.0000000  -0.0000000  -0.0000000  -0.0000000  -0.0000000  -0.0000000  -0.0000000  -0.0000000  -0.0000000  -0.0000000
 NQMom=    0.0000000   0.0000000   0.0000000   0.0000000   0.0000000   0.0000000   0.0000000   0.0000000   0.0000000   0.0000000
 NMagM=    0.0000000   0.0000000   0.0000000   2.7928460   0.0000000   2.7928460   0.0000000   2.7928460   2.7928460   2.7928460
 AtZNuc=   6.0000000   6.0000000   6.0000000   1.0000000   6.0000000   1.0000000   6.0000000   1.0000000   1.0000000   1.0000000
 Leave Link  101 at Wed May  8 17:22:24 2019, MaxMem=   104857600 cpu:               8.3 elap:               0.3
 (Enter /opt/software/gaussian/g16.b01/l103.exe)

 GradGradGradGradGradGradGradGradGradGradGradGradGradGradGradGradGradGrad
 Berny optimization.
 Initialization pass.
                           ----------------------------
                           !    Initial Parameters    !
                           ! (Angstroms and Degrees)  !
 --------------------------                            --------------------------
 ! Name  Definition              Value          Derivative Info.                !
 --------------------------------------------------------------------------------
 ! R1    R(1,5)                  1.1949         estimate D2E/DX2                !
 ! R2    R(1,11)                 1.5114         estimate D2E/DX2                !
 ! R3    R(1,19)                 1.54           estimate D2E/DX2                !
 ! R4    R(2,8)                  0.9988         estimate D2E/DX2                !
 ! R5    R(3,4)                  1.1949         estimate D2E/DX2                !
 ! R6    R(3,15)                 1.5114         estimate D2E/DX2                !
 ! R7    R(3,30)                 1.54           estimate D2E/DX2                !
 ! R8    R(4,10)                 2.3932         estimate D2E/DX2                !
 ! R9    R(5,9)                  2.3918         estimate D2E/DX2                !
 ! R10   R(6,7)                  0.9988         estimate D2E/DX2                !
 ! R11   R(6,8)                  1.4167         estimate D2E/DX2                !
 ! R12   R(6,10)                 1.0018         estimate D2E/DX2                !
 ! R13   R(8,9)                  1.0018         estimate D2E/DX2                !
 ! R14   R(9,14)                 2.4953         estimate D2E/DX2                !
 ! R15   R(10,18)                2.4958         estimate D2E/DX2                !
 ! R16   R(11,12)                1.0865         estimate D2E/DX2                !
 ! R17   R(11,13)                1.0868         estimate D2E/DX2                !
 ! R18   R(11,14)                1.0807         estimate D2E/DX2                !
 ! R19   R(15,16)                1.0865         estimate D2E/DX2                !
 ! R20   R(15,17)                1.0868         estimate D2E/DX2                !
 ! R21   R(15,18)                1.0807         estimate D2E/DX2                !
 ! R22   R(19,20)                1.3952         estimate D2E/DX2                !
 ! R23   R(19,21)                1.3948         estimate D2E/DX2                !
 ! R24   R(20,22)                1.3947         estimate D2E/DX2                !
 ! R25   R(20,23)                1.0997         estimate D2E/DX2                !
 ! R26   R(21,24)                1.3951         estimate D2E/DX2                !
 ! R27   R(21,25)                1.0996         estimate D2E/DX2                !
 ! R28   R(22,26)                1.3954         estimate D2E/DX2                !
 ! R29   R(22,27)                1.0997         estimate D2E/DX2                !
 ! R30   R(24,26)                1.3948         estimate D2E/DX2                !
 ! R31   R(24,28)                1.0998         estimate D2E/DX2                !
 ! R32   R(26,29)                1.0997         estimate D2E/DX2                !
 ! R33   R(30,31)                1.3952         estimate D2E/DX2                !
 ! R34   R(30,32)                1.3948         estimate D2E/DX2                !
 ! R35   R(31,33)                1.3947         estimate D2E/DX2                !
 ! R36   R(31,34)                1.0997         estimate D2E/DX2                !
 ! R37   R(32,35)                1.3951         estimate D2E/DX2                !
 ! R38   R(32,36)                1.0996         estimate D2E/DX2                !
 ! R39   R(33,37)                1.3954         estimate D2E/DX2                !
 ! R40   R(33,38)                1.0997         estimate D2E/DX2                !
 ! R41   R(35,37)                1.3948         estimate D2E/DX2                !
 ! R42   R(35,39)                1.0998         estimate D2E/DX2                !
 ! R43   R(37,40)                1.0997         estimate D2E/DX2                !
 ! A1    A(5,1,11)             122.0457         estimate D2E/DX2                !
 ! A2    A(5,1,19)             121.1314         estimate D2E/DX2                !
 ! A3    A(11,1,19)            116.8229         estimate D2E/DX2                !
 ! A4    A(4,3,15)             122.0454         estimate D2E/DX2                !
 ! A5    A(4,3,30)             121.1318         estimate D2E/DX2                !
 ! A6    A(15,3,30)            116.8228         estimate D2E/DX2                !
 ! A7    A(3,4,10)             118.9143         estimate D2E/DX2                !
 ! A8    A(1,5,9)              118.9188         estimate D2E/DX2                !
 ! A9    A(7,6,8)              107.8775         estimate D2E/DX2                !
 ! A10   A(7,6,10)             108.1606         estimate D2E/DX2                !
 ! A11   A(8,6,10)             112.3291         estimate D2E/DX2                !
 ! A12   A(2,8,6)              107.876          estimate D2E/DX2                !
 ! A13   A(2,8,9)              108.1633         estimate D2E/DX2                !
 ! A14   A(6,8,9)              112.3287         estimate D2E/DX2                !
 ! A15   A(5,9,8)              153.7588         estimate D2E/DX2                !
 ! A16   A(5,9,14)              62.0503         estimate D2E/DX2                !
 ! A17   A(8,9,14)              93.0486         estimate D2E/DX2                !
 ! A18   A(4,10,6)             153.6708         estimate D2E/DX2                !
 ! A19   A(4,10,18)             62.0252         estimate D2E/DX2                !
 ! A20   A(6,10,18)             93.0125         estimate D2E/DX2                !
 ! A21   A(1,11,12)            110.0255         estimate D2E/DX2                !
 ! A22   A(1,11,13)            109.7925         estimate D2E/DX2                !
 ! A23   A(1,11,14)            110.2944         estimate D2E/DX2                !
 ! A24   A(12,11,13)           107.017          estimate D2E/DX2                !
 ! A25   A(12,11,14)           109.8836         estimate D2E/DX2                !
 ! A26   A(13,11,14)           109.7704         estimate D2E/DX2                !
 ! A27   A(9,14,11)            126.5496         estimate D2E/DX2                !
 ! A28   A(3,15,16)            110.038          estimate D2E/DX2                !
 ! A29   A(3,15,17)            109.7796         estimate D2E/DX2                !
 ! A30   A(3,15,18)            110.2943         estimate D2E/DX2                !
 ! A31   A(16,15,17)           107.0171         estimate D2E/DX2                !
 ! A32   A(16,15,18)           109.8909         estimate D2E/DX2                !
 ! A33   A(17,15,18)           109.7633         estimate D2E/DX2                !
 ! A34   A(10,18,15)           126.5751         estimate D2E/DX2                !
 ! A35   A(1,19,20)            119.9972         estimate D2E/DX2                !
 ! A36   A(1,19,21)            120.0043         estimate D2E/DX2                !
 ! A37   A(20,19,21)           119.9985         estimate D2E/DX2                !
 ! A38   A(19,20,22)           120.0086         estimate D2E/DX2                !
 ! A39   A(19,20,23)           119.9808         estimate D2E/DX2                !
 ! A40   A(22,20,23)           120.0106         estimate D2E/DX2                !
 ! A41   A(19,21,24)           120.0            estimate D2E/DX2                !
 ! A42   A(19,21,25)           120.008          estimate D2E/DX2                !
 ! A43   A(24,21,25)           119.992          estimate D2E/DX2                !
 ! A44   A(20,22,26)           119.9942         estimate D2E/DX2                !
 ! A45   A(20,22,27)           120.0128         estimate D2E/DX2                !
 ! A46   A(26,22,27)           119.993          estimate D2E/DX2                !
 ! A47   A(21,24,26)           120.0047         estimate D2E/DX2                !
 ! A48   A(21,24,28)           119.984          estimate D2E/DX2                !
 ! A49   A(26,24,28)           120.0113         estimate D2E/DX2                !
 ! A50   A(22,26,24)           119.994          estimate D2E/DX2                !
 ! A51   A(22,26,29)           119.9811         estimate D2E/DX2                !
 ! A52   A(24,26,29)           120.0249         estimate D2E/DX2                !
 ! A53   A(3,30,31)            119.9972         estimate D2E/DX2                !
 ! A54   A(3,30,32)            120.0043         estimate D2E/DX2                !
 ! A55   A(31,30,32)           119.9985         estimate D2E/DX2                !
 ! A56   A(30,31,33)           120.0086         estimate D2E/DX2                !
 ! A57   A(30,31,34)           119.9808         estimate D2E/DX2                !
 ! A58   A(33,31,34)           120.0106         estimate D2E/DX2                !
 ! A59   A(30,32,35)           120.0            estimate D2E/DX2                !
 ! A60   A(30,32,36)           120.008          estimate D2E/DX2                !
 ! A61   A(35,32,36)           119.992          estimate D2E/DX2                !
 ! A62   A(31,33,37)           119.9942         estimate D2E/DX2                !
 ! A63   A(31,33,38)           120.0128         estimate D2E/DX2                !
 ! A64   A(37,33,38)           119.993          estimate D2E/DX2                !
 ! A65   A(32,35,37)           120.0047         estimate D2E/DX2                !
 ! A66   A(32,35,39)           119.984          estimate D2E/DX2                !
 ! A67   A(37,35,39)           120.0113         estimate D2E/DX2                !
 ! A68   A(33,37,35)           119.994          estimate D2E/DX2                !
 ! A69   A(33,37,40)           119.9811         estimate D2E/DX2                !
 ! A70   A(35,37,40)           120.0249         estimate D2E/DX2                !
 ! D1    D(11,1,5,9)             1.6055         estimate D2E/DX2                !
 ! D2    D(19,1,5,9)          -178.3705         estimate D2E/DX2                !
 ! D3    D(5,1,11,12)          122.8865         estimate D2E/DX2                !
 ! D4    D(5,1,11,13)         -119.5837         estimate D2E/DX2                !
 ! D5    D(5,1,11,14)            1.5048         estimate D2E/DX2                !
 ! D6    D(19,1,11,12)         -57.1365         estimate D2E/DX2                !
 ! D7    D(19,1,11,13)          60.3932         estimate D2E/DX2                !
 ! D8    D(19,1,11,14)        -178.5182         estimate D2E/DX2                !
 ! D9    D(5,1,19,20)          -86.5272         estimate D2E/DX2                !
 ! D10   D(5,1,19,21)           93.4676         estimate D2E/DX2                !
 ! D11   D(11,1,19,20)          93.4957         estimate D2E/DX2                !
 ! D12   D(11,1,19,21)         -86.5096         estimate D2E/DX2                !
 ! D13   D(15,3,4,10)            1.5064         estimate D2E/DX2                !
 ! D14   D(30,3,4,10)         -178.4626         estimate D2E/DX2                !
 ! D15   D(4,3,15,16)          123.0446         estimate D2E/DX2                !
 ! D16   D(4,3,15,17)         -119.4258         estimate D2E/DX2                !
 ! D17   D(4,3,15,18)            1.6455         estimate D2E/DX2                !
 ! D18   D(30,3,15,16)         -56.9851         estimate D2E/DX2                !
 ! D19   D(30,3,15,17)          60.5445         estimate D2E/DX2                !
 ! D20   D(30,3,15,18)        -178.3842         estimate D2E/DX2                !
 ! D21   D(4,3,30,31)          -84.712          estimate D2E/DX2                !
 ! D22   D(4,3,30,32)           95.2827         estimate D2E/DX2                !
 ! D23   D(15,3,30,31)          95.3174         estimate D2E/DX2                !
 ! D24   D(15,3,30,32)         -84.6879         estimate D2E/DX2                !
 ! D25   D(3,4,10,6)           -22.3086         estimate D2E/DX2                !
 ! D26   D(3,4,10,18)           -2.2169         estimate D2E/DX2                !
 ! D27   D(1,5,9,8)            -22.168          estimate D2E/DX2                !
 ! D28   D(1,5,9,14)            -2.2482         estimate D2E/DX2                !
 ! D29   D(7,6,8,2)            149.7202         estimate D2E/DX2                !
 ! D30   D(7,6,8,9)            -91.1654         estimate D2E/DX2                !
 ! D31   D(10,6,8,2)           -91.1675         estimate D2E/DX2                !
 ! D32   D(10,6,8,9)            27.9469         estimate D2E/DX2                !
 ! D33   D(7,6,10,4)           -93.2925         estimate D2E/DX2                !
 ! D34   D(7,6,10,18)         -110.9787         estimate D2E/DX2                !
 ! D35   D(8,6,10,4)           147.761          estimate D2E/DX2                !
 ! D36   D(8,6,10,18)          130.0748         estimate D2E/DX2                !
 ! D37   D(2,8,9,5)            -93.4892         estimate D2E/DX2                !
 ! D38   D(2,8,9,14)          -111.0303         estimate D2E/DX2                !
 ! D39   D(6,8,9,5)            147.5648         estimate D2E/DX2                !
 ! D40   D(6,8,9,14)           130.0237         estimate D2E/DX2                !
 ! D41   D(5,9,14,11)            3.7638         estimate D2E/DX2                !
 ! D42   D(8,9,14,11)          175.0873         estimate D2E/DX2                !
 ! D43   D(4,10,18,15)           3.8261         estimate D2E/DX2                !
 ! D44   D(6,10,18,15)         175.05           estimate D2E/DX2                !
 ! D45   D(1,11,14,9)           -4.0088         estimate D2E/DX2                !
 ! D46   D(12,11,14,9)        -125.4748         estimate D2E/DX2                !
 ! D47   D(13,11,14,9)         117.0929         estimate D2E/DX2                !
 ! D48   D(3,15,18,10)          -4.1259         estimate D2E/DX2                !
 ! D49   D(16,15,18,10)       -125.6123         estimate D2E/DX2                !
 ! D50   D(17,15,18,10)        116.9552         estimate D2E/DX2                !
 ! D51   D(1,19,20,22)        -179.9729         estimate D2E/DX2                !
 ! D52   D(1,19,20,23)          -0.052          estimate D2E/DX2                !
 ! D53   D(21,19,20,22)          0.0323         estimate D2E/DX2                !
 ! D54   D(21,19,20,23)        179.9532         estimate D2E/DX2                !
 ! D55   D(1,19,21,24)        -179.9798         estimate D2E/DX2                !
 ! D56   D(1,19,21,25)          -0.0056         estimate D2E/DX2                !
 ! D57   D(20,19,21,24)          0.0149         estimate D2E/DX2                !
 ! D58   D(20,19,21,25)        179.9892         estimate D2E/DX2                !
 ! D59   D(19,20,22,26)         -0.0568         estimate D2E/DX2                !
 ! D60   D(19,20,22,27)        179.9619         estimate D2E/DX2                !
 ! D61   D(23,20,22,26)       -179.9777         estimate D2E/DX2                !
 ! D62   D(23,20,22,27)          0.041          estimate D2E/DX2                !
 ! D63   D(19,21,24,26)         -0.0376         estimate D2E/DX2                !
 ! D64   D(19,21,24,28)        179.975          estimate D2E/DX2                !
 ! D65   D(25,21,24,26)        179.9881         estimate D2E/DX2                !
 ! D66   D(25,21,24,28)          0.0007         estimate D2E/DX2                !
 ! D67   D(20,22,26,24)          0.0341         estimate D2E/DX2                !
 ! D68   D(20,22,26,29)       -179.9964         estimate D2E/DX2                !
 ! D69   D(27,22,26,24)       -179.9846         estimate D2E/DX2                !
 ! D70   D(27,22,26,29)         -0.0151         estimate D2E/DX2                !
 ! D71   D(21,24,26,22)          0.0131         estimate D2E/DX2                !
 ! D72   D(21,24,26,29)       -179.9563         estimate D2E/DX2                !
 ! D73   D(28,24,26,22)       -179.9995         estimate D2E/DX2                !
 ! D74   D(28,24,26,29)          0.0311         estimate D2E/DX2                !
 ! D75   D(3,30,31,33)        -179.9729         estimate D2E/DX2                !
 ! D76   D(3,30,31,34)          -0.052          estimate D2E/DX2                !
 ! D77   D(32,30,31,33)          0.0323         estimate D2E/DX2                !
 ! D78   D(32,30,31,34)        179.9532         estimate D2E/DX2                !
 ! D79   D(3,30,32,35)        -179.9798         estimate D2E/DX2                !
 ! D80   D(3,30,32,36)          -0.0056         estimate D2E/DX2                !
 ! D81   D(31,30,32,35)          0.0149         estimate D2E/DX2                !
 ! D82   D(31,30,32,36)        179.9892         estimate D2E/DX2                !
 ! D83   D(30,31,33,37)         -0.0568         estimate D2E/DX2                !
 ! D84   D(30,31,33,38)        179.9619         estimate D2E/DX2                !
 ! D85   D(34,31,33,37)       -179.9777         estimate D2E/DX2                !
 ! D86   D(34,31,33,38)          0.041          estimate D2E/DX2                !
 ! D87   D(30,32,35,37)         -0.0376         estimate D2E/DX2                !
 ! D88   D(30,32,35,39)        179.975          estimate D2E/DX2                !
 ! D89   D(36,32,35,37)        179.9881         estimate D2E/DX2                !
 ! D90   D(36,32,35,39)          0.0007         estimate D2E/DX2                !
 ! D91   D(31,33,37,35)          0.0341         estimate D2E/DX2                !
 ! D92   D(31,33,37,40)       -179.9964         estimate D2E/DX2                !
 ! D93   D(38,33,37,35)       -179.9846         estimate D2E/DX2                !
 ! D94   D(38,33,37,40)         -0.0151         estimate D2E/DX2                !
 ! D95   D(32,35,37,33)          0.0131         estimate D2E/DX2                !
 ! D96   D(32,35,37,40)       -179.9563         estimate D2E/DX2                !
 ! D97   D(39,35,37,33)       -179.9995         estimate D2E/DX2                !
 ! D98   D(39,35,37,40)          0.031          estimate D2E/DX2                !
 --------------------------------------------------------------------------------
 Trust Radius=3.00D-01 FncErr=1.00D-07 GrdErr=1.00D-06 EigMax=2.50D+02 EigMin=1.00D-04
 Number of steps in this run=    221 maximum allowed number of steps=    240.
 GradGradGradGradGradGradGradGradGradGradGradGradGradGradGradGradGradGrad

 Leave Link  103 at Wed May  8 17:22:24 2019, MaxMem=   104857600 cpu:               0.7 elap:               0.0
 (Enter /opt/software/gaussian/g16.b01/l202.exe)
                          Input orientation:                          
 ---------------------------------------------------------------------
 Center     Atomic      Atomic             Coordinates (Angstroms)
 Number     Number       Type             X           Y           Z
 ---------------------------------------------------------------------
      1          6           0        4.002254    0.613703    0.040175
      2          1           0        0.395858    2.811472    1.293685
      3          6           0       -4.001357    0.612839   -0.045620
      4          8           0       -2.943327    0.192097   -0.408087
      5          8           0        2.944533    0.198888    0.410286
      6          7           0       -0.605364    2.550319   -0.380443
      7          1           0       -0.393901    2.791688   -1.326306
      8          7           0        0.607580    2.556309    0.351509
      9          1           0        1.049470    1.657359    0.363220
     10          1           0       -1.046403    1.650878   -0.378859
     11          6           0        4.186643    2.040633   -0.422732
     12          1           0        4.956771    2.527307    0.169388
     13          1           0        4.524946    2.051683   -1.455433
     14          1           0        3.257398    2.585692   -0.336614
     15          6           0       -4.185049    2.045787    0.398588
     16          1           0       -4.955231    2.525111   -0.199407
     17          1           0       -4.522894    2.070275    1.431223
     18          1           0       -3.255578    2.589263    0.305199
     19          6           0        5.247606   -0.291837    0.013773
     20          6           0        6.036732   -0.426136    1.156452
     21          6           0        5.586604   -0.977833   -1.152434
     22          6           0        7.164964   -1.245738    1.132638
     23          1           0        5.769638    0.115427    2.075480
     24          6           0        6.714592   -1.798498   -1.176128
     25          1           0        4.964660   -0.872238   -2.053081
     26          6           0        7.503843   -1.932441   -0.033903
     27          1           0        7.787364   -1.351152    2.033084
     28          1           0        6.981400   -2.339575   -2.095651
     29          1           0        8.393427   -2.578657   -0.052423
     30          6           0       -5.247806   -0.290881   -0.010193
     31          6           0       -6.013205   -0.469023   -1.162973
     32          6           0       -5.611516   -0.931400    1.174289
     33          6           0       -7.142428   -1.286981   -1.131014
     34          1           0       -5.726635    0.036702   -2.096441
     35          6           0       -6.740494   -1.750425    1.206174
     36          1           0       -5.008274   -0.791249    2.082906
     37          6           0       -7.506028   -1.928195    0.053831
     38          1           0       -7.746131   -1.426944   -2.039447
     39          1           0       -7.026788   -2.255646    2.140124
     40          1           0       -8.396388   -2.573124    0.078773
 ---------------------------------------------------------------------
                    Distance matrix (angstroms):
                    1          2          3          4          5
     1  C    0.000000
     2  H    4.405402   0.000000
     3  C    8.004071   5.095412   0.000000
     4  O    6.972790   4.572452   1.194920   0.000000
     5  O    1.194917   3.755228   6.973134   5.944466   0.000000
     6  N    5.015731   1.968084   3.924118   3.320851   4.330849
     7  H    5.092844   2.736505   4.404688   3.755073   4.569847
     8  N    3.923577   0.998814   5.017677   4.333063   3.319976
     9  H    3.148414   1.620170   5.173879   4.322538   2.391781
    10  H    5.171098   2.494895   3.149655   2.393161   4.319559
    11  C    1.511426   4.232059   8.320105   7.365716   2.372504
    12  H    2.142354   4.706030   9.162940   8.258223   3.086855
    13  H    2.139588   5.018396   8.761032   7.767245   3.067811
    14  H    2.141383   3.301100   7.527705   6.647060   2.520432
    15  C    8.319330   4.729924   1.511424   2.372502   7.364924
    16  H    9.162283   5.562867   2.142501   3.087760   8.257682
    17  H    8.759839   4.976185   2.139435   3.066862   7.765750
    18  H    7.526567   3.789389   2.141380   2.520453   6.645774
    19  C    1.540000   5.899844   9.293292   8.216054   2.387923
    20  C    2.542919   6.505413  10.163055   9.136272   3.241776
    21  C    2.542728   6.876494   9.781833   8.641904   3.287446
    22  C    3.828019   7.893522  11.381095  10.325636   4.518935
    23  H    2.741239   6.062786  10.010935   9.060339   3.280405
    24  C    3.828170   8.202329  11.041927   9.890792   4.551879
    25  H    2.741526   6.756072   9.307245   8.147090   3.361011
    26  C    4.330065   8.648159  11.783387  10.667570   5.052443
    27  H    4.707376   8.515193  12.130631  11.112546   5.337519
    28  H    4.707326   9.021655  11.555965  10.380628   5.387004
    29  H    5.429745   9.737895  12.799076  11.675854   6.133457
    30  C    9.294322   6.570817   1.540000   2.387930   8.217730
    31  C   10.145408   7.607425   2.542919   3.229719   9.119338
    32  C    9.802966   7.078976   2.542728   3.299302   8.664135
    33  C   11.366101   8.916404   3.828019   4.510293  10.311654
    34  H    9.977442   7.528429   2.741239   3.259063   9.027688
    35  C   11.061433   8.470307   3.828170   4.560450   9.911257
    36  H    9.345387   6.542714   2.741526   3.381718   8.186890
    37  C   11.785669   9.297391   4.330065   5.052449  10.670790
    38  H   12.104281   9.765548   4.707376   5.324429  11.087597
    39  H   11.588042   9.027061   4.707326   5.399951  10.413660
    40  H   12.801706  10.381401   5.429745   6.133461  11.679488
                    6          7          8          9         10
     6  N    0.000000
     7  H    0.998815   0.000000
     8  N    1.416695   1.968103   0.000000
     9  H    2.022100   2.494898   1.001756   0.000000
    10  H    1.001754   1.620142   2.022103   2.223377   0.000000
    11  C    4.819222   4.728837   3.697980   3.256758   5.247723
    12  H    5.589293   5.562076   4.353099   4.007666   6.091535
    13  H    5.265390   4.975875   4.343437   3.942325   5.688548
    14  H    3.863173   3.788655   2.737866   2.495299   4.404357
    15  C    3.698051   4.231363   4.819973   5.249030   3.257526
    16  H    4.353706   4.706028   5.590112   6.093109   4.009418
    17  H    4.342766   5.017269   5.265337   5.688793   3.941863
    18  H    2.737746   3.300300   3.863577   4.405139   2.495788
    19  C    6.518475   6.567384   5.454891   4.641748   6.598700
    20  C    7.439004   7.607333   6.246487   5.462871   7.539361
    21  C    7.168284   7.071488   6.288297   5.461413   7.176720
    22  C    8.779378   8.915360   7.620040   6.813167   8.837508
    23  H    7.252649   7.531516   5.964631   5.252559   7.405390
    24  C    8.551438   8.463038   7.654646   6.812206   8.530350
    25  H    6.748095   6.531977   6.043271   5.250341   6.730676
    26  C    9.272243   9.293119   8.237467   7.396169   9.277170
    27  H    9.564752   9.766356   8.345372   7.565633   9.636653
    28  H    9.187601   9.017583   8.401420   7.563685   9.127799
    29  H   10.363023  10.376921   9.335440   8.488245  10.349198
    30  C    5.455434   5.898710   6.520956   6.602330   4.643073
    31  C    6.242878   6.498884   7.435126   7.532074   5.456917
    32  C    6.292942   6.880252   7.177621   7.192235   5.469981
    33  C    7.617180   7.887731   8.776753   8.832274   6.808692
    34  H    5.957377   6.051538   7.243146   7.388644   5.240251
    35  C    7.658562   8.205090   8.559942   8.544420   6.819375
    36  H    6.051427   6.764066   6.763261   6.756423   5.265044
    37  C    8.238012   8.646642   9.275237   9.281619   7.397550
    38  H    8.340351   8.506510   9.558633   9.625400   7.557572
    39  H    8.407451   9.027010   9.199871   9.148494   7.574379
    40  H    9.335984   9.736285  10.366142  10.353846   8.489635
                   11         12         13         14         15
    11  C    0.000000
    12  H    1.086534   0.000000
    13  H    1.086758   1.747208   0.000000
    14  H    1.080741   1.774067   1.773020   0.000000
    15  C    8.411885   9.157361   8.905135   7.498135   0.000000
    16  H    9.157426   9.918861   9.574732   8.213999   1.086522
    17  H    8.904721   9.574192   9.497186   7.995239   1.086772
    18  H    7.497835   8.213706   7.995334   6.544524   1.080742
    19  C    2.599345   2.838375   2.858826   3.516229   9.725613
    20  C    3.464332   3.295973   3.904744   4.361771  10.543698
    21  C    3.406389   3.798672   3.224421   4.334682  10.345682
    22  C    4.699979   4.476588   4.953866   5.666359  11.840429
    23  H    3.528931   3.179797   4.214937   4.269866  10.277843
    24  C    4.658010   4.859315   4.438069   5.646069  11.664494
    25  H    3.427559   4.061568   3.016595   4.221170   9.911746
    26  C    5.190407   5.139870   5.173763   6.207854  12.354900
    27  H    5.522719   5.150540   5.864504   6.452503  12.551870
    28  H    5.458530   5.737253   5.072198   6.420332  12.253253
    29  H    6.258754   6.158788   6.194645   7.289036  13.409211
    30  C    9.727022  10.588098  10.152980   8.984415   2.599341
    31  C   10.530110  11.449610  10.839378   9.795828   3.479209
    32  C   10.362788  11.165177  10.888622   9.659731   3.391190
    33  C   11.828885  12.752665  12.139998  11.125873   4.710958
    34  H   10.251347  11.201441  10.467376   9.503010   3.555008
    35  C   11.680230  12.497997  12.184019  11.006360   4.646905
    36  H    9.942045  10.675977  10.558616   9.250899   3.400500
    37  C   12.357073  13.235793  12.761725  11.678140   5.190404
    38  H   12.531119  13.486244  12.767977  11.835478   5.539420
    39  H   12.278732  13.052438  12.842261  11.633454   5.441577
    40  H   13.411596  14.294386  13.809543  12.751339   6.258754
                   16         17         18         19         20
    16  H    0.000000
    17  H    1.747210   0.000000
    18  H    1.774137   1.772955   0.000000
    19  C   10.586715  10.151424   8.982751   0.000000
    20  C   11.461740  10.854182   9.806340   1.395160   0.000000
    21  C   11.149402  10.870519   9.645364   1.394829   2.416183
    22  C   12.762946  12.152824  11.134612   2.416205   1.394712
    23  H   11.225173  10.496319   9.524090   2.165414   1.099655
    24  C   12.483283  12.167447  10.993228   2.416183   2.789946
    25  H   10.648114  10.526748   9.225821   2.165366   3.413129
    26  C   13.233507  12.759731  11.675871   2.790065   2.416260
    27  H   13.504931  12.791046  11.851541   3.413229   2.165375
    28  H   13.028587  12.815397  11.612633   3.413055   3.889707
    29  H   14.291841  13.807430  12.748906   3.889745   3.413024
    30  C    2.837465   2.859761   3.516201  10.495439  11.345491
    31  C    3.318524   3.924145   4.371858  11.323515  12.271209
    32  C    3.776932   3.203306   4.324446  10.939670  11.659215
    33  C    4.492634   4.969727   5.674115  12.482540  13.403874
    34  H    3.222729   4.246036   4.288306  11.180112  12.213613
    35  C    4.841800   4.423364   5.638199  12.135232  12.845767
    36  H    4.026165   2.974660   4.202385  10.474435  11.089805
    37  C    5.138348   5.175331   6.207812  12.858245  13.670344
    38  H    5.176253   5.887728   6.464700  13.203840  14.183889
    39  H    5.711426   5.048328   6.407973  12.611053  13.227633
    40  H    6.157186   6.196307   7.288994  13.833549  14.631675
                   21         22         23         24         25
    21  C    0.000000
    22  C    2.790080   0.000000
    23  H    3.412938   2.165330   0.000000
    24  C    1.395138   2.416356   3.889601   0.000000
    25  H    1.099604   3.889684   4.320704   2.165471   0.000000
    26  C    2.416236   1.395427   3.413316   1.394825   3.412999
    27  H    3.889760   1.099680   2.494768   3.413209   4.989365
    28  H    2.165516   3.413506   4.989362   1.099761   2.494420
    29  H    3.413344   2.165678   4.320917   2.165606   4.320989
    30  C   10.916091  12.501787  11.220481  12.113269  10.431003
    31  C   11.610968  13.399152  12.233747  12.797051  11.021270
    32  C   11.437381  12.780414  11.464670  12.578126  11.057799
    33  C   12.732804  14.485417  13.377960  13.866532  12.149231
    34  H   11.397798  13.351589  12.230103  12.609483  10.729951
    35  C   12.574469  13.914808  12.678348  13.664444  12.182142
    36  H   11.079425  12.218727  10.815983  12.209072  10.796867
    37  C   13.182385  14.726424  13.583327  14.274300  12.691421
    38  H   13.369753  15.245842  14.212232  14.491234  12.722896
    39  H   13.098526  14.263266  13.014403  14.143268  12.778560
    40  H   14.127451  15.653378  14.556491  15.182771  13.636547
                   26         27         28         29         30
    26  C    0.000000
    27  H    2.165806   0.000000
    28  H    2.165528   4.321228   0.000000
    29  H    1.099680   2.494678   2.495148   0.000000
    30  C   12.856899  13.236873  12.573773  13.831809   0.000000
    31  C   13.642837  14.193261  13.161635  14.602566   1.395160
    32  C   13.208878  13.432934  13.086520  14.154741   1.394829
    33  C   14.701481  15.261531  14.195810  15.626727   2.416205
    34  H   13.534295  14.198848  12.928297  14.504974   2.165414
    35  C   14.299373  14.556850  14.125846  15.208734   2.416183
    36  H   12.741125  12.807979  12.791010  13.687952   2.165366
    37  C   15.010128  15.431729  14.651794  15.913110   2.790065
    38  H   15.389589  16.058665  14.755888  16.302148   3.413229
    39  H   14.695921  14.842125  14.634827  15.578659   3.413055
    40  H   15.913533  16.347060  15.532515  16.790328   3.889745
                   31         32         33         34         35
    31  C    0.000000
    32  C    2.416183   0.000000
    33  C    1.394712   2.790080   0.000000
    34  H    1.099655   3.412938   2.165330   0.000000
    35  C    2.789946   1.395138   2.416356   3.889601   0.000000
    36  H    3.413129   1.099604   3.889684   4.320704   2.165471
    37  C    2.416260   2.416236   1.395427   3.413316   1.394825
    38  H    2.165375   3.889761   1.099680   2.494768   3.413209
    39  H    3.889707   2.165516   3.413506   4.989362   1.099761
    40  H    3.413024   3.413344   2.165678   4.320917   2.165606
                   36         37         38         39         40
    36  H    0.000000
    37  C    3.412999   0.000000
    38  H    4.989365   2.165806   0.000000
    39  H    2.494420   2.165528   4.321228   0.000000
    40  H    4.320989   1.099680   2.494678   2.495148   0.000000
 Stoichiometry    C16H20N2O2
 Framework group  C1[X(C16H20N2O2)]
 Deg. of freedom   114
 Full point group                 C1      NOp   1
 Largest Abelian subgroup         C1      NOp   1
 Largest concise Abelian subgroup C1      NOp   1
                         Standard orientation:                         
 ---------------------------------------------------------------------
 Center     Atomic      Atomic             Coordinates (Angstroms)
 Number     Number       Type             X           Y           Z
 ---------------------------------------------------------------------
      1          6           0        4.002254    0.613703    0.040175
      2          1           0        0.395858    2.811472    1.293685
      3          6           0       -4.001357    0.612839   -0.045620
      4          8           0       -2.943327    0.192097   -0.408087
      5          8           0        2.944533    0.198888    0.410286
      6          7           0       -0.605364    2.550319   -0.380443
      7          1           0       -0.393901    2.791688   -1.326306
      8          7           0        0.607580    2.556309    0.351509
      9          1           0        1.049470    1.657359    0.363220
     10          1           0       -1.046403    1.650878   -0.378859
     11          6           0        4.186643    2.040633   -0.422732
     12          1           0        4.956771    2.527307    0.169388
     13          1           0        4.524946    2.051683   -1.455433
     14          1           0        3.257398    2.585692   -0.336614
     15          6           0       -4.185049    2.045787    0.398588
     16          1           0       -4.955231    2.525111   -0.199407
     17          1           0       -4.522894    2.070275    1.431223
     18          1           0       -3.255578    2.589263    0.305199
     19          6           0        5.247606   -0.291837    0.013773
     20          6           0        6.036732   -0.426136    1.156452
     21          6           0        5.586604   -0.977833   -1.152434
     22          6           0        7.164964   -1.245738    1.132638
     23          1           0        5.769638    0.115427    2.075480
     24          6           0        6.714592   -1.798498   -1.176128
     25          1           0        4.964660   -0.872238   -2.053081
     26          6           0        7.503843   -1.932441   -0.033903
     27          1           0        7.787364   -1.351152    2.033084
     28          1           0        6.981400   -2.339575   -2.095651
     29          1           0        8.393427   -2.578657   -0.052423
     30          6           0       -5.247806   -0.290881   -0.010193
     31          6           0       -6.013205   -0.469023   -1.162973
     32          6           0       -5.611516   -0.931400    1.174289
     33          6           0       -7.142428   -1.286981   -1.131014
     34          1           0       -5.726635    0.036702   -2.096441
     35          6           0       -6.740494   -1.750425    1.206174
     36          1           0       -5.008274   -0.791249    2.082906
     37          6           0       -7.506028   -1.928195    0.053831
     38          1           0       -7.746131   -1.426944   -2.039447
     39          1           0       -7.026788   -2.255646    2.140124
     40          1           0       -8.396388   -2.573124    0.078773
 ---------------------------------------------------------------------
 Rotational constants (GHZ):           0.6345954           0.0646025           0.0612757
 Leave Link  202 at Wed May  8 17:22:24 2019, MaxMem=   104857600 cpu:               0.7 elap:               0.1
 (Enter /opt/software/gaussian/g16.b01/l301.exe)
 Standard basis: 6-31G(d,p) (6D, 7F)
 Ernie: Thresh=  0.10000D-02 Tol=  0.10000D-05 Strict=F.
 There are   400 symmetry adapted cartesian basis functions of A   symmetry.
 There are   400 symmetry adapted basis functions of A   symmetry.
   400 basis functions,   700 primitive gaussians,   400 cartesian basis functions
    73 alpha electrons       73 beta electrons
       nuclear repulsion energy      1259.0449921137 Hartrees.
 IExCor=  402 DFT=T Ex+Corr=B3LYP ExCW=0 ScaHFX=  0.200000
 ScaDFX=  0.800000  0.720000  1.000000  0.810000 ScalE2=  1.000000  1.000000
 IRadAn=      5 IRanWt=     -1 IRanGd=            0 ICorTp=0 IEmpDi=131
 NAtoms=   40 NActive=   40 NUniq=   40 SFac= 1.00D+00 NAtFMM=   60 NAOKFM=F Big=F
 Integral buffers will be    131072 words long.
 Raffenetti 2 integral format.
 Two-electron integral symmetry is turned on.
 R6Disp:  Grimme-D3 Dispersion energy=       -0.0278944764 Hartrees.
 Nuclear repulsion after empirical dispersion term =     1259.0170976373 Hartrees.
 ------------------------------------------------------------------------------
 Polarizable Continuum Model (PCM)
 =================================
 Model                : PCM.
 Atomic radii         : UFF (Universal Force Field).
 Polarization charges : Total charges.
 Charge compensation  : None.
 Solution method      : On-the-fly selection.
 Cavity type          : Scaled VdW (van der Waals Surface) (Alpha=1.100).
 Cavity algorithm     : GePol (No added spheres)
                        Default sphere list used, NSphG=   40.
                        Lebedev-Laikov grids with approx.  5.0 points / Ang**2.
                        Smoothing algorithm: York/Karplus (Gamma=1.0000).
                        Polarization charges: spherical gaussians, with
                                              point-specific exponents (IZeta= 3).
                        Self-potential: point-specific (ISelfS= 7).
                        Self-field    : sphere-specific E.n sum rule (ISelfD= 2).
 1st derivatives      : Analytical E(r).r(x)/FMM algorithm (CHGder, D1EAlg=3).
                        Cavity 1st derivative terms included.
 Solvent              : Acetonitrile, Eps=  35.688000 Eps(inf)=   1.806874
 ------------------------------------------------------------------------------
 GePol: Number of generator spheres                  =      40
 GePol: Total number of spheres                      =      40
 GePol: Number of exposed spheres                    =      40 (100.00%)
 GePol: Number of points                             =    3350
 GePol: Average weight of points                     =       0.13
 GePol: Minimum weight of points                     =   0.11D-10
 GePol: Maximum weight of points                     =    0.20577
 GePol: Number of points with low weight             =     215
 GePol: Fraction of low-weight points (<1% of avg)   =       6.42%
 GePol: Cavity surface area                          =    432.437 Ang**2
 GePol: Cavity volume                                =    435.090 Ang**3
 Leave Link  301 at Wed May  8 17:22:24 2019, MaxMem=   104857600 cpu:               2.8 elap:               0.1
 (Enter /opt/software/gaussian/g16.b01/l302.exe)
 NPDir=0 NMtPBC=     1 NCelOv=     1 NCel=       1 NClECP=     1 NCelD=      1
         NCelK=      1 NCelE2=     1 NClLst=     1 CellRange=     0.0.
 One-electron integrals computed using PRISM.
 One-electron integral symmetry used in STVInt
 PrsmSu:  requested number of processors reduced to:  28 ShMem   1 Linda.
 NBasis=   400 RedAO= T EigKep=  4.72D-04  NBF=   400
 NBsUse=   400 1.00D-06 EigRej= -1.00D+00 NBFU=   400
 Precomputing XC quadrature grid using
 IXCGrd= 4 IRadAn=           5 IRanWt=          -1 IRanGd=           0 AccXCQ= 0.00D+00.
 Generated NRdTot=       0 NPtTot=           0 NUsed=           0 NTot=          32
 NSgBfM=   362   362   362   362   362 MxSgAt=    40 MxSgA2=    40.
 Leave Link  302 at Wed May  8 17:22:25 2019, MaxMem=   104857600 cpu:              14.5 elap:               0.5
 (Enter /opt/software/gaussian/g16.b01/l303.exe)
 DipDrv:  MaxL=1.
 Leave Link  303 at Wed May  8 17:22:25 2019, MaxMem=   104857600 cpu:               2.1 elap:               0.1
 (Enter /opt/software/gaussian/g16.b01/l401.exe)
 Initial guess orbitals will be localized using method  0.
 Core hamiltonian diagonalized for initial guess.
 LocMO: Using Boys method
 Initial Trace= 0.52112099D+00 Initial TraceA= 0.15235973D+04
 RMSG= 0.14959205D-06
 LocMO: Using Boys method
 Initial Trace= 0.83939388D+01 Initial TraceA= 0.73750167D+04
 Initial Trace= 0.83939388D+01 Initial TraceA= 0.73750167D+04
 Initial Trace= 0.83939388D+01 Initial TraceA= 0.73750167D+04
 Localization failed after    3 tries of 1000 iterations each.  Last change= 0.18499450D-04
 RMSG= 0.56099150D-04
 LocMO: Using Boys method
 Initial Trace= 0.52112099D+00 Initial TraceA= 0.15235973D+04
 RMSG= 0.14959205D-06
 LocMO: Using Boys method
 Initial Trace= 0.83939388D+01 Initial TraceA= 0.73750167D+04
 Initial Trace= 0.83939388D+01 Initial TraceA= 0.73750167D+04
 Initial Trace= 0.83939388D+01 Initial TraceA= 0.73750167D+04
 Localization failed after    3 tries of 1000 iterations each.  Last change= 0.18499450D-04
 RMSG= 0.56099150D-04
 JPrj=0 DoOrth=F DoCkMO=T.
 Mixing orbitals, IMix= 1 IMixAn=  0 NRI=1 NE=   73 Coef=  7.07106781D-01  7.07106781D-01
 Mixing orbitals, IMix= 1 IMixAn=  0 NRI=1 NE=   73 Coef= -7.07106781D-01  7.07106781D-01
 Initial guess <Sx>= 0.0000 <Sy>= 0.0000 <Sz>= 0.0000 <S**2>= 1.0000 S= 0.6180
 Leave Link  401 at Wed May  8 17:29:47 2019, MaxMem=   104857600 cpu:           14151.0 elap:             442.3
 (Enter /opt/software/gaussian/g16.b01/l502.exe)
 Integral symmetry usage will be decided dynamically.
 UHF open shell SCF:
 Using DIIS extrapolation, IDIIS=  1040.
 NGot=   104857600 LenX=   104520454 LenY=   104360013
 Requested convergence on RMS density matrix=1.00D-08 within 128 cycles.
 Requested convergence on MAX density matrix=1.00D-06.
 Requested convergence on             energy=1.00D-06.
 No special actions if energy rises.
 Fock matrices will be formed incrementally for  20 cycles.

 Cycle   1  Pass 1  IDiag  1:
 FoFJK:  IHMeth= 1 ICntrl=       0 DoSepK=F KAlg= 0 I1Cent=           0 FoldK=F
 IRaf= 520000000 NMat=       1 IRICut=       1 DoRegI=T DoRafI=F ISym2E= 0 IDoP0=0 IntGTp=1.
 FoFCou: FMM=F IPFlag=           0 FMFlag=      100000 FMFlg1=           0
         NFxFlg=           0 DoJE=F BraDBF=F KetDBF=F FulRan=T
         wScrn=  0.000000 ICntrl=         0 IOpCl=  1 I1Cent=           0 NGrid=           0
         NMat0=    1 NMatS0=      1 NMatT0=    0 NMatD0=    1 NMtDS0=    0 NMtDT0=    0
 Symmetry not used in FoFCou.
 Inv3:  Mode=1 IEnd=    33667500.
 Iteration    1 A*A^-1 deviation from unit magnitude is 3.89D-15 for   2814.
 Iteration    1 A*A^-1 deviation from orthogonality  is 1.58D-15 for   1510   1251.
 Iteration    1 A^-1*A deviation from unit magnitude is 3.55D-15 for    959.
 Iteration    1 A^-1*A deviation from orthogonality  is 2.55D-15 for   2096    471.
 E= -673.678373043618    
 DIIS: error= 3.48D-01 at cycle   1 NSaved=   1.
 NSaved= 1 IEnMin= 1 EnMin= -673.678373043618     IErMin= 1 ErrMin= 3.48D-01
 ErrMax= 3.48D-01  0.00D+00 EMaxC= 1.00D-01 BMatC= 5.05D+02 BMatP= 5.05D+02
 IDIUse=3 WtCom= 0.00D+00 WtEn= 1.00D+00
 Coeff-Com:  0.100D+01
 Coeff-En:   0.100D+01
 Coeff:      0.100D+01
 Gap=    -0.020 Goal=   None    Shift=    0.000
 Gap=     0.064 Goal=   None    Shift=    0.000
 GapD=   -0.020 DampG=0.250 DampE=0.250 DampFc=0.2500 IDamp=-1.
 Damping current iteration by 2.50D-01
 RMSDP=1.15D-01 MaxDP=1.57D+01              OVMax= 9.56D-01

 Cycle   2  Pass 1  IDiag  1:
 RMSU=  2.59D-02    CP:  7.90D-01
 E= -769.785787274062     Delta-E=      -96.107414230445 Rises=F Damp=T
 DIIS: error= 2.28D-01 at cycle   2 NSaved=   2.
 NSaved= 2 IEnMin= 2 EnMin= -769.785787274062     IErMin= 2 ErrMin= 2.28D-01
 ErrMax= 2.28D-01  0.00D+00 EMaxC= 1.00D-01 BMatC= 1.76D+02 BMatP= 5.05D+02
 IDIUse=3 WtCom= 0.00D+00 WtEn= 1.00D+00
 Coeff-Com: -0.113D+01 0.213D+01
 Coeff-En:   0.000D+00 0.100D+01
 Coeff:      0.000D+00 0.100D+01
 Gap=    -1.215 Goal=   None    Shift=    0.000
 Gap=    -1.215 Goal=   None    Shift=    0.000
 RMSDP=8.66D-02 MaxDP=4.78D+00 DE=-9.61D+01 OVMax= 9.96D-01

 Cycle   3  Pass 1  IDiag  1:
 RMSU=  7.79D-02    CP:  1.66D-01  8.08D-01
 E= -778.587041670556     Delta-E=       -8.801254396493 Rises=F Damp=F
 DIIS: error= 1.50D-01 at cycle   3 NSaved=   3.
 NSaved= 3 IEnMin= 3 EnMin= -778.587041670556     IErMin= 3 ErrMin= 1.50D-01
 ErrMax= 1.50D-01  0.00D+00 EMaxC= 1.00D-01 BMatC= 1.06D+02 BMatP= 1.76D+02
 IDIUse=3 WtCom= 0.00D+00 WtEn= 1.00D+00
 EnCoef did   100 forward-backward iterations
 Coeff-Com: -0.736D+00 0.144D+01 0.298D+00
 Coeff-En:   0.352D+00 0.147D-01 0.634D+00
 Coeff:      0.352D+00 0.147D-01 0.634D+00
 Gap=    -0.062 Goal=   None    Shift=    0.000
 Gap=    -0.062 Goal=   None    Shift=    0.000
 RMSDP=8.37D-02 MaxDP=4.99D+00 DE=-8.80D+00 OVMax= 9.95D-01

 Cycle   4  Pass 1  IDiag  1:
 RMSU=  2.88D-02    CP:  1.30D-01  9.64D-02  1.96D-02
 E= -836.447064642526     Delta-E=      -57.860022971970 Rises=F Damp=F
 DIIS: error= 2.63D-01 at cycle   4 NSaved=   4.
 NSaved= 4 IEnMin= 4 EnMin= -836.447064642526     IErMin= 3 ErrMin= 1.50D-01
 ErrMax= 2.63D-01  0.00D+00 EMaxC= 1.00D-01 BMatC= 8.95D+01 BMatP= 1.06D+02
 IDIUse=3 WtCom= 0.00D+00 WtEn= 1.00D+00
 Coeff-Com: -0.489D+00 0.932D+00 0.268D+00 0.290D+00
 Coeff-En:   0.000D+00 0.000D+00 0.327D+00 0.673D+00
 Coeff:      0.000D+00 0.000D+00 0.327D+00 0.673D+00
 Gap=     0.188 Goal=   None    Shift=    0.000
 Gap=     0.194 Goal=   None    Shift=    0.000
 RMSDP=3.43D-02 MaxDP=1.65D+00 DE=-5.79D+01 OVMax= 9.94D-01

 Cycle   5  Pass 1  IDiag  1:
 RMSU=  2.86D-02    CP:  1.31D-01  7.28D-02  9.77D-02  3.79D-01
 E= -759.586557097478     Delta-E=       76.860507545048 Rises=F Damp=F
 DIIS: error= 3.98D-01 at cycle   5 NSaved=   5.
 NSaved= 5 IEnMin= 4 EnMin= -836.447064642526     IErMin= 3 ErrMin= 1.50D-01
 ErrMax= 3.98D-01  0.00D+00 EMaxC= 1.00D-01 BMatC= 2.14D+02 BMatP= 8.95D+01
 IDIUse=2 WtCom= 0.00D+00 WtEn= 1.00D+00
 EnCoef did     6 forward-backward iterations
 Coeff-En:   0.000D+00 0.000D+00 0.207D+00 0.581D+00 0.212D+00
 Coeff:      0.000D+00 0.000D+00 0.207D+00 0.581D+00 0.212D+00
 Gap=    -0.253 Goal=   None    Shift=    0.000
 Gap=    -0.246 Goal=   None    Shift=    0.000
 RMSDP=2.90D-02 MaxDP=2.33D+00 DE= 7.69D+01 OVMax= 9.59D-01

 Cycle   6  Pass 1  IDiag  1:
 RMSU=  1.51D-02    CP:  8.32D-02  6.57D-02  4.83D-02  1.86D-01  1.72D-01
 E= -873.129646433945     Delta-E=     -113.543089336467 Rises=F Damp=F
 DIIS: error= 1.34D-01 at cycle   6 NSaved=   6.
 NSaved= 6 IEnMin= 6 EnMin= -873.129646433945     IErMin= 6 ErrMin= 1.34D-01
 ErrMax= 1.34D-01  0.00D+00 EMaxC= 1.00D-01 BMatC= 2.93D+01 BMatP= 8.95D+01
 IDIUse=3 WtCom= 0.00D+00 WtEn= 1.00D+00
 Coeff-Com: -0.227D+00 0.412D+00 0.114D+00 0.213D+00 0.352D-01 0.453D+00
 Coeff-En:   0.000D+00 0.000D+00 0.000D+00 0.194D+00 0.000D+00 0.806D+00
 Coeff:      0.000D+00 0.000D+00 0.000D+00 0.194D+00 0.000D+00 0.806D+00
 Gap=     0.553 Goal=   None    Shift=    0.000
 Gap=     0.539 Goal=   None    Shift=    0.000
 RMSDP=1.92D-02 MaxDP=2.39D+00 DE=-1.14D+02 OVMax= 8.55D-01

 Cycle   7  Pass 1  IDiag  1:
 RMSU=  1.51D-02    CP:  1.03D-01  6.61D-02  3.55D-02  3.92D-01  2.23D-01
                    CP:  3.37D-01
 E= -864.623569237105     Delta-E=        8.506077196840 Rises=F Damp=F
 DIIS: error= 2.35D-01 at cycle   7 NSaved=   7.
 NSaved= 7 IEnMin= 6 EnMin= -873.129646433945     IErMin= 6 ErrMin= 1.34D-01
 ErrMax= 2.35D-01  0.00D+00 EMaxC= 1.00D-01 BMatC= 4.43D+01 BMatP= 2.93D+01
 IDIUse=2 WtCom= 0.00D+00 WtEn= 1.00D+00
 Coeff-En:   0.000D+00 0.000D+00 0.000D+00 0.000D+00 0.000D+00 0.623D+00
 Coeff-En:   0.377D+00
 Coeff:      0.000D+00 0.000D+00 0.000D+00 0.000D+00 0.000D+00 0.623D+00
 Coeff:      0.377D+00
 Gap=    -0.001 Goal=   None    Shift=    0.000
 Gap=    -0.001 Goal=   None    Shift=    0.000
 RMSDP=1.62D-02 MaxDP=2.41D+00 DE= 8.51D+00 OVMax= 9.60D-01

 Cycle   8  Pass 1  IDiag  1:
 RMSU=  7.90D-03    CP:  7.75D-02  6.45D-02  2.22D-02  2.26D-01  1.04D-01
                    CP:  5.99D-01  2.02D-01
 E= -880.270704900582     Delta-E=      -15.647135663477 Rises=F Damp=F
 DIIS: error= 6.37D-02 at cycle   8 NSaved=   8.
 NSaved= 8 IEnMin= 8 EnMin= -880.270704900582     IErMin= 8 ErrMin= 6.37D-02
 ErrMax= 6.37D-02  0.00D+00 EMaxC= 1.00D-01 BMatC= 6.40D+00 BMatP= 2.93D+01
 IDIUse=3 WtCom= 3.63D-01 WtEn= 6.37D-01
 Coeff-Com: -0.400D-01 0.666D-01 0.581D-02-0.485D-01 0.134D-01 0.250D+00
 Coeff-Com:  0.110D+00 0.642D+00
 Coeff-En:   0.000D+00 0.000D+00 0.000D+00 0.000D+00 0.000D+00 0.116D+00
 Coeff-En:   0.000D+00 0.884D+00
 Coeff:     -0.145D-01 0.242D-01 0.211D-02-0.176D-01 0.484D-02 0.165D+00
 Coeff:      0.399D-01 0.796D+00
 Gap=     0.514 Goal=   None    Shift=    0.000
 Gap=     0.514 Goal=   None    Shift=    0.000
 RMSDP=5.35D-03 MaxDP=3.37D-01 DE=-1.56D+01 OVMax= 4.60D-01

 Cycle   9  Pass 1  IDiag  1:
 RMSU=  4.83D-03    CP:  7.78D-02  6.03D-02  2.66D-02  2.20D-01  1.43D-01
                    CP:  6.11D-01  2.15D-01  7.53D-01
 E= -879.932822615160     Delta-E=        0.337882285422 Rises=F Damp=F
 DIIS: error= 6.60D-02 at cycle   9 NSaved=   9.
 NSaved= 9 IEnMin= 8 EnMin= -880.270704900582     IErMin= 8 ErrMin= 6.37D-02
 ErrMax= 6.60D-02  0.00D+00 EMaxC= 1.00D-01 BMatC= 8.57D+00 BMatP= 6.40D+00
 IDIUse=2 WtCom= 0.00D+00 WtEn= 1.00D+00
 Coeff-En:   0.000D+00 0.000D+00 0.000D+00 0.000D+00 0.000D+00 0.000D+00
 Coeff-En:   0.000D+00 0.543D+00 0.457D+00
 Coeff:      0.000D+00 0.000D+00 0.000D+00 0.000D+00 0.000D+00 0.000D+00
 Coeff:      0.000D+00 0.543D+00 0.457D+00
 Gap=     0.281 Goal=   None    Shift=    0.000
 Gap=     0.281 Goal=   None    Shift=    0.000
 RMSDP=3.39D-03 MaxDP=2.69D-01 DE= 3.38D-01 OVMax= 3.64D-01

 Cycle  10  Pass 1  IDiag  1:
 RMSU=  1.69D-03    CP:  7.48D-02  6.27D-02  2.47D-02  2.09D-01  1.22D-01
                    CP:  6.37D-01  2.04D-01  8.40D-01  4.34D-01
 E= -881.555857336939     Delta-E=       -1.623034721779 Rises=F Damp=F
 DIIS: error= 2.68D-02 at cycle  10 NSaved=  10.
 NSaved=10 IEnMin=10 EnMin= -881.555857336939     IErMin=10 ErrMin= 2.68D-02
 ErrMax= 2.68D-02  0.00D+00 EMaxC= 1.00D-01 BMatC= 6.79D-01 BMatP= 6.40D+00
 IDIUse=3 WtCom= 7.32D-01 WtEn= 2.68D-01
 Coeff-Com:  0.125D-02-0.190D-02-0.219D-02-0.199D-02-0.129D-02-0.930D-02
 Coeff-Com: -0.214D-02 0.258D+00 0.231D+00 0.528D+00
 Coeff-En:   0.000D+00 0.000D+00 0.000D+00 0.000D+00 0.000D+00 0.000D+00
 Coeff-En:   0.000D+00 0.000D+00 0.000D+00 0.100D+01
 Coeff:      0.915D-03-0.139D-02-0.160D-02-0.146D-02-0.945D-03-0.680D-02
 Coeff:     -0.156D-02 0.189D+00 0.169D+00 0.654D+00
 Gap=     0.232 Goal=   None    Shift=    0.000
 Gap=     0.232 Goal=   None    Shift=    0.000
 RMSDP=1.43D-03 MaxDP=8.36D-02 DE=-1.62D+00 OVMax= 9.60D-02

 Cycle  11  Pass 1  IDiag  1:
 RMSU=  6.49D-04    CP:  7.58D-02  6.07D-02  2.30D-02  2.16D-01  1.20D-01
                    CP:  6.18D-01  2.05D-01  8.80D-01  5.04D-01  3.31D-01
 E= -881.673987847838     Delta-E=       -0.118130510899 Rises=F Damp=F
 DIIS: error= 1.18D-02 at cycle  11 NSaved=  11.
 NSaved=11 IEnMin=11 EnMin= -881.673987847838     IErMin=11 ErrMin= 1.18D-02
 ErrMax= 1.18D-02  0.00D+00 EMaxC= 1.00D-01 BMatC= 1.78D-01 BMatP= 6.79D-01
 IDIUse=3 WtCom= 8.82D-01 WtEn= 1.18D-01
 Coeff-Com: -0.170D-02 0.294D-02-0.513D-03 0.193D-02-0.949D-04-0.759D-02
 Coeff-Com:  0.162D-02 0.326D-01 0.134D-01 0.359D+00 0.598D+00
 Coeff-En:   0.000D+00 0.000D+00 0.000D+00 0.000D+00 0.000D+00 0.000D+00
 Coeff-En:   0.000D+00 0.000D+00 0.000D+00 0.211D+00 0.789D+00
 Coeff:     -0.150D-02 0.259D-02-0.452D-03 0.170D-02-0.837D-04-0.670D-02
 Coeff:      0.143D-02 0.288D-01 0.118D-01 0.342D+00 0.621D+00
 Gap=     0.226 Goal=   None    Shift=    0.000
 Gap=     0.226 Goal=   None    Shift=    0.000
 RMSDP=6.00D-04 MaxDP=2.94D-02 DE=-1.18D-01 OVMax= 5.23D-02

 Cycle  12  Pass 1  IDiag  1:
 RMSU=  1.77D-04    CP:  7.55D-02  6.17D-02  2.33D-02  2.14D-01  1.20D-01
                    CP:  6.25D-01  2.05D-01  8.69D-01  4.67D-01  5.94D-01
                    CP:  5.77D-01
 E= -881.712680979748     Delta-E=       -0.038693131910 Rises=F Damp=F
 DIIS: error= 2.96D-03 at cycle  12 NSaved=  12.
 NSaved=12 IEnMin=12 EnMin= -881.712680979748     IErMin=12 ErrMin= 2.96D-03
 ErrMax= 2.96D-03  0.00D+00 EMaxC= 1.00D-01 BMatC= 1.21D-02 BMatP= 1.78D-01
 IDIUse=3 WtCom= 9.70D-01 WtEn= 2.96D-02
 Coeff-Com: -0.250D-03 0.589D-03-0.154D-03 0.164D-03 0.249D-03-0.287D-02
 Coeff-Com:  0.191D-02 0.743D-02-0.748D-02 0.131D+00 0.348D+00 0.521D+00
 Coeff-En:   0.000D+00 0.000D+00 0.000D+00 0.000D+00 0.000D+00 0.000D+00
 Coeff-En:   0.000D+00 0.000D+00 0.000D+00 0.000D+00 0.000D+00 0.100D+01
 Coeff:     -0.243D-03 0.572D-03-0.150D-03 0.159D-03 0.242D-03-0.278D-02
 Coeff:      0.186D-02 0.721D-02-0.726D-02 0.127D+00 0.337D+00 0.536D+00
 Gap=     0.221 Goal=   None    Shift=    0.000
 Gap=     0.221 Goal=   None    Shift=    0.000
 RMSDP=1.38D-04 MaxDP=8.15D-03 DE=-3.87D-02 OVMax= 1.46D-02

 Cycle  13  Pass 1  IDiag  1:
 RMSU=  5.68D-05    CP:  7.55D-02  6.14D-02  2.32D-02  2.14D-01  1.20D-01
                    CP:  6.23D-01  2.05D-01  8.71D-01  4.70D-01  5.54D-01
                    CP:  6.75D-01  5.63D-01
 E= -881.715453956366     Delta-E=       -0.002772976618 Rises=F Damp=F
 DIIS: error= 6.68D-04 at cycle  13 NSaved=  13.
 NSaved=13 IEnMin=13 EnMin= -881.715453956366     IErMin=13 ErrMin= 6.68D-04
 ErrMax= 6.68D-04  0.00D+00 EMaxC= 1.00D-01 BMatC= 1.08D-03 BMatP= 1.21D-02
 IDIUse=3 WtCom= 9.93D-01 WtEn= 6.68D-03
 Coeff-Com:  0.153D-03-0.189D-03-0.408D-04-0.275D-03 0.126D-03-0.127D-02
 Coeff-Com:  0.131D-02 0.262D-02-0.588D-02 0.343D-01 0.139D+00 0.319D+00
 Coeff-Com:  0.511D+00
 Coeff-En:   0.000D+00 0.000D+00 0.000D+00 0.000D+00 0.000D+00 0.000D+00
 Coeff-En:   0.000D+00 0.000D+00 0.000D+00 0.000D+00 0.000D+00 0.000D+00
 Coeff-En:   0.100D+01
 Coeff:      0.152D-03-0.187D-03-0.405D-04-0.273D-03 0.125D-03-0.126D-02
 Coeff:      0.130D-02 0.260D-02-0.584D-02 0.341D-01 0.138D+00 0.317D+00
 Coeff:      0.514D+00
 Gap=     0.217 Goal=   None    Shift=    0.000
 Gap=     0.217 Goal=   None    Shift=    0.000
 RMSDP=3.92D-05 MaxDP=2.89D-03 DE=-2.77D-03 OVMax= 3.25D-03

 Cycle  14  Pass 1  IDiag  1:
 RMSU=  2.54D-05    CP:  7.55D-02  6.14D-02  2.32D-02  2.14D-01  1.20D-01
                    CP:  6.23D-01  2.05D-01  8.72D-01  4.69D-01  5.48D-01
                    CP:  6.76D-01  6.35D-01  5.82D-01
 E= -881.715660867728     Delta-E=       -0.000206911362 Rises=F Damp=F
 DIIS: error= 2.40D-04 at cycle  14 NSaved=  14.
 NSaved=14 IEnMin=14 EnMin= -881.715660867728     IErMin=14 ErrMin= 2.40D-04
 ErrMax= 2.40D-04  0.00D+00 EMaxC= 1.00D-01 BMatC= 1.24D-04 BMatP= 1.08D-03
 IDIUse=3 WtCom= 9.98D-01 WtEn= 2.40D-03
 Coeff-Com:  0.725D-04-0.133D-03 0.763D-05-0.158D-03 0.147D-04-0.545D-03
 Coeff-Com:  0.621D-03 0.308D-03-0.203D-02-0.218D-02 0.206D-01 0.861D-01
 Coeff-Com:  0.279D+00 0.618D+00
 Coeff-En:   0.000D+00 0.000D+00 0.000D+00 0.000D+00 0.000D+00 0.000D+00
 Coeff-En:   0.000D+00 0.000D+00 0.000D+00 0.000D+00 0.000D+00 0.000D+00
 Coeff-En:   0.000D+00 0.100D+01
 Coeff:      0.723D-04-0.133D-03 0.761D-05-0.158D-03 0.147D-04-0.544D-03
 Coeff:      0.619D-03 0.308D-03-0.202D-02-0.217D-02 0.206D-01 0.859D-01
 Coeff:      0.278D+00 0.619D+00
 Gap=     0.216 Goal=   None    Shift=    0.000
 Gap=     0.216 Goal=   None    Shift=    0.000
 RMSDP=1.44D-05 MaxDP=9.89D-04 DE=-2.07D-04 OVMax= 1.24D-03

 Cycle  15  Pass 1  IDiag  1:
 RMSU=  1.14D-05    CP:  7.55D-02  6.14D-02  2.32D-02  2.14D-01  1.20D-01
                    CP:  6.23D-01  2.05D-01  8.72D-01  4.69D-01  5.48D-01
                    CP:  6.79D-01  6.36D-01  6.51D-01  7.46D-01
 E= -881.715683981631     Delta-E=       -0.000023113903 Rises=F Damp=F
 DIIS: error= 7.43D-05 at cycle  15 NSaved=  15.
 NSaved=15 IEnMin=15 EnMin= -881.715683981631     IErMin=15 ErrMin= 7.43D-05
 ErrMax= 7.43D-05  0.00D+00 EMaxC= 1.00D-01 BMatC= 1.59D-05 BMatP= 1.24D-04
 IDIUse=1 WtCom= 1.00D+00 WtEn= 0.00D+00
 Coeff-Com: -0.172D-04 0.188D-04 0.218D-04-0.155D-04 0.111D-04-0.125D-03
 Coeff-Com:  0.108D-03-0.194D-03 0.339D-04-0.601D-02-0.108D-01-0.865D-02
 Coeff-Com:  0.275D-01 0.291D+00 0.707D+00
 Coeff:     -0.172D-04 0.188D-04 0.218D-04-0.155D-04 0.111D-04-0.125D-03
 Coeff:      0.108D-03-0.194D-03 0.339D-04-0.601D-02-0.108D-01-0.865D-02
 Coeff:      0.275D-01 0.291D+00 0.707D+00
 Gap=     0.216 Goal=   None    Shift=    0.000
 Gap=     0.216 Goal=   None    Shift=    0.000
 RMSDP=6.14D-06 MaxDP=3.67D-04 DE=-2.31D-05 OVMax= 4.14D-04

 Cycle  16  Pass 1  IDiag  1:
 RMSU=  4.52D-06    CP:  7.55D-02  6.14D-02  2.32D-02  2.14D-01  1.20D-01
                    CP:  6.23D-01  2.05D-01  8.72D-01  4.69D-01  5.47D-01
                    CP:  6.80D-01  6.39D-01  6.57D-01  8.68D-01  9.10D-01
 E= -881.715687188157     Delta-E=       -0.000003206525 Rises=F Damp=F
 DIIS: error= 2.59D-05 at cycle  16 NSaved=  16.
 NSaved=16 IEnMin=16 EnMin= -881.715687188157     IErMin=16 ErrMin= 2.59D-05
 ErrMax= 2.59D-05  0.00D+00 EMaxC= 1.00D-01 BMatC= 1.71D-06 BMatP= 1.59D-05
 IDIUse=1 WtCom= 1.00D+00 WtEn= 0.00D+00
 Coeff-Com: -0.360D-05 0.483D-05 0.506D-05 0.123D-05 0.112D-05-0.837D-05
 Coeff-Com:  0.764D-05-0.840D-04 0.994D-04-0.143D-02-0.290D-02-0.407D-02
 Coeff-Com: -0.935D-02 0.755D-01 0.317D+00 0.625D+00
 Coeff:     -0.360D-05 0.483D-05 0.506D-05 0.123D-05 0.112D-05-0.837D-05
 Coeff:      0.764D-05-0.840D-04 0.994D-04-0.143D-02-0.290D-02-0.407D-02
 Coeff:     -0.935D-02 0.755D-01 0.317D+00 0.625D+00
 Gap=     0.216 Goal=   None    Shift=    0.000
 Gap=     0.216 Goal=   None    Shift=    0.000
 RMSDP=1.85D-06 MaxDP=9.63D-05 DE=-3.21D-06 OVMax= 2.65D-04

 Cycle  17  Pass 1  IDiag  1:
 RMSU=  1.23D-06    CP:  7.55D-02  6.14D-02  2.32D-02  2.14D-01  1.20D-01
                    CP:  6.23D-01  2.05D-01  8.72D-01  4.69D-01  5.47D-01
                    CP:  6.80D-01  6.40D-01  6.48D-01  8.74D-01  9.38D-01
                    CP:  7.34D-01
 E= -881.715687542568     Delta-E=       -0.000000354411 Rises=F Damp=F
 DIIS: error= 1.08D-05 at cycle  17 NSaved=  17.
 NSaved=17 IEnMin=17 EnMin= -881.715687542568     IErMin=17 ErrMin= 1.08D-05
 ErrMax= 1.08D-05  0.00D+00 EMaxC= 1.00D-01 BMatC= 2.58D-07 BMatP= 1.71D-06
 IDIUse=1 WtCom= 1.00D+00 WtEn= 0.00D+00
 Coeff-Com:  0.334D-08-0.807D-06 0.726D-06 0.121D-06-0.618D-06 0.122D-05
 Coeff-Com:  0.840D-06-0.310D-04 0.168D-04-0.145D-03 0.118D-03 0.654D-03
 Coeff-Com: -0.447D-02 0.217D-01 0.127D+00 0.349D+00 0.506D+00
 Coeff:      0.334D-08-0.807D-06 0.726D-06 0.121D-06-0.618D-06 0.122D-05
 Coeff:      0.840D-06-0.310D-04 0.168D-04-0.145D-03 0.118D-03 0.654D-03
 Coeff:     -0.447D-02 0.217D-01 0.127D+00 0.349D+00 0.506D+00
 Gap=     0.216 Goal=   None    Shift=    0.000
 Gap=     0.216 Goal=   None    Shift=    0.000
 RMSDP=6.72D-07 MaxDP=3.13D-05 DE=-3.54D-07 OVMax= 8.75D-05

 Cycle  18  Pass 1  IDiag  1:
 RMSU=  3.37D-07    CP:  7.55D-02  6.14D-02  2.32D-02  2.14D-01  1.20D-01
                    CP:  6.23D-01  2.05D-01  8.72D-01  4.69D-01  5.47D-01
                    CP:  6.80D-01  6.40D-01  6.49D-01  8.68D-01  9.35D-01
                    CP:  7.69D-01  5.77D-01
 E= -881.715687604903     Delta-E=       -0.000000062336 Rises=F Damp=F
 DIIS: error= 2.46D-06 at cycle  18 NSaved=  18.
 NSaved=18 IEnMin=18 EnMin= -881.715687604903     IErMin=18 ErrMin= 2.46D-06
 ErrMax= 2.46D-06  0.00D+00 EMaxC= 1.00D-01 BMatC= 1.39D-08 BMatP= 2.58D-07
 IDIUse=1 WtCom= 1.00D+00 WtEn= 0.00D+00
 Coeff-Com: -0.507D-07-0.314D-06 0.124D-06-0.474D-06-0.389D-06 0.149D-05
 Coeff-Com: -0.931D-06-0.563D-05-0.737D-05 0.872D-04 0.468D-03 0.121D-02
 Coeff-Com: -0.463D-03 0.221D-02 0.282D-01 0.972D-01 0.231D+00 0.640D+00
 Coeff:     -0.507D-07-0.314D-06 0.124D-06-0.474D-06-0.389D-06 0.149D-05
 Coeff:     -0.931D-06-0.563D-05-0.737D-05 0.872D-04 0.468D-03 0.121D-02
 Coeff:     -0.463D-03 0.221D-02 0.282D-01 0.972D-01 0.231D+00 0.640D+00
 Gap=     0.216 Goal=   None    Shift=    0.000
 Gap=     0.216 Goal=   None    Shift=    0.000
 RMSDP=1.71D-07 MaxDP=6.37D-06 DE=-6.23D-08 OVMax= 1.56D-05

 Cycle  19  Pass 1  IDiag  1:
 RMSU=  1.12D-07    CP:  7.55D-02  6.14D-02  2.32D-02  2.14D-01  1.20D-01
                    CP:  6.23D-01  2.05D-01  8.72D-01  4.69D-01  5.47D-01
                    CP:  6.80D-01  6.40D-01  6.48D-01  8.67D-01  9.35D-01
                    CP:  7.67D-01  6.18D-01  7.11D-01
 E= -881.715687608264     Delta-E=       -0.000000003360 Rises=F Damp=F
 DIIS: error= 1.05D-06 at cycle  19 NSaved=  19.
 NSaved=19 IEnMin=19 EnMin= -881.715687608264     IErMin=19 ErrMin= 1.05D-06
 ErrMax= 1.05D-06  0.00D+00 EMaxC= 1.00D-01 BMatC= 8.94D-10 BMatP= 1.39D-08
 IDIUse=1 WtCom= 1.00D+00 WtEn= 0.00D+00
 Coeff-Com: -0.862D-07 0.138D-06-0.131D-06 0.882D-07-0.365D-07 0.381D-06
 Coeff-Com: -0.293D-06-0.205D-05-0.333D-05 0.288D-04 0.117D-03 0.348D-03
 Coeff-Com:  0.314D-03 0.399D-03 0.475D-02 0.111D-01 0.335D-01 0.185D+00
 Coeff-Com:  0.764D+00
 Coeff:     -0.862D-07 0.138D-06-0.131D-06 0.882D-07-0.365D-07 0.381D-06
 Coeff:     -0.293D-06-0.205D-05-0.333D-05 0.288D-04 0.117D-03 0.348D-03
 Coeff:      0.314D-03 0.399D-03 0.475D-02 0.111D-01 0.335D-01 0.185D+00
 Coeff:      0.764D+00
 Gap=     0.216 Goal=   None    Shift=    0.000
 Gap=     0.216 Goal=   None    Shift=    0.000
 RMSDP=4.28D-08 MaxDP=2.51D-06 DE=-3.36D-09 OVMax= 3.22D-06

 Cycle  20  Pass 1  IDiag  1:
 RMSU=  2.59D-08    CP:  7.55D-02  6.14D-02  2.32D-02  2.14D-01  1.20D-01
                    CP:  6.23D-01  2.05D-01  8.72D-01  4.69D-01  5.47D-01
                    CP:  6.80D-01  6.40D-01  6.48D-01  8.67D-01  9.34D-01
                    CP:  7.66D-01  6.13D-01  7.47D-01  9.50D-01
 E= -881.715687608460     Delta-E=       -0.000000000197 Rises=F Damp=F
 DIIS: error= 1.92D-07 at cycle  20 NSaved=  20.
 NSaved=20 IEnMin=20 EnMin= -881.715687608460     IErMin=20 ErrMin= 1.92D-07
 ErrMax= 1.92D-07  0.00D+00 EMaxC= 1.00D-01 BMatC= 8.22D-11 BMatP= 8.94D-10
 IDIUse=1 WtCom= 1.00D+00 WtEn= 0.00D+00
 Coeff-Com:  0.221D-07 0.673D-08-0.926D-07 0.107D-06 0.102D-07 0.186D-06
 Coeff-Com: -0.141D-06-0.102D-05-0.443D-06-0.281D-06 0.465D-05 0.561D-04
 Coeff-Com:  0.141D-03 0.270D-03 0.140D-02-0.289D-04 0.189D-02 0.504D-01
 Coeff-Com:  0.359D+00 0.587D+00
 Coeff:      0.221D-07 0.673D-08-0.926D-07 0.107D-06 0.102D-07 0.186D-06
 Coeff:     -0.141D-06-0.102D-05-0.443D-06-0.281D-06 0.465D-05 0.561D-04
 Coeff:      0.141D-03 0.270D-03 0.140D-02-0.289D-04 0.189D-02 0.504D-01
 Coeff:      0.359D+00 0.587D+00
 Gap=     0.216 Goal=   None    Shift=    0.000
 Gap=     0.216 Goal=   None    Shift=    0.000
 RMSDP=1.16D-08 MaxDP=7.38D-07 DE=-1.97D-10 OVMax= 1.60D-06

 Cycle  21  Pass 1  IDiag  1:
 Restarting incremental Fock formation.
 E= -881.715687608483     Delta-E=       -0.000000000023 Rises=F Damp=F
 DIIS: error= 5.34D-08 at cycle  21 NSaved=  20.
 NSaved=20 IEnMin=20 EnMin= -881.715687608483     IErMin=20 ErrMin= 5.34D-08
 ErrMax= 5.34D-08  0.00D+00 EMaxC= 1.00D-01 BMatC= 8.91D-12 BMatP= 8.22D-11
 IDIUse=1 WtCom= 1.00D+00 WtEn= 0.00D+00
 Coeff-Com:  0.166D-07-0.270D-07 0.348D-07 0.148D-07 0.269D-07-0.274D-07
 Coeff-Com: -0.261D-06 0.199D-06-0.463D-05-0.101D-04-0.119D-04 0.243D-04
 Coeff-Com:  0.123D-03 0.314D-03-0.916D-03-0.944D-03 0.883D-02 0.626D-01
 Coeff-Com:  0.226D+00 0.704D+00
 Coeff:      0.166D-07-0.270D-07 0.348D-07 0.148D-07 0.269D-07-0.274D-07
 Coeff:     -0.261D-06 0.199D-06-0.463D-05-0.101D-04-0.119D-04 0.243D-04
 Coeff:      0.123D-03 0.314D-03-0.916D-03-0.944D-03 0.883D-02 0.626D-01
 Coeff:      0.226D+00 0.704D+00
 Gap=     0.216 Goal=   None    Shift=    0.000
 Gap=     0.216 Goal=   None    Shift=    0.000
 RMSDP=4.56D-09 MaxDP=2.37D-07 DE=-2.27D-11 OVMax= 6.73D-07

 Error on total polarization charges =  0.01204
 SCF Done:  E(UB3LYP) =  -881.715687608     A.U. after   21 cycles
            NFock= 21  Conv=0.46D-08     -V/T= 2.0094
 <Sx>= 0.0000 <Sy>= 0.0000 <Sz>= 0.0000 <S**2>= 0.0000 S= 0.0000
 <L.S>=  0.00000000000    
 KE= 8.734918311832D+02 PE=-4.568323155053D+03 EE= 1.554098538624D+03
 Annihilation of the first spin contaminant:
 S**2 before annihilation     0.0000,   after    -0.0000
 Leave Link  502 at Wed May  8 17:30:29 2019, MaxMem=   104857600 cpu:            1274.0 elap:              41.3
 (Enter /opt/software/gaussian/g16.b01/l601.exe)
 Copying SCF densities to generalized density rwf, IOpCl= 1 IROHF=0.

 **********************************************************************

            Population analysis using the SCF Density.

 **********************************************************************

 Orbital symmetries:
 Alpha Orbitals:
       Occupied  (A) (A) (A) (A) (A) (A) (A) (A) (A) (A) (A) (A)
                 (A) (A) (A) (A) (A) (A) (A) (A) (A) (A) (A) (A)
                 (A) (A) (A) (A) (A) (A) (A) (A) (A) (A) (A) (A)
                 (A) (A) (A) (A) (A) (A) (A) (A) (A) (A) (A) (A)
                 (A) (A) (A) (A) (A) (A) (A) (A) (A) (A) (A) (A)
                 (A) (A) (A) (A) (A) (A) (A) (A) (A) (A) (A) (A)
                 (A)
       Virtual   (A) (A) (A) (A) (A) (A) (A) (A) (A) (A) (A) (A)
                 (A) (A) (A) (A) (A) (A) (A) (A) (A) (A) (A) (A)
                 (A) (A) (A) (A) (A) (A) (A) (A) (A) (A) (A) (A)
                 (A) (A) (A) (A) (A) (A) (A) (A) (A) (A) (A) (A)
                 (A) (A) (A) (A) (A) (A) (A) (A) (A) (A) (A) (A)
                 (A) (A) (A) (A) (A) (A) (A) (A) (A) (A) (A) (A)
                 (A) (A) (A) (A) (A) (A) (A) (A) (A) (A) (A) (A)
                 (A) (A) (A) (A) (A) (A) (A) (A) (A) (A) (A) (A)
                 (A) (A) (A) (A) (A) (A) (A) (A) (A) (A) (A) (A)
                 (A) (A) (A) (A) (A) (A) (A) (A) (A) (A) (A) (A)
                 (A) (A) (A) (A) (A) (A) (A) (A) (A) (A) (A) (A)
                 (A) (A) (A) (A) (A) (A) (A) (A) (A) (A) (A) (A)
                 (A) (A) (A) (A) (A) (A) (A) (A) (A) (A) (A) (A)
                 (A) (A) (A) (A) (A) (A) (A) (A) (A) (A) (A) (A)
                 (A) (A) (A) (A) (A) (A) (A) (A) (A) (A) (A) (A)
                 (A) (A) (A) (A) (A) (A) (A) (A) (A) (A) (A) (A)
                 (A) (A) (A) (A) (A) (A) (A) (A) (A) (A) (A) (A)
                 (A) (A) (A) (A) (A) (A) (A) (A) (A) (A) (A) (A)
                 (A) (A) (A) (A) (A) (A) (A) (A) (A) (A) (A) (A)
                 (A) (A) (A) (A) (A) (A) (A) (A) (A) (A) (A) (A)
                 (A) (A) (A) (A) (A) (A) (A) (A) (A) (A) (A) (A)
                 (A) (A) (A) (A) (A) (A) (A) (A) (A) (A) (A) (A)
                 (A) (A) (A) (A) (A) (A) (A) (A) (A) (A) (A) (A)
                 (A) (A) (A) (A) (A) (A) (A) (A) (A) (A) (A) (A)
                 (A) (A) (A) (A) (A) (A) (A) (A) (A) (A) (A) (A)
                 (A) (A) (A) (A) (A) (A) (A) (A) (A) (A) (A) (A)
                 (A) (A) (A) (A) (A) (A) (A) (A) (A) (A) (A) (A)
                 (A) (A) (A)
 Beta  Orbitals:
       Occupied  (A) (A) (A) (A) (A) (A) (A) (A) (A) (A) (A) (A)
                 (A) (A) (A) (A) (A) (A) (A) (A) (A) (A) (A) (A)
                 (A) (A) (A) (A) (A) (A) (A) (A) (A) (A) (A) (A)
                 (A) (A) (A) (A) (A) (A) (A) (A) (A) (A) (A) (A)
[...]
      7          1           0       -5.302736   -0.698851   -0.808287
      8          7           0       -4.633090    1.045631   -0.112540
      9          1           0       -3.647351    1.261218    0.052759
     10          1           0       -3.872357   -0.830064   -0.089204
     11          6           0       -1.318438    1.169997   -1.914527
     12          1           0       -0.829429    1.768818   -2.687456
     13          1           0       -1.087448    0.116160   -2.101854
     14          1           0       -2.399215    1.306495   -1.965830
     15          6           0       -1.661203   -1.138685    1.916216
     16          1           0       -1.245416   -1.794006    2.686694
     17          1           0       -1.331044   -0.115816    2.121941
     18          1           0       -2.750447   -1.171100    1.946117
     19          6           0        0.625991    1.669648   -0.265603
     20          6           0        1.041961    2.120967    0.998472
     21          6           0        1.592097    1.331397   -1.225559
     22          6           0        2.395566    2.238287    1.294684
     23          1           0        0.286466    2.373840    1.734272
     24          6           0        2.948561    1.440134   -0.923638
     25          1           0        1.293384    0.961913   -2.199809
     26          6           0        3.351888    1.896455    0.332798
     27          1           0        2.708870    2.591436    2.272338
     28          1           0        3.689821    1.162071   -1.665847
     29          1           0        4.409256    1.981160    0.564930
     30          6           0        0.256692   -1.752791    0.277557
     31          6           0        0.653406   -2.229065   -0.983540
     32          6           0        1.235582   -1.462167    1.240484
     33          6           0        2.000706   -2.413578   -1.275432
     34          1           0       -0.111620   -2.448404   -1.720202
     35          6           0        2.585437   -1.637740    0.942987
     36          1           0        0.951879   -1.076699    2.213072
     37          6           0        2.969246   -2.115081   -0.311982
     38          1           0        2.299084   -2.784355   -2.251165
     39          1           0        3.337658   -1.392624    1.685446
     40          1           0        4.022090   -2.249234   -0.541080
 ---------------------------------------------------------------------
 Rotational constants (GHZ):           0.4788303           0.2671537           0.2134136
 Leave Link  202 at Wed May  8 18:03:09 2019, MaxMem=   104857600 cpu:               0.5 elap:               0.0
 (Enter /opt/software/gaussian/g16.b01/l301.exe)
 Standard basis: 6-31G(d,p) (6D, 7F)
 Ernie: Thresh=  0.10000D-02 Tol=  0.10000D-05 Strict=F.
 There are   400 symmetry adapted cartesian basis functions of A   symmetry.
 There are   400 symmetry adapted basis functions of A   symmetry.
   400 basis functions,   700 primitive gaussians,   400 cartesian basis functions
    73 alpha electrons       73 beta electrons
       nuclear repulsion energy      1566.8300858533 Hartrees.
 IExCor=  402 DFT=T Ex+Corr=B3LYP ExCW=0 ScaHFX=  0.200000
 ScaDFX=  0.800000  0.720000  1.000000  0.810000 ScalE2=  1.000000  1.000000
 IRadAn=      5 IRanWt=     -1 IRanGd=            0 ICorTp=0 IEmpDi=131
 NAtoms=   40 NActive=   40 NUniq=   40 SFac= 1.00D+00 NAtFMM=   60 NAOKFM=F Big=F
 Integral buffers will be    131072 words long.
 Raffenetti 2 integral format.
 Two-electron integral symmetry is turned on.
 R6Disp:  Grimme-D3 Dispersion energy=       -0.0467858727 Hartrees.
 Nuclear repulsion after empirical dispersion term =     1566.7832999805 Hartrees.
 ------------------------------------------------------------------------------
 Polarizable Continuum Model (PCM)
 =================================
 Model                : PCM.
 Atomic radii         : UFF (Universal Force Field).
 Polarization charges : Total charges.
 Charge compensation  : None.
 Solution method      : On-the-fly selection.
 Cavity type          : Scaled VdW (van der Waals Surface) (Alpha=1.100).
 Cavity algorithm     : GePol (No added spheres)
                        Default sphere list used, NSphG=   40.
                        Lebedev-Laikov grids with approx.  5.0 points / Ang**2.
                        Smoothing algorithm: York/Karplus (Gamma=1.0000).
                        Polarization charges: spherical gaussians, with
                                              point-specific exponents (IZeta= 3).
                        Self-potential: point-specific (ISelfS= 7).
                        Self-field    : sphere-specific E.n sum rule (ISelfD= 2).
 1st derivatives      : Analytical E(r).r(x)/FMM algorithm (CHGder, D1EAlg=3).
                        Cavity 1st derivative terms included.
 Solvent              : Acetonitrile, Eps=  35.688000 Eps(inf)=   1.806874
 ------------------------------------------------------------------------------
 GePol: Number of generator spheres                  =      40
 GePol: Total number of spheres                      =      40
 GePol: Number of exposed spheres                    =      40 (100.00%)
 GePol: Number of points                             =    2779
 GePol: Average weight of points                     =       0.13
 GePol: Minimum weight of points                     =   0.13D-08
 GePol: Maximum weight of points                     =    0.20577
 GePol: Number of points with low weight             =     181
 GePol: Fraction of low-weight points (<1% of avg)   =       6.51%
 GePol: Cavity surface area                          =    351.362 Ang**2
 GePol: Cavity volume                                =    413.659 Ang**3
 Leave Link  301 at Wed May  8 18:03:09 2019, MaxMem=   104857600 cpu:               4.0 elap:               0.1
 (Enter /opt/software/gaussian/g16.b01/l302.exe)
 NPDir=0 NMtPBC=     1 NCelOv=     1 NCel=       1 NClECP=     1 NCelD=      1
         NCelK=      1 NCelE2=     1 NClLst=     1 CellRange=     0.0.
 One-electron integrals computed using PRISM.
 One-electron integral symmetry used in STVInt
 PrsmSu:  requested number of processors reduced to:  27 ShMem   1 Linda.
 NBasis=   400 RedAO= T EigKep=  4.58D-04  NBF=   400
 NBsUse=   400 1.00D-06 EigRej= -1.00D+00 NBFU=   400
 Precomputing XC quadrature grid using
 IXCGrd= 4 IRadAn=           5 IRanWt=          -1 IRanGd=           0 AccXCQ= 0.00D+00.
 Generated NRdTot=       0 NPtTot=           0 NUsed=           0 NTot=          32
 NSgBfM=   397   397   397   397   397 MxSgAt=    40 MxSgA2=    40.
 Leave Link  302 at Wed May  8 18:03:10 2019, MaxMem=   104857600 cpu:              15.4 elap:               0.5
 (Enter /opt/software/gaussian/g16.b01/l303.exe)
 DipDrv:  MaxL=1.
 Leave Link  303 at Wed May  8 18:03:10 2019, MaxMem=   104857600 cpu:               1.9 elap:               0.1
 (Enter /opt/software/gaussian/g16.b01/l401.exe)
 Initial guess from the checkpoint file:  "Step01-opt-singlet.chk"
 B after Tr=    -0.000000    0.000000   -0.000000
         Rot=    1.000000   -0.000009   -0.000003    0.000036 Ang=  -0.00 deg.
 Guess basis will be translated and rotated to current coordinates.
 JPrj=2 DoOrth=T DoCkMO=T.
 Initial guess <Sx>= 0.0000 <Sy>= 0.0000 <Sz>= 0.0000 <S**2>=-0.0000 S=-0.0000
 Leave Link  401 at Wed May  8 18:03:10 2019, MaxMem=   104857600 cpu:               8.2 elap:               0.3
 (Enter /opt/software/gaussian/g16.b01/l502.exe)
 Integral symmetry usage will be decided dynamically.
 UHF open shell SCF:
 Using DIIS extrapolation, IDIIS=  1040.
 NGot=   104857600 LenX=   104520454 LenY=   104360013
 Requested convergence on RMS density matrix=1.00D-08 within 128 cycles.
 Requested convergence on MAX density matrix=1.00D-06.
 Requested convergence on             energy=1.00D-06.
 No special actions if energy rises.
 Fock matrices will be formed incrementally for  20 cycles.

 Cycle   1  Pass 1  IDiag  1:
 FoFJK:  IHMeth= 1 ICntrl=       0 DoSepK=F KAlg= 0 I1Cent=           0 FoldK=F
 IRaf= 800000000 NMat=       1 IRICut=       1 DoRegI=T DoRafI=F ISym2E= 0 IDoP0=0 IntGTp=1.
 FoFCou: FMM=F IPFlag=           0 FMFlag=      100000 FMFlg1=           0
         NFxFlg=           0 DoJE=F BraDBF=F KetDBF=F FulRan=T
         wScrn=  0.000000 ICntrl=         0 IOpCl=  1 I1Cent=           0 NGrid=           0
         NMat0=    1 NMatS0=      1 NMatT0=    0 NMatD0=    1 NMtDS0=    0 NMtDT0=    0
 Symmetry not used in FoFCou.
 Inv3:  Mode=1 IEnd=    23168523.
 Iteration    1 A*A^-1 deviation from unit magnitude is 2.89D-15 for   1533.
 Iteration    1 A*A^-1 deviation from orthogonality  is 2.03D-15 for   2567   1199.
 Iteration    1 A^-1*A deviation from unit magnitude is 3.00D-15 for   1340.
 Iteration    1 A^-1*A deviation from orthogonality  is 2.04D-15 for   2215    870.
 E= -881.755424688864    
 DIIS: error= 7.51D-05 at cycle   1 NSaved=   1.
 NSaved= 1 IEnMin= 1 EnMin= -881.755424688864     IErMin= 1 ErrMin= 7.51D-05
 ErrMax= 7.51D-05  0.00D+00 EMaxC= 1.00D-01 BMatC= 4.14D-06 BMatP= 4.14D-06
 IDIUse=1 WtCom= 1.00D+00 WtEn= 0.00D+00
 Coeff-Com:  0.100D+01
 Coeff:      0.100D+01
 Gap=     1.838 Goal=   None    Shift=    0.000
 Gap=     1.838 Goal=   None    Shift=    0.000
 RMSDP=4.57D-06 MaxDP=3.62D-04              OVMax= 3.16D-04

 Cycle   2  Pass 1  IDiag  1:
 RMSU=  4.57D-06    CP:  1.00D+00
 E= -881.755426267237     Delta-E=       -0.000001578372 Rises=F Damp=F
 DIIS: error= 1.06D-05 at cycle   2 NSaved=   2.
 NSaved= 2 IEnMin= 2 EnMin= -881.755426267237     IErMin= 2 ErrMin= 1.06D-05
 ErrMax= 1.06D-05  0.00D+00 EMaxC= 1.00D-01 BMatC= 2.19D-07 BMatP= 4.14D-06
 IDIUse=1 WtCom= 1.00D+00 WtEn= 0.00D+00
 Coeff-Com:  0.457D-01 0.954D+00
 Coeff:      0.457D-01 0.954D+00
 Gap=     0.133 Goal=   None    Shift=    0.000
 Gap=     0.133 Goal=   None    Shift=    0.000
 RMSDP=1.28D-06 MaxDP=1.20D-04 DE=-1.58D-06 OVMax= 9.94D-05

 Cycle   3  Pass 1  IDiag  1:
 RMSU=  1.27D-06    CP:  1.00D+00  1.04D+00
 E= -881.755426238478     Delta-E=        0.000000028759 Rises=F Damp=F
 DIIS: error= 1.56D-05 at cycle   3 NSaved=   3.
 NSaved= 3 IEnMin= 2 EnMin= -881.755426267237     IErMin= 2 ErrMin= 1.06D-05
 ErrMax= 1.56D-05  0.00D+00 EMaxC= 1.00D-01 BMatC= 3.99D-07 BMatP= 2.19D-07
 IDIUse=1 WtCom= 1.00D+00 WtEn= 0.00D+00
 Coeff-Com: -0.237D-01 0.590D+00 0.433D+00
 Coeff:     -0.237D-01 0.590D+00 0.433D+00
 Gap=     0.133 Goal=   None    Shift=    0.000
 Gap=     0.133 Goal=   None    Shift=    0.000
 RMSDP=9.23D-07 MaxDP=9.41D-05 DE= 2.88D-08 OVMax= 7.94D-05

 Cycle   4  Pass 1  IDiag  1:
 RMSU=  3.94D-07    CP:  1.00D+00  1.06D+00  3.48D-01
 E= -881.755426310356     Delta-E=       -0.000000071879 Rises=F Damp=F
 DIIS: error= 3.98D-06 at cycle   4 NSaved=   4.
 NSaved= 4 IEnMin= 4 EnMin= -881.755426310356     IErMin= 4 ErrMin= 3.98D-06
 ErrMax= 3.98D-06  0.00D+00 EMaxC= 1.00D-01 BMatC= 3.14D-08 BMatP= 2.19D-07
 IDIUse=1 WtCom= 1.00D+00 WtEn= 0.00D+00
 Coeff-Com: -0.165D-01 0.216D+00 0.262D+00 0.538D+00
 Coeff:     -0.165D-01 0.216D+00 0.262D+00 0.538D+00
 Gap=     0.133 Goal=   None    Shift=    0.000
 Gap=     0.133 Goal=   None    Shift=    0.000
 RMSDP=2.08D-07 MaxDP=1.91D-05 DE=-7.19D-08 OVMax= 2.06D-05

 Cycle   5  Pass 1  IDiag  1:
 RMSU=  1.40D-07    CP:  1.00D+00  1.07D+00  4.21D-01  6.93D-01
 E= -881.755426316226     Delta-E=       -0.000000005870 Rises=F Damp=F
 DIIS: error= 7.26D-07 at cycle   5 NSaved=   5.
 NSaved= 5 IEnMin= 5 EnMin= -881.755426316226     IErMin= 5 ErrMin= 7.26D-07
 ErrMax= 7.26D-07  0.00D+00 EMaxC= 1.00D-01 BMatC= 1.86D-09 BMatP= 3.14D-08
 IDIUse=1 WtCom= 1.00D+00 WtEn= 0.00D+00
 Coeff-Com: -0.593D-02 0.612D-01 0.105D+00 0.284D+00 0.555D+00
 Coeff:     -0.593D-02 0.612D-01 0.105D+00 0.284D+00 0.555D+00
 Gap=     0.133 Goal=   None    Shift=    0.000
 Gap=     0.133 Goal=   None    Shift=    0.000
 RMSDP=6.75D-08 MaxDP=3.60D-06 DE=-5.87D-09 OVMax= 6.30D-06

 Cycle   6  Pass 1  IDiag  1:
 RMSU=  3.77D-08    CP:  1.00D+00  1.07D+00  4.40D-01  7.12D-01  6.44D-01
 E= -881.755426316673     Delta-E=       -0.000000000447 Rises=F Damp=F
 DIIS: error= 2.10D-07 at cycle   6 NSaved=   6.
 NSaved= 6 IEnMin= 6 EnMin= -881.755426316673     IErMin= 6 ErrMin= 2.10D-07
 ErrMax= 2.10D-07  0.00D+00 EMaxC= 1.00D-01 BMatC= 1.03D-10 BMatP= 1.86D-09
 IDIUse=1 WtCom= 1.00D+00 WtEn= 0.00D+00
 Coeff-Com: -0.154D-02 0.112D-01 0.292D-01 0.910D-01 0.254D+00 0.616D+00
 Coeff:     -0.154D-02 0.112D-01 0.292D-01 0.910D-01 0.254D+00 0.616D+00
 Gap=     0.133 Goal=   None    Shift=    0.000
 Gap=     0.133 Goal=   None    Shift=    0.000
 RMSDP=1.69D-08 MaxDP=1.06D-06 DE=-4.47D-10 OVMax= 1.92D-06

 Cycle   7  Pass 1  IDiag  1:
 RMSU=  1.24D-08    CP:  1.00D+00  1.07D+00  4.41D-01  7.18D-01  6.88D-01
                    CP:  7.60D-01
 E= -881.755426316699     Delta-E=       -0.000000000026 Rises=F Damp=F
 DIIS: error= 8.83D-08 at cycle   7 NSaved=   7.
 NSaved= 7 IEnMin= 7 EnMin= -881.755426316699     IErMin= 7 ErrMin= 8.83D-08
 ErrMax= 8.83D-08  0.00D+00 EMaxC= 1.00D-01 BMatC= 1.96D-11 BMatP= 1.03D-10
 IDIUse=1 WtCom= 1.00D+00 WtEn= 0.00D+00
 Coeff-Com:  0.215D-04-0.317D-02 0.568D-03 0.995D-02 0.631D-01 0.339D+00
 Coeff-Com:  0.591D+00
 Coeff:      0.215D-04-0.317D-02 0.568D-03 0.995D-02 0.631D-01 0.339D+00
 Coeff:      0.591D+00
 Gap=     0.133 Goal=   None    Shift=    0.000
 Gap=     0.133 Goal=   None    Shift=    0.000
 RMSDP=6.98D-09 MaxDP=4.10D-07 DE=-2.57D-11 OVMax= 8.42D-07

 Error on total polarization charges =  0.00978
 SCF Done:  E(UB3LYP) =  -881.755426317     A.U. after    7 cycles
            NFock=  7  Conv=0.70D-08     -V/T= 2.0096
 <Sx>= 0.0000 <Sy>= 0.0000 <Sz>= 0.0000 <S**2>=-0.0000 S=-0.0000
 <L.S>=  0.00000000000    
 KE= 8.733821506262D+02 PE=-5.183209735585D+03 EE= 1.861288858661D+03
 Annihilation of the first spin contaminant:
 S**2 before annihilation    -0.0000,   after     0.0000
 Leave Link  502 at Wed May  8 18:03:34 2019, MaxMem=   104857600 cpu:             728.1 elap:              23.8
 (Enter /opt/software/gaussian/g16.b01/l701.exe)
 ... and contract with generalized density number  0.
 Compute integral first derivatives.
 R6Disp: Adding Grimme-D3 dispersion energy 1st derivatives to the gradient.
 PrsmSu:  requested number of processors reduced to:  28 ShMem   1 Linda.
 D1PCM: PCM CHGder 1st derivatives, ID1Alg=3 FixD1E=F DoIter=F DoCFld=F I1PDM=0.
 GePol: Maximum number of non-zero 1st derivatives   =     211
 CoulSu:  requested number of processors reduced to:  27 ShMem   1 Linda.
 CoulSu:  requested number of processors reduced to:  28 ShMem   1 Linda.
 Leave Link  701 at Wed May  8 18:03:35 2019, MaxMem=   104857600 cpu:              43.3 elap:               1.4
 (Enter /opt/software/gaussian/g16.b01/l702.exe)
 L702 exits ... SP integral derivatives will be done elsewhere.
 Leave Link  702 at Wed May  8 18:03:36 2019, MaxMem=   104857600 cpu:               1.9 elap:               0.1
 (Enter /opt/software/gaussian/g16.b01/l703.exe)
 Integral derivatives from FoFJK, PRISM(SPDF).
 Compute integral first derivatives, UseDBF=F ICtDFT=           0.
 Calling FoFJK, ICntrl=      2127 FMM=F ISym2X=0 I1Cent= 0 IOpClX= 1 NMat=1 NMatS=1 NMatT=0.
 FoFJK:  IHMeth= 1 ICntrl=    2127 DoSepK=F KAlg= 0 I1Cent=           0 FoldK=F
 IRaf=         0 NMat=       1 IRICut=       1 DoRegI=T DoRafI=F ISym2E= 0 IDoP0=0 IntGTp=1.
 FoFCou: FMM=F IPFlag=           0 FMFlag=      100000 FMFlg1=         800
         NFxFlg=           0 DoJE=F BraDBF=F KetDBF=F FulRan=T
         wScrn=  0.000000 ICntrl=      2127 IOpCl=  1 I1Cent=           0 NGrid=           0
         NMat0=    1 NMatS0=      1 NMatT0=    0 NMatD0=    1 NMtDS0=    0 NMtDT0=    0
 Symmetry not used in FoFCou.
 Leave Link  703 at Wed May  8 18:03:42 2019, MaxMem=   104857600 cpu:             208.9 elap:               6.6
 (Enter /opt/software/gaussian/g16.b01/l716.exe)
 Dipole        = 3.83652500D+00-1.81079030D-01 2.96144022D-02
 ***** Axes restored to original set *****
 -------------------------------------------------------------------
 Center     Atomic                   Forces (Hartrees/Bohr)
 Number     Number              X              Y              Z
 -------------------------------------------------------------------
      1        6           0.000097316   -0.000060538   -0.000057423
      2        1          -0.000049825   -0.000111031   -0.000153250
      3        6          -0.000231233    0.000495987    0.000404879
      4        8          -0.000015781    0.000018707   -0.000462279
      5        8           0.000070340    0.000209466   -0.000004649
      6        7           0.000470540    0.000236541   -0.000556843
      7        1          -0.000170284   -0.000115621   -0.000010253
      8        7           0.000441101    0.000277284    0.001303366
      9        1          -0.000411091   -0.000108103   -0.001085741
     10        1          -0.000267302   -0.000194979    0.000326248
     11        6           0.000315121   -0.000083396    0.000623014
     12        1          -0.000174667    0.000000302    0.000051574
     13        1          -0.000160353   -0.000033703   -0.000216892
     14        1          -0.000323439   -0.000081160   -0.000013020
     15        6          -0.000321137   -0.000371071   -0.000816715
     16        1           0.000139155   -0.000016493   -0.000135281
     17        1           0.000149628    0.000061369    0.000356788
     18        1           0.000047061    0.000162594    0.000426891
     19        6           0.000141781    0.000156040   -0.000221534
     20        6           0.000011499   -0.000056646    0.000171861
     21        6           0.000010647   -0.000032815   -0.000037561
     22        6          -0.000006162   -0.000008795    0.000063245
     23        1           0.000074160   -0.000028827   -0.000025101
     24        6          -0.000068418   -0.000013604   -0.000039846
     25        1          -0.000005629    0.000052190    0.000010251
     26        6          -0.000015787   -0.000073204    0.000009230
     27        1          -0.000003686    0.000006244   -0.000012434
     28        1           0.000020479   -0.000008474   -0.000021299
     29        1           0.000017072   -0.000016361   -0.000010897
     30        6           0.000139655    0.000000481    0.000041120
     31        6           0.000037950   -0.000023732   -0.000020822
     32        6          -0.000009166   -0.000043266    0.000170788
     33        6           0.000013061    0.000083649   -0.000156562
     34        1          -0.000017483    0.000014883   -0.000039714
     35        6           0.000054406   -0.000075681   -0.000014056
     36        1           0.000018067   -0.000018337   -0.000011496
     37        6          -0.000012306   -0.000160759    0.000131568
     38        1          -0.000001329   -0.000008710    0.000005262
     39        1          -0.000011752   -0.000020836    0.000057011
     40        1           0.000007791   -0.000009594   -0.000029428
 -------------------------------------------------------------------
 Cartesian Forces:  Max     0.001303366 RMS     0.000246360
 Leave Link  716 at Wed May  8 18:03:42 2019, MaxMem=   104857600 cpu:               1.5 elap:               0.1
 (Enter /opt/software/gaussian/g16.b01/l103.exe)

 GradGradGradGradGradGradGradGradGradGradGradGradGradGradGradGradGradGrad
 Berny optimization.
 Using GEDIIS/GDIIS optimizer.
 Bend failed for angle     5 -     9 -     8
 Tors failed for dihedral     1 -     5 -     9 -     8
 Tors failed for dihedral     2 -     8 -     9 -     5
 Tors failed for dihedral     6 -     8 -     9 -     5
 FormBX had a problem.
 Error termination via Lnk1e in /opt/software/gaussian/g16.b01/l103.exe at Wed May  8 18:03:42 2019.
 Job cpu time:       0 days 21 hours  3 minutes 45.7 seconds.
 Elapsed time:       0 days  0 hours 41 minutes  4.9 seconds.
 File lengths (MBytes):  RWF=    502 Int=      0 D2E=      0 Chk=     20 Scr=      1
