 Entering Gaussian System, Link 0=g16
 Initial command:
 /opt/software/gaussian/g16.b01/l1.exe "/localscratch/rzk.14620204.0/Gau-27910.inp" -scrdir="/localscratch/rzk.14620204.0/"
 Entering Link 1 = /opt/software/gaussian/g16.b01/l1.exe PID=     27911.
  
 Copyright (c) 1988-2017, Gaussian, Inc.  All Rights Reserved.
  
 This is part of the Gaussian(R) 16 program.  It is based on
 the Gaussian(R) 09 system (copyright 2009, Gaussian, Inc.),
 the Gaussian(R) 03 system (copyright 2003, Gaussian, Inc.),
 the Gaussian(R) 98 system (copyright 1998, Gaussian, Inc.),
 the Gaussian(R) 94 system (copyright 1995, Gaussian, Inc.),
 the Gaussian 92(TM) system (copyright 1992, Gaussian, Inc.),
 the Gaussian 90(TM) system (copyright 1990, Gaussian, Inc.),
 the Gaussian 88(TM) system (copyright 1988, Gaussian, Inc.),
 the Gaussian 86(TM) system (copyright 1986, Carnegie Mellon
 University), and the Gaussian 82(TM) system (copyright 1983,
 Carnegie Mellon University). Gaussian is a federally registered
 trademark of Gaussian, Inc.
  
 This software contains proprietary and confidential information,
 including trade secrets, belonging to Gaussian, Inc.
  
 This software is provided under written license and may be
 used, copied, transmitted, or stored only in accord with that
 written license.
  
 The following legend is applicable only to US Government
 contracts under FAR:
  
                    RESTRICTED RIGHTS LEGEND
  
 Use, reproduction and disclosure by the US Government is
 subject to restrictions as set forth in subparagraphs (a)
 and (c) of the Commercial Computer Software - Restricted
 Rights clause in FAR 52.227-19.
  
 Gaussian, Inc.
 340 Quinnipiac St., Bldg. 40, Wallingford CT 06492
  
  
 ---------------------------------------------------------------
 Warning -- This program may not be used in any manner that
 competes with the business of Gaussian, Inc. or will provide
 assistance to any competitor of Gaussian, Inc.  The licensee
 of this program is prohibited from giving any competitor of
 Gaussian, Inc. access to this program.  By using this program,
 the user acknowledges that Gaussian, Inc. is engaged in the
 business of creating and licensing software in the field of
 computational chemistry and represents and warrants to the
 licensee that it is not a competitor of Gaussian, Inc. and that
 it will not use this program in any manner prohibited above.
 ---------------------------------------------------------------
  

 Cite this work as:
 Gaussian 16, Revision B.01,
 M. J. Frisch, G. W. Trucks, H. B. Schlegel, G. E. Scuseria, 
 M. A. Robb, J. R. Cheeseman, G. Scalmani, V. Barone, 
 G. A. Petersson, H. Nakatsuji, X. Li, M. Caricato, A. V. Marenich, 
 J. Bloino, B. G. Janesko, R. Gomperts, B. Mennucci, H. P. Hratchian, 
 J. V. Ortiz, A. F. Izmaylov, J. L. Sonnenberg, D. Williams-Young, 
 F. Ding, F. Lipparini, F. Egidi, J. Goings, B. Peng, A. Petrone, 
 T. Henderson, D. Ranasinghe, V. G. Zakrzewski, J. Gao, N. Rega, 
 G. Zheng, W. Liang, M. Hada, M. Ehara, K. Toyota, R. Fukuda, 
 J. Hasegawa, M. Ishida, T. Nakajima, Y. Honda, O. Kitao, H. Nakai, 
 T. Vreven, K. Throssell, J. A. Montgomery, Jr., J. E. Peralta, 
 F. Ogliaro, M. J. Bearpark, J. J. Heyd, E. N. Brothers, K. N. Kudin, 
 V. N. Staroverov, T. A. Keith, R. Kobayashi, J. Normand, 
 K. Raghavachari, A. P. Rendell, J. C. Burant, S. S. Iyengar, 
 J. Tomasi, M. Cossi, J. M. Millam, M. Klene, C. Adamo, R. Cammi, 
 J. W. Ochterski, R. L. Martin, K. Morokuma, O. Farkas, 
 J. B. Foresman, and D. J. Fox, Gaussian, Inc., Wallingford CT, 2016.
 
 ******************************************
 Gaussian 16:  ES64L-G16RevB.01 20-Dec-2017
                10-May-2019 
 ******************************************
 %NProcShared=2
 Will use up to    2 processors via shared memory.
 %chk=B-cis.chk
 ----------------------------------------------------------------------
 #p opt freq b3lyp/6-31g(d,p) scrf=(iefpcm,solvent=acetonitrile) empiri
 caldispersion=gd3
 ----------------------------------------------------------------------
 1/18=20,19=15,26=3,38=1/1,3;
 2/9=110,12=2,17=6,18=5,40=1/2;
 3/5=1,6=6,7=101,11=2,25=1,30=1,70=2201,71=1,72=2,74=-5,124=31/1,2,3;
 4//1;
 5/5=2,38=5,53=2/2;
 6/7=2,8=2,9=2,10=2,28=1/1;
 7//1,2,3,16;
 1/18=20,19=15,26=3/3(2);
 2/9=110/2;
 99//99;
 2/9=110/2;
 3/5=1,6=6,7=101,11=2,25=1,30=1,70=2205,71=1,72=2,74=-5,124=31/1,2,3;
 4/5=5,16=3,69=1/1;
 5/5=2,38=5,53=2/2;
 7//1,2,3,16;
 1/18=20,19=15,26=3/3(-5);
 2/9=110/2;
 6/7=2,8=2,9=2,10=2,19=2,28=1/1;
 99/9=1/99;
 Leave Link    1 at Fri May 10 16:11:28 2019, MaxMem=           0 cpu:               0.1 elap:               0.1
 (Enter /opt/software/gaussian/g16.b01/l101.exe)
 -------------------
 Title Card Required
 -------------------
 Symbolic Z-matrix:
 Charge =  0 Multiplicity = 1
 N                    -0.71041   0.07686   0.1019 
 H                    -1.05858  -0.84358   0.37177 
 N                     0.71041   0.07687  -0.10189 
 H                     1.05858  -0.84356  -0.37182 
 
 ITRead=  0  0  0  0
 MicOpt= -1 -1 -1 -1
 NAtoms=      4 NQM=        4 NQMF=       0 NMMI=      0 NMMIF=      0
                NMic=       0 NMicF=      0.
                    Isotopes and Nuclear Properties:
 (Nuclear quadrupole moments (NQMom) in fm**2, nuclear magnetic moments (NMagM)
  in nuclear magnetons)

  Atom         1           2           3           4
 IAtWgt=          14           1          14           1
 AtmWgt=  14.0030740   1.0078250  14.0030740   1.0078250
 NucSpn=           2           1           2           1
 AtZEff=  -0.0000000  -0.0000000  -0.0000000  -0.0000000
 NQMom=    2.0440000   0.0000000   2.0440000   0.0000000
 NMagM=    0.4037610   2.7928460   0.4037610   2.7928460
 AtZNuc=   7.0000000   1.0000000   7.0000000   1.0000000
 Leave Link  101 at Fri May 10 16:11:28 2019, MaxMem=   104857600 cpu:               0.3 elap:               0.1
 (Enter /opt/software/gaussian/g16.b01/l103.exe)

 GradGradGradGradGradGradGradGradGradGradGradGradGradGradGradGradGradGrad
 Berny optimization.
 Initialization pass.
                           ----------------------------
                           !    Initial Parameters    !
                           ! (Angstroms and Degrees)  !
 --------------------------                            --------------------------
 ! Name  Definition              Value          Derivative Info.                !
 --------------------------------------------------------------------------------
 ! R1    R(1,2)                  1.0204         estimate D2E/DX2                !
 ! R2    R(1,3)                  1.4354         estimate D2E/DX2                !
 ! R3    R(3,4)                  1.0204         estimate D2E/DX2                !
 ! A1    A(2,1,3)              112.0426         estimate D2E/DX2                !
 ! A2    A(1,3,4)              112.0426         estimate D2E/DX2                !
 ! D1    D(2,1,3,4)             26.6182         estimate D2E/DX2                !
 --------------------------------------------------------------------------------
 Trust Radius=3.00D-01 FncErr=1.00D-07 GrdErr=1.00D-06 EigMax=2.50D+02 EigMin=1.00D-04
 Number of steps in this run=     20 maximum allowed number of steps=    100.
 GradGradGradGradGradGradGradGradGradGradGradGradGradGradGradGradGradGrad

 Leave Link  103 at Fri May 10 16:11:28 2019, MaxMem=   104857600 cpu:               0.0 elap:               0.0
 (Enter /opt/software/gaussian/g16.b01/l202.exe)
                          Input orientation:                          
 ---------------------------------------------------------------------
 Center     Atomic      Atomic             Coordinates (Angstroms)
 Number     Number       Type             X           Y           Z
 ---------------------------------------------------------------------
      1          7           0       -0.710411    0.076863    0.101896
      2          1           0       -1.058581   -0.843582    0.371772
      3          7           0        0.710411    0.076869   -0.101891
      4          1           0        1.058581   -0.843561   -0.371821
 ---------------------------------------------------------------------
                    Distance matrix (angstroms):
                    1          2          3          4
     1  N    0.000000
     2  H    1.020429   0.000000
     3  N    1.435363   2.049615   0.000000
     4  H    2.049615   2.243949   1.020429   0.000000
 Stoichiometry    H2N2
 Framework group  C2[X(H2N2)]
 Deg. of freedom     4
 Full point group                 C2      NOp   2
 Largest Abelian subgroup         C2      NOp   2
 Largest concise Abelian subgroup C2      NOp   2
                         Standard orientation:                         
 ---------------------------------------------------------------------
 Center     Atomic      Atomic             Coordinates (Angstroms)
 Number     Number       Type             X           Y           Z
 ---------------------------------------------------------------------
      1          7           0       -0.000000   -0.717681   -0.115055
      2          1           0       -0.217737   -1.100644    0.805383
      3          7           0        0.000000    0.717681   -0.115055
      4          1           0        0.217737    1.100644    0.805383
 ---------------------------------------------------------------------
 Rotational constants (GHZ):         301.7771051          29.7941085          27.3566179
 Leave Link  202 at Fri May 10 16:11:28 2019, MaxMem=   104857600 cpu:               0.1 elap:               0.0
 (Enter /opt/software/gaussian/g16.b01/l301.exe)
 Standard basis: 6-31G(d,p) (6D, 7F)
 Ernie: Thresh=  0.10000D-02 Tol=  0.10000D-05 Strict=F.
 There are    20 symmetry adapted cartesian basis functions of A   symmetry.
 There are    20 symmetry adapted cartesian basis functions of B   symmetry.
 There are    20 symmetry adapted basis functions of A   symmetry.
 There are    20 symmetry adapted basis functions of B   symmetry.
    40 basis functions,    70 primitive gaussians,    40 cartesian basis functions
     8 alpha electrons        8 beta electrons
       nuclear repulsion energy        29.1754611970 Hartrees.
 IExCor=  402 DFT=T Ex+Corr=B3LYP ExCW=0 ScaHFX=  0.200000
 ScaDFX=  0.800000  0.720000  1.000000  0.810000 ScalE2=  1.000000  1.000000
 IRadAn=      5 IRanWt=     -1 IRanGd=            0 ICorTp=0 IEmpDi=131
 NAtoms=    4 NActive=    4 NUniq=    2 SFac= 4.00D+00 NAtFMM=   60 NAOKFM=F Big=F
 Integral buffers will be    131072 words long.
 Raffenetti 2 integral format.
 Two-electron integral symmetry is turned on.
 R6Disp:  Grimme-D3 Dispersion energy=       -0.0002773056 Hartrees.
 Nuclear repulsion after empirical dispersion term =       29.1751838914 Hartrees.
 ------------------------------------------------------------------------------
 Polarizable Continuum Model (PCM)
 =================================
 Model                : PCM.
 Atomic radii         : UFF (Universal Force Field).
 Polarization charges : Total charges.
 Charge compensation  : None.
 Solution method      : On-the-fly selection.
 Cavity type          : Scaled VdW (van der Waals Surface) (Alpha=1.100).
 Cavity algorithm     : GePol (No added spheres)
                        Default sphere list used, NSphG=    4.
                        Lebedev-Laikov grids with approx.  5.0 points / Ang**2.
                        Smoothing algorithm: York/Karplus (Gamma=1.0000).
                        Polarization charges: spherical gaussians, with
                                              point-specific exponents (IZeta= 3).
                        Self-potential: point-specific (ISelfS= 7).
                        Self-field    : sphere-specific E.n sum rule (ISelfD= 2).
 1st derivatives      : Analytical E(r).r(x)/FMM algorithm (CHGder, D1EAlg=3).
                        Cavity 1st derivative terms included.
 Solvent              : Acetonitrile, Eps=  35.688000 Eps(inf)=   1.806874
 ------------------------------------------------------------------------------
 Spheres list:
 ISph  on   Nord     Re0    Alpha      Xe            Ye            Ze
    1   N      1    1.8300  1.100     -0.000000     -0.717681     -0.115055
    2   H      2    1.4430  1.100     -0.217737     -1.100644      0.805383
    3   N      3    1.8300  1.100      0.000000      0.717681     -0.115055
    4   H      4    1.4430  1.100      0.217737      1.100644      0.805383
 ------------------------------------------------------------------------------
 GePol: Number of generator spheres                  =       4
 GePol: Total number of spheres                      =       4
 GePol: Number of exposed spheres                    =       4 (100.00%)
 GePol: Number of points                             =     522
 GePol: Average weight of points                     =       0.15
 GePol: Minimum weight of points                     =   0.82D-05
 GePol: Maximum weight of points                     =    0.20212
 GePol: Number of points with low weight             =      14
 GePol: Fraction of low-weight points (<1% of avg)   =       2.68%
 GePol: Cavity surface area                          =     76.291 Ang**2
 GePol: Cavity volume                                =     58.121 Ang**3
 Leave Link  301 at Fri May 10 16:11:28 2019, MaxMem=   104857600 cpu:               0.2 elap:               0.1
 (Enter /opt/software/gaussian/g16.b01/l302.exe)
 NPDir=0 NMtPBC=     1 NCelOv=     1 NCel=       1 NClECP=     1 NCelD=      1
         NCelK=      1 NCelE2=     1 NClLst=     1 CellRange=     0.0.
 One-electron integrals computed using PRISM.
 One-electron integral symmetry used in STVInt
 NBasis=    40 RedAO= T EigKep=  1.14D-02  NBF=    20    20
 NBsUse=    40 1.00D-06 EigRej= -1.00D+00 NBFU=    20    20
 Precomputing XC quadrature grid using
 IXCGrd= 4 IRadAn=           5 IRanWt=          -1 IRanGd=           0 AccXCQ= 0.00D+00.
 Generated NRdTot=       0 NPtTot=           0 NUsed=           0 NTot=          32
 NSgBfM=    40    40    40    40    40 MxSgAt=     4 MxSgA2=     4.
 Leave Link  302 at Fri May 10 16:11:28 2019, MaxMem=   104857600 cpu:               0.3 elap:               0.1
 (Enter /opt/software/gaussian/g16.b01/l303.exe)
 DipDrv:  MaxL=1.
 Leave Link  303 at Fri May 10 16:11:28 2019, MaxMem=   104857600 cpu:               0.1 elap:               0.1
 (Enter /opt/software/gaussian/g16.b01/l401.exe)
 ExpMin= 1.61D-01 ExpMax= 4.17D+03 ExpMxC= 6.27D+02 IAcc=3 IRadAn=         5 AccDes= 0.00D+00
 Harris functional with IExCor=  402 and IRadAn=       5 diagonalized for initial guess.
 HarFok:  IExCor=  402 AccDes= 0.00D+00 IRadAn=         5 IDoV= 1 UseB2=F ITyADJ=14
 ICtDFT=  3500011 ScaDFX=  1.000000  1.000000  1.000000  1.000000
 FoFCou: FMM=F IPFlag=           0 FMFlag=      100000 FMFlg1=           0
         NFxFlg=           0 DoJE=T BraDBF=F KetDBF=T FulRan=T
         wScrn=  0.000000 ICntrl=       500 IOpCl=  0 I1Cent=   200000004 NGrid=           0
         NMat0=    1 NMatS0=      1 NMatT0=    0 NMatD0=    1 NMtDS0=    0 NMtDT0=    0
 Petite list used in FoFCou.
 Harris En= -110.580033462856    
 JPrj=0 DoOrth=F DoCkMO=F.
 Initial guess orbital symmetries:
       Occupied  (A) (B) (A) (B) (A) (A) (B) (B)
       Virtual   (A) (A) (B) (B) (B) (A) (B) (A) (A) (A) (B) (B)
                 (A) (B) (B) (A) (B) (A) (B) (A) (A) (A) (B) (B)
                 (A) (A) (B) (B) (A) (B) (A) (B)
 The electronic state of the initial guess is 1-A.
 Leave Link  401 at Fri May 10 16:11:28 2019, MaxMem=   104857600 cpu:               0.4 elap:               0.2
 (Enter /opt/software/gaussian/g16.b01/l502.exe)
 Keep R1 ints in memory in symmetry-blocked form, NReq=2067516.
 FoFCou: FMM=F IPFlag=           0 FMFlag=           0 FMFlg1=           0
         NFxFlg=           0 DoJE=F BraDBF=F KetDBF=F FulRan=T
         wScrn=  0.000000 ICntrl=       600 IOpCl=  0 I1Cent=           0 NGrid=           0
         NMat0=    1 NMatS0=    820 NMatT0=    0 NMatD0=    1 NMtDS0=    0 NMtDT0=    0
 Petite list used in FoFCou.
 Closed shell SCF:
 Using DIIS extrapolation, IDIIS=  1040.
 NGot=   104857600 LenX=   104682964 LenY=   104680923
 Requested convergence on RMS density matrix=1.00D-08 within 128 cycles.
 Requested convergence on MAX density matrix=1.00D-06.
 Requested convergence on             energy=1.00D-06.
 No special actions if energy rises.

 Cycle   1  Pass 1  IDiag  1:
 Inv3:  Mode=1 IEnd=      817452.
 Iteration    1 A*A^-1 deviation from unit magnitude is 2.44D-15 for     16.
 Iteration    1 A*A^-1 deviation from orthogonality  is 1.96D-15 for    110      8.
 Iteration    1 A^-1*A deviation from unit magnitude is 2.44D-15 for     16.
 Iteration    1 A^-1*A deviation from orthogonality  is 1.44D-15 for    208     87.
 E= -110.588905338752    
 DIIS: error= 1.56D-02 at cycle   1 NSaved=   1.
 NSaved= 1 IEnMin= 1 EnMin= -110.588905338752     IErMin= 1 ErrMin= 1.56D-02
 ErrMax= 1.56D-02  0.00D+00 EMaxC= 1.00D-01 BMatC= 1.34D-02 BMatP= 1.34D-02
 IDIUse=3 WtCom= 8.44D-01 WtEn= 1.56D-01
 Coeff-Com:  0.100D+01
 Coeff-En:   0.100D+01
 Coeff:      0.100D+01
 Gap=     0.163 Goal=   None    Shift=    0.000
 GapD=    0.163 DampG=1.000 DampE=0.500 DampFc=0.5000 IDamp=-1.
 Damping current iteration by 5.00D-01
 RMSDP=3.82D-03 MaxDP=4.03D-02              OVMax= 4.73D-02

 Cycle   2  Pass 1  IDiag  1:
 E= -110.594423489154     Delta-E=       -0.005518150402 Rises=F Damp=T
 DIIS: error= 7.11D-03 at cycle   2 NSaved=   2.
 NSaved= 2 IEnMin= 2 EnMin= -110.594423489154     IErMin= 2 ErrMin= 7.11D-03
 ErrMax= 7.11D-03  0.00D+00 EMaxC= 1.00D-01 BMatC= 1.67D-03 BMatP= 1.34D-02
 IDIUse=3 WtCom= 9.29D-01 WtEn= 7.11D-02
 Coeff-Com: -0.243D+00 0.124D+01
 Coeff-En:   0.000D+00 0.100D+01
 Coeff:     -0.226D+00 0.123D+01
 Gap=     0.163 Goal=   None    Shift=    0.000
 RMSDP=7.35D-04 MaxDP=5.40D-03 DE=-5.52D-03 OVMax= 2.53D-02

 Cycle   3  Pass 1  IDiag  1:
 E= -110.599206365255     Delta-E=       -0.004782876101 Rises=F Damp=F
 DIIS: error= 2.42D-03 at cycle   3 NSaved=   3.
 NSaved= 3 IEnMin= 3 EnMin= -110.599206365255     IErMin= 3 ErrMin= 2.42D-03
 ErrMax= 2.42D-03  0.00D+00 EMaxC= 1.00D-01 BMatC= 2.87D-04 BMatP= 1.67D-03
 IDIUse=3 WtCom= 9.76D-01 WtEn= 2.42D-02
 Coeff-Com: -0.145D+00 0.412D+00 0.732D+00
 Coeff-En:   0.000D+00 0.000D+00 0.100D+01
 Coeff:     -0.141D+00 0.402D+00 0.739D+00
 Gap=     0.164 Goal=   None    Shift=    0.000
 RMSDP=4.02D-04 MaxDP=4.44D-03 DE=-4.78D-03 OVMax= 5.01D-03

 Cycle   4  Pass 1  IDiag  1:
 E= -110.599461053777     Delta-E=       -0.000254688523 Rises=F Damp=F
 DIIS: error= 3.40D-04 at cycle   4 NSaved=   4.
 NSaved= 4 IEnMin= 4 EnMin= -110.599461053777     IErMin= 4 ErrMin= 3.40D-04
 ErrMax= 3.40D-04  0.00D+00 EMaxC= 1.00D-01 BMatC= 7.24D-06 BMatP= 2.87D-04
 IDIUse=3 WtCom= 9.97D-01 WtEn= 3.40D-03
 Coeff-Com: -0.198D-01 0.411D-01 0.187D+00 0.792D+00
 Coeff-En:   0.000D+00 0.000D+00 0.000D+00 0.100D+01
 Coeff:     -0.198D-01 0.410D-01 0.186D+00 0.793D+00
 Gap=     0.164 Goal=   None    Shift=    0.000
 RMSDP=5.44D-05 MaxDP=4.46D-04 DE=-2.55D-04 OVMax= 6.39D-04

 Cycle   5  Pass 1  IDiag  1:
 E= -110.599467370244     Delta-E=       -0.000006316467 Rises=F Damp=F
 DIIS: error= 1.58D-05 at cycle   5 NSaved=   5.
 NSaved= 5 IEnMin= 5 EnMin= -110.599467370244     IErMin= 5 ErrMin= 1.58D-05
 ErrMax= 1.58D-05  0.00D+00 EMaxC= 1.00D-01 BMatC= 9.32D-09 BMatP= 7.24D-06
 IDIUse=1 WtCom= 1.00D+00 WtEn= 0.00D+00
 Coeff-Com: -0.209D-02 0.372D-02 0.228D-01 0.109D+00 0.866D+00
 Coeff:     -0.209D-02 0.372D-02 0.228D-01 0.109D+00 0.866D+00
 Gap=     0.164 Goal=   None    Shift=    0.000
 RMSDP=2.58D-06 MaxDP=1.49D-05 DE=-6.32D-06 OVMax= 3.45D-05

 Cycle   6  Pass 1  IDiag  1:
 E= -110.599467378636     Delta-E=       -0.000000008391 Rises=F Damp=F
 DIIS: error= 2.52D-06 at cycle   6 NSaved=   6.
 NSaved= 6 IEnMin= 6 EnMin= -110.599467378636     IErMin= 6 ErrMin= 2.52D-06
 ErrMax= 2.52D-06  0.00D+00 EMaxC= 1.00D-01 BMatC= 3.11D-10 BMatP= 9.32D-09
 IDIUse=1 WtCom= 1.00D+00 WtEn= 0.00D+00
 Coeff-Com:  0.213D-03-0.517D-03-0.149D-02-0.532D-02 0.124D+00 0.883D+00
 Coeff:      0.213D-03-0.517D-03-0.149D-02-0.532D-02 0.124D+00 0.883D+00
 Gap=     0.164 Goal=   None    Shift=    0.000
 RMSDP=7.02D-07 MaxDP=4.81D-06 DE=-8.39D-09 OVMax= 1.55D-05

 Cycle   7  Pass 1  IDiag  1:
 E= -110.599467379104     Delta-E=       -0.000000000468 Rises=F Damp=F
 DIIS: error= 4.93D-07 at cycle   7 NSaved=   7.
 NSaved= 7 IEnMin= 7 EnMin= -110.599467379104     IErMin= 7 ErrMin= 4.93D-07
 ErrMax= 4.93D-07  0.00D+00 EMaxC= 1.00D-01 BMatC= 7.18D-12 BMatP= 3.11D-10
 IDIUse=1 WtCom= 1.00D+00 WtEn= 0.00D+00
 Coeff-Com:  0.415D-04-0.719D-04-0.426D-03-0.218D-02-0.230D-01 0.239D-01
 Coeff-Com:  0.100D+01
 Coeff:      0.415D-04-0.719D-04-0.426D-03-0.218D-02-0.230D-01 0.239D-01
 Coeff:      0.100D+01
 Gap=     0.164 Goal=   None    Shift=    0.000
 RMSDP=1.50D-07 MaxDP=1.38D-06 DE=-4.68D-10 OVMax= 4.19D-06

 Cycle   8  Pass 1  IDiag  1:
 E= -110.599467379124     Delta-E=       -0.000000000020 Rises=F Damp=F
 DIIS: error= 8.91D-08 at cycle   8 NSaved=   8.
 NSaved= 8 IEnMin= 8 EnMin= -110.599467379124     IErMin= 8 ErrMin= 8.91D-08
 ErrMax= 8.91D-08  0.00D+00 EMaxC= 1.00D-01 BMatC= 1.21D-13 BMatP= 7.18D-12
 IDIUse=1 WtCom= 1.00D+00 WtEn= 0.00D+00
 Coeff-Com: -0.856D-05 0.182D-04 0.759D-04 0.354D-03-0.209D-03-0.201D-01
 Coeff-Com: -0.148D+00 0.117D+01
 Coeff:     -0.856D-05 0.182D-04 0.759D-04 0.354D-03-0.209D-03-0.201D-01
 Coeff:     -0.148D+00 0.117D+01
 Gap=     0.164 Goal=   None    Shift=    0.000
 RMSDP=3.77D-08 MaxDP=3.58D-07 DE=-2.04D-11 OVMax= 1.32D-06

 Cycle   9  Pass 1  IDiag  1:
 E= -110.599467379125     Delta-E=       -0.000000000001 Rises=F Damp=F
 DIIS: error= 1.16D-08 at cycle   9 NSaved=   9.
 NSaved= 9 IEnMin= 9 EnMin= -110.599467379125     IErMin= 9 ErrMin= 1.16D-08
 ErrMax= 1.16D-08  0.00D+00 EMaxC= 1.00D-01 BMatC= 5.71D-15 BMatP= 1.21D-13
 IDIUse=1 WtCom= 1.00D+00 WtEn= 0.00D+00
 Coeff-Com: -0.253D-05 0.496D-05 0.225D-04 0.113D-03 0.602D-03-0.398D-02
 Coeff-Com: -0.540D-01 0.200D+00 0.857D+00
 Coeff:     -0.253D-05 0.496D-05 0.225D-04 0.113D-03 0.602D-03-0.398D-02
 Coeff:     -0.540D-01 0.200D+00 0.857D+00
 Gap=     0.164 Goal=   None    Shift=    0.000
 RMSDP=3.46D-09 MaxDP=2.61D-08 DE=-8.81D-13 OVMax= 8.80D-08

 Error on total polarization charges =  0.00290
 SCF Done:  E(RB3LYP) =  -110.599467379     A.U. after    9 cycles
            NFock=  9  Conv=0.35D-08     -V/T= 2.0123
 KE= 1.092579701403D+02 PE=-3.164683586137D+02 EE= 6.743573720290D+01
 Leave Link  502 at Fri May 10 16:11:30 2019, MaxMem=   104857600 cpu:               3.3 elap:               1.7
 (Enter /opt/software/gaussian/g16.b01/l601.exe)
 Copying SCF densities to generalized density rwf, IOpCl= 0 IROHF=0.

 **********************************************************************

            Population analysis using the SCF Density.

 **********************************************************************

 Orbital symmetries:
       Occupied  (A) (B) (A) (B) (A) (B) (A) (B)
       Virtual   (A) (A) (B) (B) (B) (B) (A) (A) (A) (A) (B) (B)
                 (A) (B) (B) (A) (B) (A) (B) (A) (A) (A) (B) (B)
                 (A) (A) (B) (B) (A) (B) (A) (B)
 The electronic state is 1-A.
 Alpha  occ. eigenvalues --  -14.41146 -14.41129  -0.94725  -0.71868  -0.52250
 Alpha  occ. eigenvalues --   -0.35773  -0.35632  -0.27505
 Alpha virt. eigenvalues --   -0.11078   0.08756   0.12006   0.21791   0.64454
 Alpha virt. eigenvalues --    0.66430   0.66906   0.68539   0.69930   0.74855
 Alpha virt. eigenvalues --    0.85503   0.88611   0.91653   1.19369   1.39903
 Alpha virt. eigenvalues --    1.43529   1.51069   1.56694   1.85410   1.91858
 Alpha virt. eigenvalues --    2.07447   2.23757   2.27763   2.50458   2.52178
 Alpha virt. eigenvalues --    2.59347   2.61026   2.85795   3.25634   3.34483
 Alpha virt. eigenvalues --    3.45829   3.82876
          Condensed to atoms (all electrons):
               1          2          3          4
     1  N    6.753276   0.267373   0.300154  -0.027005
     2  H    0.267373   0.480349  -0.027005  -0.014515
     3  N    0.300154  -0.027005   6.753276   0.267373
     4  H   -0.027005  -0.014515   0.267373   0.480349
 Mulliken charges:
               1
     1  N   -0.293798
     2  H    0.293798
     3  N   -0.293798
     4  H    0.293798
 Sum of Mulliken charges =   0.00000
 Mulliken charges with hydrogens summed into heavy atoms:
               1
     1  N    0.000000
     3  N    0.000000
 Electronic spatial extent (au):  <R**2>=             66.3443
 Charge=              0.0000 electrons
 Dipole moment (field-independent basis, Debye):
    X=              0.0000    Y=              0.0000    Z=              3.5064  Tot=              3.5064
 Quadrupole moment (field-independent basis, Debye-Ang):
   XX=            -12.0559   YY=            -11.6721   ZZ=            -11.6576
   XY=              0.5984   XZ=              0.0000   YZ=             -0.0000
 Traceless Quadrupole moment (field-independent basis, Debye-Ang):
   XX=             -0.2607   YY=              0.1231   ZZ=              0.1376
   XY=              0.5984   XZ=              0.0000   YZ=             -0.0000
 Octapole moment (field-independent basis, Debye-Ang**2):
  XXX=             -0.0000  YYY=              0.0000  ZZZ=              4.0836  XYY=             -0.0000
  XXY=              0.0000  XXZ=              0.9057  XZZ=             -0.0000  YZZ=              0.0000
  YYZ=              5.2200  XYZ=              0.6507
 Hexadecapole moment (field-independent basis, Debye-Ang**3):
 XXXX=            -10.5399 YYYY=            -51.5600 ZZZZ=            -15.4565 XXXY=             -0.7159
 XXXZ=              0.0000 YYYX=              0.0396 YYYZ=             -0.0000 ZZZX=              0.0000
 ZZZY=             -0.0000 XXYY=            -10.3485 XXZZ=             -4.4893 YYZZ=            -10.7488
 XXYZ=              0.0000 YYXZ=              0.0000 ZZXY=              0.2416
 N-N= 2.917518389144D+01 E-N=-3.164683584919D+02  KE= 1.092579701403D+02
 Symmetry A    KE= 5.437711216414D+01
 Symmetry B    KE= 5.488085797614D+01
 No NMR shielding tensors so no spin-rotation constants.
 Leave Link  601 at Fri May 10 16:11:30 2019, MaxMem=   104857600 cpu:               0.2 elap:               0.1
 (Enter /opt/software/gaussian/g16.b01/l701.exe)
 ... and contract with generalized density number  0.
 Compute integral first derivatives.
 R6Disp: Adding Grimme-D3 dispersion energy 1st derivatives to the gradient.
 D1PCM: PCM CHGder 1st derivatives, ID1Alg=3 FixD1E=F DoIter=F DoCFld=F I1PDM=0.
 GePol: Maximum number of non-zero 1st derivatives   =     227
 Leave Link  701 at Fri May 10 16:11:31 2019, MaxMem=   104857600 cpu:               0.8 elap:               0.4
 (Enter /opt/software/gaussian/g16.b01/l702.exe)
 L702 exits ... SP integral derivatives will be done elsewhere.
 Leave Link  702 at Fri May 10 16:11:31 2019, MaxMem=   104857600 cpu:               0.1 elap:               0.0
 (Enter /opt/software/gaussian/g16.b01/l703.exe)
 Integral derivatives from FoFJK, PRISM(SPDF).
 Compute integral first derivatives, UseDBF=F ICtDFT=           0.
 Calling FoFJK, ICntrl=      2127 FMM=F ISym2X=1 I1Cent= 0 IOpClX= 0 NMat=1 NMatS=1 NMatT=0.
 FoFJK:  IHMeth= 1 ICntrl=    2127 DoSepK=F KAlg= 0 I1Cent=           0 FoldK=F
 IRaf=         0 NMat=       1 IRICut=       1 DoRegI=T DoRafI=F ISym2E= 1 IDoP0=0 IntGTp=1.
 FoFCou: FMM=F IPFlag=           0 FMFlag=      100000 FMFlg1=         800
         NFxFlg=           0 DoJE=F BraDBF=F KetDBF=F FulRan=T
         wScrn=  0.000000 ICntrl=      2127 IOpCl=  0 I1Cent=           0 NGrid=           0
         NMat0=    1 NMatS0=      1 NMatT0=    0 NMatD0=    1 NMtDS0=    0 NMtDT0=    0
 Petite list used in FoFCou.
 Leave Link  703 at Fri May 10 16:11:31 2019, MaxMem=   104857600 cpu:               0.6 elap:               0.3
 (Enter /opt/software/gaussian/g16.b01/l716.exe)
 Dipole        = 0.00000000D+00 0.00000000D+00 1.37951045D+00
 ***** Axes restored to original set *****
 -------------------------------------------------------------------
 Center     Atomic                   Forces (Hartrees/Bohr)
 Number     Number              X              Y              Z
 -------------------------------------------------------------------
      1        7           0.146725956    0.020093002    0.001565157
      2        1           0.002246427   -0.020092575   -0.015964060
      3        7          -0.146725959    0.020093066   -0.001564002
      4        1          -0.002246423   -0.020093493    0.015962905
 -------------------------------------------------------------------
 Cartesian Forces:  Max     0.146725959 RMS     0.061370859
 Leave Link  716 at Fri May 10 16:11:31 2019, MaxMem=   104857600 cpu:               0.1 elap:               0.0
 (Enter /opt/software/gaussian/g16.b01/l103.exe)

 GradGradGradGradGradGradGradGradGradGradGradGradGradGradGradGradGradGrad
 Berny optimization.
 FormGI is forming the generalized inverse of G from B-inverse, IUseBI=4.
 Internal  Forces:  Max     0.149507790 RMS     0.064167165
 Search for a local minimum.
 Step number   1 out of a maximum of   20
 All quantities printed in internal units (Hartrees-Bohrs-Radians)
 RMS Force = .64167D-01 SwitMx=.10000D-02 MixMth= 1
 Mixed Optimization -- RFO/linear search
 Second derivative matrix not updated -- first step.
 The second derivative matrix:
                          R1        R2        R3        A1        A2
           R1           0.44270
           R2           0.00000   0.40228
           R3           0.00000   0.00000   0.44270
           A1           0.00000   0.00000   0.00000   0.16000
           A2           0.00000   0.00000   0.00000   0.00000   0.16000
           D1           0.00000   0.00000   0.00000   0.00000   0.00000
                          D1
           D1           0.00827
 ITU=  0
     Eigenvalues ---    0.00827   0.16000   0.16000   0.40228   0.44270
     Eigenvalues ---    0.44270
 RFO step:  Lambda=-6.78621755D-02 EMin= 8.27026166D-03
 Linear search not attempted -- first point.
 Maximum step size (   0.300) exceeded in Quadratic search.
    -- Step size scaled by   0.868
 Iteration  1 RMS(Cart)=  0.16645074 RMS(Int)=  0.09308873
 Iteration  2 RMS(Cart)=  0.07244156 RMS(Int)=  0.00753349
 Iteration  3 RMS(Cart)=  0.00711997 RMS(Int)=  0.00006157
 Iteration  4 RMS(Cart)=  0.00004625 RMS(Int)=  0.00000000
 Iteration  5 RMS(Cart)=  0.00000000 RMS(Int)=  0.00000000
 ITry= 1 IFail=0 DXMaxC= 2.61D-01 DCOld= 1.00D+10 DXMaxT= 3.00D-01 DXLimC= 3.00D+00 Rises=F
 ClnCor:  largest displacement from symmetrization is 1.04D-08 for atom     3.
 Variable       Old X    -DE/DX   Delta X   Delta X   Delta X     New X
                                 (Linear)    (Quad)   (Total)
    R1        1.92833   0.01314   0.00000   0.02234   0.02234   1.95067
    R2        2.71244  -0.14951   0.00000  -0.27611  -0.27611   2.43633
    R3        1.92833   0.01314   0.00000   0.02234   0.02234   1.95067
    A1        1.95551  -0.01960   0.00000  -0.07468  -0.07468   1.88084
    A2        1.95551  -0.01960   0.00000  -0.07468  -0.07468   1.88084
    D1        0.46458  -0.03520   0.00000  -0.40140  -0.40140   0.06317
         Item               Value     Threshold  Converged?
 Maximum Force            0.149508     0.000450     NO 
 RMS     Force            0.064167     0.000300     NO 
 Maximum Displacement     0.260645     0.001800     NO 
 RMS     Displacement     0.223785     0.001200     NO 
 Predicted change in Energy=-4.180858D-02
 Lowest energy point so far.  Saving SCF results.
 GradGradGradGradGradGradGradGradGradGradGradGradGradGradGradGradGradGrad

 Leave Link  103 at Fri May 10 16:11:31 2019, MaxMem=   104857600 cpu:               0.1 elap:               0.0
 (Enter /opt/software/gaussian/g16.b01/l202.exe)
                          Input orientation:                          
 ---------------------------------------------------------------------
 Center     Atomic      Atomic             Coordinates (Angstroms)
 Number     Number       Type             X           Y           Z
 ---------------------------------------------------------------------
      1          7           0       -0.623751    0.107914    0.162717
      2          1           0       -0.920654   -0.874632    0.272224
      3          7           0        0.623751    0.107924   -0.162711
      4          1           0        0.920654   -0.874616   -0.272274
 ---------------------------------------------------------------------
                    Distance matrix (angstroms):
                    1          2          3          4
     1  N    0.000000
     2  H    1.032250   0.000000
     3  N    1.289250   1.881428   0.000000
     4  H    1.881428   1.920128   1.032250   0.000000
 Stoichiometry    H2N2
 Framework group  C2[X(H2N2)]
 Deg. of freedom     4
 Full point group                 C2      NOp   2
 RotChk:  IX=3 Diff= 1.59D-01
 Largest Abelian subgroup         C2      NOp   2
 Largest concise Abelian subgroup C2      NOp   2
                         Standard orientation:                         
 ---------------------------------------------------------------------
 Center     Atomic      Atomic             Coordinates (Angstroms)
 Number     Number       Type             X           Y           Z
 ---------------------------------------------------------------------
      1          7           0       -0.000000   -0.644625   -0.122818
      2          1           0       -0.031045   -0.959562    0.859725
      3          7           0        0.000000    0.644625   -0.122818
      4          1           0        0.031045    0.959562    0.859725
 ---------------------------------------------------------------------
 Rotational constants (GHZ):         278.1515392          37.4477156          33.0115468
 Leave Link  202 at Fri May 10 16:11:31 2019, MaxMem=   104857600 cpu:               0.1 elap:               0.0
 (Enter /opt/software/gaussian/g16.b01/l301.exe)
 Standard basis: 6-31G(d,p) (6D, 7F)
 Ernie: Thresh=  0.10000D-02 Tol=  0.10000D-05 Strict=F.
 There are    20 symmetry adapted cartesian basis functions of A   symmetry.
 There are    20 symmetry adapted cartesian basis functions of B   symmetry.
 There are    20 symmetry adapted basis functions of A   symmetry.
 There are    20 symmetry adapted basis functions of B   symmetry.
    40 basis functions,    70 primitive gaussians,    40 cartesian basis functions
     8 alpha electrons        8 beta electrons
       nuclear repulsion energy        31.5025259291 Hartrees.
 IExCor=  402 DFT=T Ex+Corr=B3LYP ExCW=0 ScaHFX=  0.200000
 ScaDFX=  0.800000  0.720000  1.000000  0.810000 ScalE2=  1.000000  1.000000
 IRadAn=      5 IRanWt=     -1 IRanGd=            0 ICorTp=0 IEmpDi=131
 NAtoms=    4 NActive=    4 NUniq=    2 SFac= 4.00D+00 NAtFMM=   60 NAOKFM=F Big=F
 Integral buffers will be    131072 words long.
 Raffenetti 2 integral format.
 Two-electron integral symmetry is turned on.
 R6Disp:  Grimme-D3 Dispersion energy=       -0.0001207917 Hartrees.
 Nuclear repulsion after empirical dispersion term =       31.5024051374 Hartrees.
 ------------------------------------------------------------------------------
 Polarizable Continuum Model (PCM)
 =================================
 Model                : PCM.
 Atomic radii         : UFF (Universal Force Field).
 Polarization charges : Total charges.
 Charge compensation  : None.
 Solution method      : On-the-fly selection.
 Cavity type          : Scaled VdW (van der Waals Surface) (Alpha=1.100).
 Cavity algorithm     : GePol (No added spheres)
                        Default sphere list used, NSphG=    4.
                        Lebedev-Laikov grids with approx.  5.0 points / Ang**2.
                        Smoothing algorithm: York/Karplus (Gamma=1.0000).
                        Polarization charges: spherical gaussians, with
                                              point-specific exponents (IZeta= 3).
                        Self-potential: point-specific (ISelfS= 7).
                        Self-field    : sphere-specific E.n sum rule (ISelfD= 2).
 1st derivatives      : Analytical E(r).r(x)/FMM algorithm (CHGder, D1EAlg=3).
                        Cavity 1st derivative terms included.
 Solvent              : Acetonitrile, Eps=  35.688000 Eps(inf)=   1.806874
 ------------------------------------------------------------------------------
 Spheres list:
 ISph  on   Nord     Re0    Alpha      Xe            Ye            Ze
    1   N      1    1.8300  1.100     -0.000000     -0.644625     -0.122818
    2   H      2    1.4430  1.100     -0.031045     -0.959562      0.859725
    3   N      3    1.8300  1.100      0.000000      0.644625     -0.122818
    4   H      4    1.4430  1.100      0.031045      0.959562      0.859725
 ------------------------------------------------------------------------------
 GePol: Number of generator spheres                  =       4
 GePol: Total number of spheres                      =       4
 GePol: Number of exposed spheres                    =       4 (100.00%)
 GePol: Number of points                             =     514
 GePol: Average weight of points                     =       0.14
 GePol: Minimum weight of points                     =   0.43D-04
 GePol: Maximum weight of points                     =    0.20212
 GePol: Number of points with low weight             =      22
 GePol: Fraction of low-weight points (<1% of avg)   =       4.28%
 GePol: Cavity surface area                          =     74.278 Ang**2
 GePol: Cavity volume                                =     56.561 Ang**3
 Leave Link  301 at Fri May 10 16:11:31 2019, MaxMem=   104857600 cpu:               0.2 elap:               0.1
 (Enter /opt/software/gaussian/g16.b01/l302.exe)
 NPDir=0 NMtPBC=     1 NCelOv=     1 NCel=       1 NClECP=     1 NCelD=      1
         NCelK=      1 NCelE2=     1 NClLst=     1 CellRange=     0.0.
 One-electron integrals computed using PRISM.
 One-electron integral symmetry used in STVInt
 NBasis=    40 RedAO= T EigKep=  7.28D-03  NBF=    20    20
 NBsUse=    40 1.00D-06 EigRej= -1.00D+00 NBFU=    20    20
 Precomputing XC quadrature grid using
 IXCGrd= 4 IRadAn=           5 IRanWt=          -1 IRanGd=           0 AccXCQ= 0.00D+00.
 Generated NRdTot=       0 NPtTot=           0 NUsed=           0 NTot=          32
 NSgBfM=    40    40    40    40    40 MxSgAt=     4 MxSgA2=     4.
 Leave Link  302 at Fri May 10 16:11:31 2019, MaxMem=   104857600 cpu:               0.2 elap:               0.1
 (Enter /opt/software/gaussian/g16.b01/l303.exe)
 DipDrv:  MaxL=1.
 Leave Link  303 at Fri May 10 16:11:32 2019, MaxMem=   104857600 cpu:               0.1 elap:               0.0
 (Enter /opt/software/gaussian/g16.b01/l401.exe)
 Initial guess from the checkpoint file:  "B-cis.chk"
 B after Tr=    -0.000000   -0.000000   -0.000000
         Rot=    0.999794   -0.000000    0.000000   -0.020302 Ang=  -2.33 deg.
 Guess basis will be translated and rotated to current coordinates.
 JPrj=2 DoOrth=T DoCkMO=T.
 Initial guess orbital symmetries:
       Occupied  (A) (B) (A) (B) (A) (B) (A) (B)
       Virtual   (A) (A) (B) (B) (B) (B) (A) (A) (A) (A) (B) (B)
                 (A) (B) (B) (A) (B) (A) (B) (A) (A) (A) (B) (B)
                 (A) (A) (B) (B) (A) (B) (A) (B)
 The electronic state of the initial guess is 1-A.
 Generating alternative initial guess.
 ExpMin= 1.61D-01 ExpMax= 4.17D+03 ExpMxC= 6.27D+02 IAcc=3 IRadAn=         5 AccDes= 0.00D+00
 Harris functional with IExCor=  402 and IRadAn=       5 diagonalized for initial guess.
 HarFok:  IExCor=  402 AccDes= 0.00D+00 IRadAn=         5 IDoV= 1 UseB2=F ITyADJ=14
 ICtDFT=  3500011 ScaDFX=  1.000000  1.000000  1.000000  1.000000
 FoFCou: FMM=F IPFlag=           0 FMFlag=      100000 FMFlg1=           0
         NFxFlg=           0 DoJE=T BraDBF=F KetDBF=T FulRan=T
         wScrn=  0.000000 ICntrl=       500 IOpCl=  0 I1Cent=   200000004 NGrid=           0
         NMat0=    1 NMatS0=      1 NMatT0=    0 NMatD0=    1 NMtDS0=    0 NMtDT0=    0
 Petite list used in FoFCou.
 Harris En= -110.613776799741    
 Leave Link  401 at Fri May 10 16:11:32 2019, MaxMem=   104857600 cpu:               0.5 elap:               0.3
 (Enter /opt/software/gaussian/g16.b01/l502.exe)
 Keep R1 ints in memory in symmetry-blocked form, NReq=2067516.
 FoFCou: FMM=F IPFlag=           0 FMFlag=           0 FMFlg1=           0
         NFxFlg=           0 DoJE=F BraDBF=F KetDBF=F FulRan=T
         wScrn=  0.000000 ICntrl=       600 IOpCl=  0 I1Cent=           0 NGrid=           0
         NMat0=    1 NMatS0=    820 NMatT0=    0 NMatD0=    1 NMtDS0=    0 NMtDT0=    0
 Petite list used in FoFCou.
 Closed shell SCF:
 Using DIIS extrapolation, IDIIS=  1040.
 NGot=   104857600 LenX=   104682964 LenY=   104680923
 Requested convergence on RMS density matrix=1.00D-08 within 128 cycles.
 Requested convergence on MAX density matrix=1.00D-06.
 Requested convergence on             energy=1.00D-06.
 No special actions if energy rises.

 Cycle   1  Pass 1  IDiag  1:
 Inv3:  Mode=1 IEnd=      792588.
 Iteration    1 A*A^-1 deviation from unit magnitude is 2.78D-15 for     13.
 Iteration    1 A*A^-1 deviation from orthogonality  is 1.55D-15 for    239    128.
 Iteration    1 A^-1*A deviation from unit magnitude is 3.00D-15 for     13.
 Iteration    1 A^-1*A deviation from orthogonality  is 1.67D-15 for    371     67.
 E= -110.622667762835    
 DIIS: error= 1.18D-02 at cycle   1 NSaved=   1.
 NSaved= 1 IEnMin= 1 EnMin= -110.622667762835     IErMin= 1 ErrMin= 1.18D-02
 ErrMax= 1.18D-02  0.00D+00 EMaxC= 1.00D-01 BMatC= 1.05D-02 BMatP= 1.05D-02
 IDIUse=3 WtCom= 8.82D-01 WtEn= 1.18D-01
 Coeff-Com:  0.100D+01
 Coeff-En:   0.100D+01
 Coeff:      0.100D+01
 Recover alternate guess density for next cycle.
 RMSDP=4.89D-03 MaxDP=3.75D-02              OVMax= 0.00D+00

 Cycle   2  Pass 1  IDiag  1:
 E= -110.623507311565     Delta-E=       -0.000839548729 Rises=F Damp=F
 DIIS: error= 2.51D-02 at cycle   2 NSaved=   2.
 NSaved= 2 IEnMin= 2 EnMin= -110.623507311565     IErMin= 1 ErrMin= 1.18D-02
 ErrMax= 2.51D-02  0.00D+00 EMaxC= 1.00D-01 BMatC= 1.78D-02 BMatP= 1.05D-02
 IDIUse=2 WtCom= 0.00D+00 WtEn= 1.00D+00
 Coeff-En:   0.430D+00 0.570D+00
 Coeff:      0.430D+00 0.570D+00
 Gap=     0.278 Goal=   None    Shift=    0.000
 RMSDP=4.03D-03 MaxDP=4.45D-02 DE=-8.40D-04 OVMax= 5.90D-02

 Cycle   3  Pass 1  IDiag  1:
 E= -110.635606658582     Delta-E=       -0.012099347017 Rises=F Damp=F
 DIIS: error= 1.01D-02 at cycle   3 NSaved=   3.
 NSaved= 3 IEnMin= 3 EnMin= -110.635606658582     IErMin= 3 ErrMin= 1.01D-02
 ErrMax= 1.01D-02  0.00D+00 EMaxC= 1.00D-01 BMatC= 3.16D-03 BMatP= 1.05D-02
 IDIUse=3 WtCom= 8.99D-01 WtEn= 1.01D-01
 Coeff-Com:  0.120D-01 0.277D+00 0.711D+00
 Coeff-En:   0.000D+00 0.331D-01 0.967D+00
 Coeff:      0.108D-01 0.252D+00 0.737D+00
 Gap=     0.193 Goal=   None    Shift=    0.000
 RMSDP=1.54D-03 MaxDP=1.71D-02 DE=-1.21D-02 OVMax= 2.00D-02

 Cycle   4  Pass 1  IDiag  1:
 E= -110.638300139439     Delta-E=       -0.002693480857 Rises=F Damp=F
 DIIS: error= 2.35D-03 at cycle   4 NSaved=   4.
 NSaved= 4 IEnMin= 4 EnMin= -110.638300139439     IErMin= 4 ErrMin= 2.35D-03
 ErrMax= 2.35D-03  0.00D+00 EMaxC= 1.00D-01 BMatC= 2.11D-04 BMatP= 3.16D-03
 IDIUse=3 WtCom= 9.76D-01 WtEn= 2.35D-02
 Coeff-Com:  0.207D-02 0.311D-01 0.236D+00 0.730D+00
 Coeff-En:   0.000D+00 0.000D+00 0.000D+00 0.100D+01
 Coeff:      0.202D-02 0.304D-01 0.231D+00 0.737D+00
 Gap=     0.194 Goal=   None    Shift=    0.000
 RMSDP=3.47D-04 MaxDP=3.90D-03 DE=-2.69D-03 OVMax= 4.67D-03

 Cycle   5  Pass 1  IDiag  1:
 E= -110.638489446563     Delta-E=       -0.000189307125 Rises=F Damp=F
 DIIS: error= 2.57D-04 at cycle   5 NSaved=   5.
 NSaved= 5 IEnMin= 5 EnMin= -110.638489446563     IErMin= 5 ErrMin= 2.57D-04
 ErrMax= 2.57D-04  0.00D+00 EMaxC= 1.00D-01 BMatC= 2.82D-06 BMatP= 2.11D-04
 IDIUse=3 WtCom= 9.97D-01 WtEn= 2.57D-03
 Coeff-Com: -0.210D-02-0.135D-03 0.298D-01 0.179D+00 0.793D+00
 Coeff-En:   0.000D+00 0.000D+00 0.000D+00 0.000D+00 0.100D+01
 Coeff:     -0.209D-02-0.134D-03 0.297D-01 0.179D+00 0.794D+00
 Gap=     0.194 Goal=   None    Shift=    0.000
 RMSDP=3.10D-05 MaxDP=2.81D-04 DE=-1.89D-04 OVMax= 3.98D-04

 Cycle   6  Pass 1  IDiag  1:
 E= -110.638491772472     Delta-E=       -0.000002325909 Rises=F Damp=F
 DIIS: error= 4.86D-06 at cycle   6 NSaved=   6.
 NSaved= 6 IEnMin= 6 EnMin= -110.638491772472     IErMin= 6 ErrMin= 4.86D-06
 ErrMax= 4.86D-06  0.00D+00 EMaxC= 1.00D-01 BMatC= 1.08D-09 BMatP= 2.82D-06
 IDIUse=1 WtCom= 1.00D+00 WtEn= 0.00D+00
 Coeff-Com: -0.360D-04-0.149D-03-0.912D-03-0.216D-02 0.293D-02 0.100D+01
 Coeff:     -0.360D-04-0.149D-03-0.912D-03-0.216D-02 0.293D-02 0.100D+01
 Gap=     0.194 Goal=   None    Shift=    0.000
 RMSDP=1.58D-06 MaxDP=9.71D-06 DE=-2.33D-06 OVMax= 3.44D-05

 Cycle   7  Pass 1  IDiag  1:
 E= -110.638491775045     Delta-E=       -0.000000002573 Rises=F Damp=F
 DIIS: error= 6.64D-07 at cycle   7 NSaved=   7.
 NSaved= 7 IEnMin= 7 EnMin= -110.638491775045     IErMin= 7 ErrMin= 6.64D-07
 ErrMax= 6.64D-07  0.00D+00 EMaxC= 1.00D-01 BMatC= 2.52D-11 BMatP= 1.08D-09
 IDIUse=1 WtCom= 1.00D+00 WtEn= 0.00D+00
 Coeff-Com:  0.132D-04 0.780D-05-0.241D-03-0.158D-02-0.877D-02-0.273D-01
 Coeff-Com:  0.104D+01
 Coeff:      0.132D-04 0.780D-05-0.241D-03-0.158D-02-0.877D-02-0.273D-01
 Coeff:      0.104D+01
 Gap=     0.194 Goal=   None    Shift=    0.000
 RMSDP=2.61D-07 MaxDP=1.82D-06 DE=-2.57D-09 OVMax= 7.18D-06

 Cycle   8  Pass 1  IDiag  1:
 E= -110.638491775107     Delta-E=       -0.000000000062 Rises=F Damp=F
 DIIS: error= 9.07D-08 at cycle   8 NSaved=   8.
 NSaved= 8 IEnMin= 8 EnMin= -110.638491775107     IErMin= 8 ErrMin= 9.07D-08
 ErrMax= 9.07D-08  0.00D+00 EMaxC= 1.00D-01 BMatC= 5.26D-13 BMatP= 2.52D-11
 IDIUse=1 WtCom= 1.00D+00 WtEn= 0.00D+00
 Coeff-Com:  0.313D-07 0.207D-05 0.514D-05-0.117D-05-0.182D-03-0.127D-01
 Coeff-Com:  0.337D-01 0.979D+00
 Coeff:      0.313D-07 0.207D-05 0.514D-05-0.117D-05-0.182D-03-0.127D-01
 Coeff:      0.337D-01 0.979D+00
 Gap=     0.194 Goal=   None    Shift=    0.000
 RMSDP=3.41D-08 MaxDP=2.78D-07 DE=-6.23D-11 OVMax= 8.90D-07

 Cycle   9  Pass 1  IDiag  1:
 E= -110.638491775108     Delta-E=       -0.000000000001 Rises=F Damp=F
 DIIS: error= 2.14D-08 at cycle   9 NSaved=   9.
 NSaved= 9 IEnMin= 9 EnMin= -110.638491775108     IErMin= 9 ErrMin= 2.14D-08
 ErrMax= 2.14D-08  0.00D+00 EMaxC= 1.00D-01 BMatC= 3.11D-14 BMatP= 5.26D-13
 IDIUse=1 WtCom= 1.00D+00 WtEn= 0.00D+00
 Coeff-Com: -0.311D-06 0.155D-07 0.946D-05 0.556D-04 0.309D-03-0.699D-03
 Coeff-Com: -0.354D-01 0.145D+00 0.890D+00
 Coeff:     -0.311D-06 0.155D-07 0.946D-05 0.556D-04 0.309D-03-0.699D-03
 Coeff:     -0.354D-01 0.145D+00 0.890D+00
 Gap=     0.194 Goal=   None    Shift=    0.000
 RMSDP=7.65D-09 MaxDP=5.62D-08 DE=-1.38D-12 OVMax= 2.12D-07

 Error on total polarization charges =  0.00296
 SCF Done:  E(RB3LYP) =  -110.638491775     A.U. after    9 cycles
            NFock=  9  Conv=0.77D-08     -V/T= 2.0100
 KE= 1.095409594911D+02 PE=-3.212794335420D+02 EE= 6.959757713847D+01
 Leave Link  502 at Fri May 10 16:11:33 2019, MaxMem=   104857600 cpu:               3.2 elap:               1.6
 (Enter /opt/software/gaussian/g16.b01/l701.exe)
 ... and contract with generalized density number  0.
 Compute integral first derivatives.
 R6Disp: Adding Grimme-D3 dispersion energy 1st derivatives to the gradient.
 D1PCM: PCM CHGder 1st derivatives, ID1Alg=3 FixD1E=F DoIter=F DoCFld=F I1PDM=0.
 GePol: Maximum number of non-zero 1st derivatives   =     239
 Leave Link  701 at Fri May 10 16:11:34 2019, MaxMem=   104857600 cpu:               0.9 elap:               0.5
 (Enter /opt/software/gaussian/g16.b01/l702.exe)
 L702 exits ... SP integral derivatives will be done elsewhere.
 Leave Link  702 at Fri May 10 16:11:34 2019, MaxMem=   104857600 cpu:               0.1 elap:               0.0
 (Enter /opt/software/gaussian/g16.b01/l703.exe)
 Integral derivatives from FoFJK, PRISM(SPDF).
 Compute integral first derivatives, UseDBF=F ICtDFT=           0.
 Calling FoFJK, ICntrl=      2127 FMM=F ISym2X=1 I1Cent= 0 IOpClX= 0 NMat=1 NMatS=1 NMatT=0.
 FoFJK:  IHMeth= 1 ICntrl=    2127 DoSepK=F KAlg= 0 I1Cent=           0 FoldK=F
 IRaf=         0 NMat=       1 IRICut=       1 DoRegI=T DoRafI=F ISym2E= 1 IDoP0=0 IntGTp=1.
 FoFCou: FMM=F IPFlag=           0 FMFlag=      100000 FMFlg1=         800
         NFxFlg=           0 DoJE=F BraDBF=F KetDBF=F FulRan=T
         wScrn=  0.000000 ICntrl=      2127 IOpCl=  0 I1Cent=           0 NGrid=           0
         NMat0=    1 NMatS0=      1 NMatT0=    0 NMatD0=    1 NMtDS0=    0 NMtDT0=    0
 Petite list used in FoFCou.
 Leave Link  703 at Fri May 10 16:11:34 2019, MaxMem=   104857600 cpu:               0.6 elap:               0.3
 (Enter /opt/software/gaussian/g16.b01/l716.exe)
 Dipole        = 6.24500451D-17 2.22044605D-16 1.36179945D+00
 ***** Axes restored to original set *****
 -------------------------------------------------------------------
 Center     Atomic                   Forces (Hartrees/Bohr)
 Number     Number              X              Y              Z
 -------------------------------------------------------------------
      1        7           0.053340763    0.000589332   -0.009022283
      2        1          -0.009666134   -0.000589057   -0.000407813
      3        7          -0.053340763    0.000588804    0.009022317
      4        1           0.009666134   -0.000589079    0.000407779
 -------------------------------------------------------------------
 Cartesian Forces:  Max     0.053340763 RMS     0.022438558
 Leave Link  716 at Fri May 10 16:11:34 2019, MaxMem=   104857600 cpu:               0.1 elap:               0.0
 (Enter /opt/software/gaussian/g16.b01/l103.exe)

 GradGradGradGradGradGradGradGradGradGradGradGradGradGradGradGradGradGrad
 Berny optimization.
 Using GEDIIS/GDIIS optimizer.
 FormGI is forming the generalized inverse of G from B-inverse, IUseBI=4.
 Internal  Forces:  Max     0.044639663 RMS     0.020871125
 Search for a local minimum.
 Step number   2 out of a maximum of   20
 All quantities printed in internal units (Hartrees-Bohrs-Radians)
 RMS Force = .20871D-01 SwitMx=.10000D-02 MixMth= 1
 Mixed Optimization -- RFO/linear search
 Update second derivatives using D2CorX and points    1    2
 DE= -3.90D-02 DEPred=-4.18D-02 R= 9.33D-01
 TightC=F SS=  1.41D+00  RLast= 5.00D-01 DXNew= 5.0454D-01 1.4985D+00
 Trust test= 9.33D-01 RLast= 5.00D-01 DXMaxT set to 5.05D-01
 The second derivative matrix:
                          R1        R2        R3        A1        A2
           R1           0.44191
           R2           0.01006   0.27670
           R3          -0.00079   0.01006   0.44191
           A1          -0.00421   0.04295  -0.00421   0.18426
           A2          -0.00421   0.04295  -0.00421   0.02426   0.18426
           D1          -0.00531   0.05606  -0.00531   0.02209   0.02209
                          D1
           D1           0.02696
 ITU=  1  0
 Use linear search instead of GDIIS.
     Eigenvalues ---    0.01299   0.16000   0.17221   0.32569   0.44242
     Eigenvalues ---    0.44270
 RFO step:  Lambda=-1.13663549D-02 EMin= 1.29913212D-02
 Quartic linear search produced a step of  0.16388.
 Iteration  1 RMS(Cart)=  0.09937635 RMS(Int)=  0.01660560
 Iteration  2 RMS(Cart)=  0.01310859 RMS(Int)=  0.00015320
 Iteration  3 RMS(Cart)=  0.00014720 RMS(Int)=  0.00000001
 Iteration  4 RMS(Cart)=  0.00000002 RMS(Int)=  0.00000000
 ITry= 1 IFail=0 DXMaxC= 1.09D-01 DCOld= 1.00D+10 DXMaxT= 5.05D-01 DXLimC= 3.00D+00 Rises=F
 ClnCor:  largest displacement from symmetrization is 1.53D-10 for atom     4.
 Variable       Old X    -DE/DX   Delta X   Delta X   Delta X     New X
                                 (Linear)    (Quad)   (Total)
    R1        1.95067   0.00330   0.00366   0.01223   0.01589   1.96656
    R2        2.43633  -0.04464  -0.04525  -0.17058  -0.21583   2.22050
    R3        1.95067   0.00330   0.00366   0.01223   0.01589   1.96656
    A1        1.88084   0.01689  -0.01224   0.11418   0.10194   1.98278
    A2        1.88084   0.01689  -0.01224   0.11418   0.10194   1.98278
    D1        0.06317  -0.00536  -0.06578   0.29487   0.22909   0.29226
         Item               Value     Threshold  Converged?
 Maximum Force            0.044640     0.000450     NO 
 RMS     Force            0.020871     0.000300     NO 
 Maximum Displacement     0.109024     0.001800     NO 
 RMS     Displacement     0.108666     0.001200     NO 
 Predicted change in Energy=-6.289449D-03
 Lowest energy point so far.  Saving SCF results.
 GradGradGradGradGradGradGradGradGradGradGradGradGradGradGradGradGradGrad

 Leave Link  103 at Fri May 10 16:11:34 2019, MaxMem=   104857600 cpu:               0.0 elap:               0.0
 (Enter /opt/software/gaussian/g16.b01/l202.exe)
                          Input orientation:                          
 ---------------------------------------------------------------------
 Center     Atomic      Atomic             Coordinates (Angstroms)
 Number     Number       Type             X           Y           Z
 ---------------------------------------------------------------------
      1          7           0       -0.578057    0.088354    0.105025
      2          1           0       -0.963234   -0.855072    0.316101
      3          7           0        0.578057    0.088360   -0.105019
      4          1           0        0.963235   -0.855053   -0.316150
 ---------------------------------------------------------------------
                    Distance matrix (angstroms):
                    1          2          3          4
     1  N    0.000000
     2  H    1.040657   0.000000
     3  N    1.175040   1.855529   0.000000
     4  H    1.855529   2.027566   1.040657   0.000000
 Stoichiometry    H2N2
 Framework group  C2[X(H2N2)]
 Deg. of freedom     4
 Full point group                 C2      NOp   2
 RotChk:  IX=3 Diff= 1.07D-01
 Largest Abelian subgroup         C2      NOp   2
 Largest concise Abelian subgroup C2      NOp   2
                         Standard orientation:                         
 ---------------------------------------------------------------------
 Center     Atomic      Atomic             Coordinates (Angstroms)
 Number     Number       Type             X           Y           Z
 ---------------------------------------------------------------------
      1          7           0       -0.000000   -0.587520   -0.117927
      2          1           0       -0.138851   -1.004229    0.825492
      3          7           0        0.000000    0.587520   -0.117927
      4          1           0        0.138851    1.004229    0.825492
 ---------------------------------------------------------------------
 Rotational constants (GHZ):         296.2965716          43.0521880          37.7705935
 Leave Link  202 at Fri May 10 16:11:34 2019, MaxMem=   104857600 cpu:               0.1 elap:               0.0
 (Enter /opt/software/gaussian/g16.b01/l301.exe)
 Standard basis: 6-31G(d,p) (6D, 7F)
 Ernie: Thresh=  0.10000D-02 Tol=  0.10000D-05 Strict=F.
 There are    20 symmetry adapted cartesian basis functions of A   symmetry.
 There are    20 symmetry adapted cartesian basis functions of B   symmetry.
 There are    20 symmetry adapted basis functions of A   symmetry.
 There are    20 symmetry adapted basis functions of B   symmetry.
    40 basis functions,    70 primitive gaussians,    40 cartesian basis functions
     8 alpha electrons        8 beta electrons
       nuclear repulsion energy        33.4397484735 Hartrees.
 IExCor=  402 DFT=T Ex+Corr=B3LYP ExCW=0 ScaHFX=  0.200000
 ScaDFX=  0.800000  0.720000  1.000000  0.810000 ScalE2=  1.000000  1.000000
 IRadAn=      5 IRanWt=     -1 IRanGd=            0 ICorTp=0 IEmpDi=131
 NAtoms=    4 NActive=    4 NUniq=    2 SFac= 4.00D+00 NAtFMM=   60 NAOKFM=F Big=F
 Integral buffers will be    131072 words long.
 Raffenetti 2 integral format.
 Two-electron integral symmetry is turned on.
 R6Disp:  Grimme-D3 Dispersion energy=       -0.0001357163 Hartrees.
 Nuclear repulsion after empirical dispersion term =       33.4396127572 Hartrees.
 ------------------------------------------------------------------------------
 Polarizable Continuum Model (PCM)
 =================================
 Model                : PCM.
 Atomic radii         : UFF (Universal Force Field).
 Polarization charges : Total charges.
 Charge compensation  : None.
 Solution method      : On-the-fly selection.
 Cavity type          : Scaled VdW (van der Waals Surface) (Alpha=1.100).
 Cavity algorithm     : GePol (No added spheres)
                        Default sphere list used, NSphG=    4.
                        Lebedev-Laikov grids with approx.  5.0 points / Ang**2.
                        Smoothing algorithm: York/Karplus (Gamma=1.0000).
                        Polarization charges: spherical gaussians, with
                                              point-specific exponents (IZeta= 3).
                        Self-potential: point-specific (ISelfS= 7).
                        Self-field    : sphere-specific E.n sum rule (ISelfD= 2).
 1st derivatives      : Analytical E(r).r(x)/FMM algorithm (CHGder, D1EAlg=3).
                        Cavity 1st derivative terms included.
 Solvent              : Acetonitrile, Eps=  35.688000 Eps(inf)=   1.806874
 ------------------------------------------------------------------------------
 Spheres list:
 ISph  on   Nord     Re0    Alpha      Xe            Ye            Ze
    1   N      1    1.8300  1.100     -0.000000     -0.587520     -0.117927
    2   H      2    1.4430  1.100     -0.138851     -1.004229      0.825492
    3   N      3    1.8300  1.100      0.000000      0.587520     -0.117927
    4   H      4    1.4430  1.100      0.138851      1.004229      0.825492
 ------------------------------------------------------------------------------
 GePol: Number of generator spheres                  =       4
 GePol: Total number of spheres                      =       4
 GePol: Number of exposed spheres                    =       4 (100.00%)
 GePol: Number of points                             =     512
 GePol: Average weight of points                     =       0.14
 GePol: Minimum weight of points                     =   0.12D-11
 GePol: Maximum weight of points                     =    0.20212
 GePol: Number of points with low weight             =      22
 GePol: Fraction of low-weight points (<1% of avg)   =       4.30%
 GePol: Cavity surface area                          =     73.218 Ang**2
 GePol: Cavity volume                                =     55.447 Ang**3
 Leave Link  301 at Fri May 10 16:11:35 2019, MaxMem=   104857600 cpu:               0.2 elap:               0.1
 (Enter /opt/software/gaussian/g16.b01/l302.exe)
 NPDir=0 NMtPBC=     1 NCelOv=     1 NCel=       1 NClECP=     1 NCelD=      1
         NCelK=      1 NCelE2=     1 NClLst=     1 CellRange=     0.0.
 One-electron integrals computed using PRISM.
 One-electron integral symmetry used in STVInt
 NBasis=    40 RedAO= T EigKep=  5.17D-03  NBF=    20    20
 NBsUse=    40 1.00D-06 EigRej= -1.00D+00 NBFU=    20    20
 Precomputing XC quadrature grid using
 IXCGrd= 4 IRadAn=           5 IRanWt=          -1 IRanGd=           0 AccXCQ= 0.00D+00.
 Generated NRdTot=       0 NPtTot=           0 NUsed=           0 NTot=          32
 NSgBfM=    40    40    40    40    40 MxSgAt=     4 MxSgA2=     4.
 Leave Link  302 at Fri May 10 16:11:35 2019, MaxMem=   104857600 cpu:               0.2 elap:               0.1
 (Enter /opt/software/gaussian/g16.b01/l303.exe)
 DipDrv:  MaxL=1.
 Leave Link  303 at Fri May 10 16:11:35 2019, MaxMem=   104857600 cpu:               0.1 elap:               0.0
 (Enter /opt/software/gaussian/g16.b01/l401.exe)
 Initial guess from the checkpoint file:  "B-cis.chk"
 B after Tr=     0.000000    0.000000    0.000000
         Rot=    0.999901    0.000000   -0.000000    0.014096 Ang=   1.62 deg.
 Guess basis will be translated and rotated to current coordinates.
 JPrj=2 DoOrth=T DoCkMO=T.
 Initial guess orbital symmetries:
       Occupied  (A) (B) (A) (B) (A) (B) (A) (B)
       Virtual   (A) (A) (B) (B) (A) (B) (A) (B) (A) (A) (B) (B)
                 (A) (B) (B) (A) (B) (A) (B) (A) (A) (B) (A) (B)
                 (A) (A) (B) (B) (A) (B) (A) (B)
 The electronic state of the initial guess is 1-A.
 Generating alternative initial guess.
 ExpMin= 1.61D-01 ExpMax= 4.17D+03 ExpMxC= 6.27D+02 IAcc=3 IRadAn=         5 AccDes= 0.00D+00
 Harris functional with IExCor=  402 and IRadAn=       5 diagonalized for initial guess.
 HarFok:  IExCor=  402 AccDes= 0.00D+00 IRadAn=         5 IDoV= 1 UseB2=F ITyADJ=14
 ICtDFT=  3500011 ScaDFX=  1.000000  1.000000  1.000000  1.000000
 FoFCou: FMM=F IPFlag=           0 FMFlag=      100000 FMFlg1=           0
         NFxFlg=           0 DoJE=T BraDBF=F KetDBF=T FulRan=T
         wScrn=  0.000000 ICntrl=       500 IOpCl=  0 I1Cent=   200000004 NGrid=           0
         NMat0=    1 NMatS0=      1 NMatT0=    0 NMatD0=    1 NMtDS0=    0 NMtDT0=    0
 Petite list used in FoFCou.
 Harris En= -110.608730734983    
 Leave Link  401 at Fri May 10 16:11:35 2019, MaxMem=   104857600 cpu:               0.5 elap:               0.3
 (Enter /opt/software/gaussian/g16.b01/l502.exe)
 Keep R1 ints in memory in symmetry-blocked form, NReq=2067516.
 FoFCou: FMM=F IPFlag=           0 FMFlag=           0 FMFlg1=           0
         NFxFlg=           0 DoJE=F BraDBF=F KetDBF=F FulRan=T
         wScrn=  0.000000 ICntrl=       600 IOpCl=  0 I1Cent=           0 NGrid=           0
         NMat0=    1 NMatS0=    820 NMatT0=    0 NMatD0=    1 NMtDS0=    0 NMtDT0=    0
 Petite list used in FoFCou.
 Closed shell SCF:
 Using DIIS extrapolation, IDIIS=  1040.
 NGot=   104857600 LenX=   104682964 LenY=   104680923
 Requested convergence on RMS density matrix=1.00D-08 within 128 cycles.
 Requested convergence on MAX density matrix=1.00D-06.
 Requested convergence on             energy=1.00D-06.
 No special actions if energy rises.

 Cycle   1  Pass 1  IDiag  1:
 Inv3:  Mode=1 IEnd=      786432.
 Iteration    1 A*A^-1 deviation from unit magnitude is 2.44D-15 for    217.
 Iteration    1 A*A^-1 deviation from orthogonality  is 2.44D-15 for    195     98.
 Iteration    1 A^-1*A deviation from unit magnitude is 2.44D-15 for    217.
 Iteration    1 A^-1*A deviation from orthogonality  is 1.03D-15 for    380     60.
 E= -110.619471768528    
 DIIS: error= 1.22D-02 at cycle   1 NSaved=   1.
 NSaved= 1 IEnMin= 1 EnMin= -110.619471768528     IErMin= 1 ErrMin= 1.22D-02
 ErrMax= 1.22D-02  0.00D+00 EMaxC= 1.00D-01 BMatC= 7.80D-03 BMatP= 7.80D-03
 IDIUse=3 WtCom= 8.78D-01 WtEn= 1.22D-01
 Coeff-Com:  0.100D+01
 Coeff-En:   0.100D+01
 Coeff:      0.100D+01
 Recover alternate guess density for next cycle.
 RMSDP=4.75D-03 MaxDP=4.02D-02              OVMax= 0.00D+00

 Cycle   2  Pass 1  IDiag  1:
 E= -110.606502137539     Delta-E=        0.012969630989 Rises=F Damp=F
 Switch densities from cycles 1 and 2 for lowest energy.
 DIIS: error= 3.19D-02 at cycle   2 NSaved=   2.
 NSaved= 2 IEnMin= 1 EnMin= -110.619471768528     IErMin= 1 ErrMin= 1.22D-02
 ErrMax= 3.19D-02  0.00D+00 EMaxC= 1.00D+00 BMatC= 2.78D-02 BMatP= 7.80D-03
 IDIUse=1 WtCom= 1.00D+00 WtEn= 0.00D+00
 Coeff-Com:  0.728D+00 0.272D+00
 Coeff:      0.728D+00 0.272D+00
 Gap=     0.221 Goal=   None    Shift=    0.000
 RMSDP=4.24D-03 MaxDP=3.27D-02 DE= 1.30D-02 OVMax= 4.29D-02

 Cycle   3  Pass 1  IDiag  1:
 E= -110.630309403146     Delta-E=       -0.023807265608 Rises=F Damp=F
 DIIS: error= 5.61D-03 at cycle   3 NSaved=   3.
 NSaved= 3 IEnMin= 3 EnMin= -110.630309403146     IErMin= 3 ErrMin= 5.61D-03
 ErrMax= 5.61D-03  0.00D+00 EMaxC= 1.00D+00 BMatC= 8.65D-04 BMatP= 7.80D-03
 IDIUse=1 WtCom= 1.00D+00 WtEn= 0.00D+00
 Coeff-Com: -0.143D-01 0.140D+00 0.874D+00
 Coeff:     -0.143D-01 0.140D+00 0.874D+00
 Gap=     0.189 Goal=   None    Shift=    0.000
 RMSDP=7.13D-04 MaxDP=7.63D-03 DE=-2.38D-02 OVMax= 9.03D-03

 Cycle   4  Pass 1  IDiag  1:
 E= -110.631091970539     Delta-E=       -0.000782567393 Rises=F Damp=F
 DIIS: error= 5.63D-04 at cycle   4 NSaved=   4.
 NSaved= 4 IEnMin= 4 EnMin= -110.631091970539     IErMin= 4 ErrMin= 5.63D-04
 ErrMax= 5.63D-04  0.00D+00 EMaxC= 1.00D+00 BMatC= 1.31D-05 BMatP= 8.65D-04
 IDIUse=1 WtCom= 1.00D+00 WtEn= 0.00D+00
 Coeff-Com: -0.419D-02 0.355D-02 0.122D+00 0.879D+00
 Coeff:     -0.419D-02 0.355D-02 0.122D+00 0.879D+00
 Gap=     0.189 Goal=   None    Shift=    0.000
 RMSDP=9.89D-05 MaxDP=1.07D-03 DE=-7.83D-04 OVMax= 1.41D-03

 Cycle   5  Pass 1  IDiag  1:
 E= -110.631103907575     Delta-E=       -0.000011937036 Rises=F Damp=F
 DIIS: error= 7.62D-05 at cycle   5 NSaved=   5.
 NSaved= 5 IEnMin= 5 EnMin= -110.631103907575     IErMin= 5 ErrMin= 7.62D-05
 ErrMax= 7.62D-05  0.00D+00 EMaxC= 1.00D+00 BMatC= 3.12D-07 BMatP= 1.31D-05
 IDIUse=1 WtCom= 1.00D+00 WtEn= 0.00D+00
 Coeff-Com: -0.145D-02-0.252D-03 0.171D-01 0.220D+00 0.764D+00
 Coeff:     -0.145D-02-0.252D-03 0.171D-01 0.220D+00 0.764D+00
 Gap=     0.189 Goal=   None    Shift=    0.000
 RMSDP=1.09D-05 MaxDP=1.12D-04 DE=-1.19D-05 OVMax= 1.66D-04

 Cycle   6  Pass 1  IDiag  1:
 E= -110.631104164635     Delta-E=       -0.000000257060 Rises=F Damp=F
 DIIS: error= 3.58D-06 at cycle   6 NSaved=   6.
 NSaved= 6 IEnMin= 6 EnMin= -110.631104164635     IErMin= 6 ErrMin= 3.58D-06
 ErrMax= 3.58D-06  0.00D+00 EMaxC= 1.00D+00 BMatC= 6.52D-10 BMatP= 3.12D-07
 IDIUse=1 WtCom= 1.00D+00 WtEn= 0.00D+00
 Coeff-Com:  0.137D-04-0.597D-04-0.906D-03-0.973D-04 0.365D-01 0.965D+00
 Coeff:      0.137D-04-0.597D-04-0.906D-03-0.973D-04 0.365D-01 0.965D+00
 Gap=     0.189 Goal=   None    Shift=    0.000
 RMSDP=1.43D-06 MaxDP=9.88D-06 DE=-2.57D-07 OVMax= 2.10D-05

 Cycle   7  Pass 1  IDiag  1:
 E= -110.631104165682     Delta-E=       -0.000000001047 Rises=F Damp=F
 DIIS: error= 5.95D-07 at cycle   7 NSaved=   7.
 NSaved= 7 IEnMin= 7 EnMin= -110.631104165682     IErMin= 7 ErrMin= 5.95D-07
 ErrMax= 5.95D-07  0.00D+00 EMaxC= 1.00D+00 BMatC= 2.59D-11 BMatP= 6.52D-10
 IDIUse=1 WtCom= 1.00D+00 WtEn= 0.00D+00
 Coeff-Com:  0.187D-04 0.366D-05-0.371D-03-0.356D-02-0.116D-01 0.512D-01
 Coeff-Com:  0.964D+00
 Coeff:      0.187D-04 0.366D-05-0.371D-03-0.356D-02-0.116D-01 0.512D-01
 Coeff:      0.964D+00
 Gap=     0.189 Goal=   None    Shift=    0.000
 RMSDP=2.78D-07 MaxDP=2.50D-06 DE=-1.05D-09 OVMax= 2.98D-06

 Cycle   8  Pass 1  IDiag  1:
 E= -110.631104165717     Delta-E=       -0.000000000035 Rises=F Damp=F
 DIIS: error= 8.87D-08 at cycle   8 NSaved=   8.
 NSaved= 8 IEnMin= 8 EnMin= -110.631104165717     IErMin= 8 ErrMin= 8.87D-08
 ErrMax= 8.87D-08  0.00D+00 EMaxC= 1.00D+00 BMatC= 4.66D-13 BMatP= 2.59D-11
 IDIUse=1 WtCom= 1.00D+00 WtEn= 0.00D+00
 Coeff-Com:  0.246D-05 0.222D-05-0.187D-04-0.364D-03-0.217D-02-0.138D-01
 Coeff-Com:  0.113D+00 0.904D+00
 Coeff:      0.246D-05 0.222D-05-0.187D-04-0.364D-03-0.217D-02-0.138D-01
 Coeff:      0.113D+00 0.904D+00
 Gap=     0.189 Goal=   None    Shift=    0.000
 RMSDP=3.82D-08 MaxDP=2.94D-07 DE=-3.50D-11 OVMax= 9.07D-07

 Cycle   9  Pass 1  IDiag  1:
 E= -110.631104165718     Delta-E=       -0.000000000001 Rises=F Damp=F
 DIIS: error= 1.42D-08 at cycle   9 NSaved=   9.
 NSaved= 9 IEnMin= 9 EnMin= -110.631104165718     IErMin= 9 ErrMin= 1.42D-08
 ErrMax= 1.42D-08  0.00D+00 EMaxC= 1.00D+00 BMatC= 1.29D-14 BMatP= 4.66D-13
 IDIUse=1 WtCom= 1.00D+00 WtEn= 0.00D+00
 Coeff-Com: -0.341D-06-0.124D-06 0.739D-05 0.675D-04 0.238D-03-0.114D-02
 Coeff-Com: -0.255D-01 0.264D-01 0.100D+01
 Coeff:     -0.341D-06-0.124D-06 0.739D-05 0.675D-04 0.238D-03-0.114D-02
 Coeff:     -0.255D-01 0.264D-01 0.100D+01
 Gap=     0.189 Goal=   None    Shift=    0.000
 RMSDP=5.45D-09 MaxDP=4.67D-08 DE=-8.38D-13 OVMax= 1.22D-07

 Error on total polarization charges =  0.00309
 SCF Done:  E(RB3LYP) =  -110.631104166     A.U. after    9 cycles
            NFock=  9  Conv=0.55D-08     -V/T= 2.0067
 KE= 1.098904851169D+02 PE=-3.253458590480D+02 EE= 7.138465700806D+01
 Leave Link  502 at Fri May 10 16:11:37 2019, MaxMem=   104857600 cpu:               3.1 elap:               1.6
 (Enter /opt/software/gaussian/g16.b01/l701.exe)
 ... and contract with generalized density number  0.
 Compute integral first derivatives.
 R6Disp: Adding Grimme-D3 dispersion energy 1st derivatives to the gradient.
 D1PCM: PCM CHGder 1st derivatives, ID1Alg=3 FixD1E=F DoIter=F DoCFld=F I1PDM=0.
 GePol: Maximum number of non-zero 1st derivatives   =     230
 Leave Link  701 at Fri May 10 16:11:37 2019, MaxMem=   104857600 cpu:               0.9 elap:               0.5
 (Enter /opt/software/gaussian/g16.b01/l702.exe)
 L702 exits ... SP integral derivatives will be done elsewhere.
 Leave Link  702 at Fri May 10 16:11:37 2019, MaxMem=   104857600 cpu:               0.0 elap:               0.0
 (Enter /opt/software/gaussian/g16.b01/l703.exe)
 Integral derivatives from FoFJK, PRISM(SPDF).
 Compute integral first derivatives, UseDBF=F ICtDFT=           0.
 Calling FoFJK, ICntrl=      2127 FMM=F ISym2X=1 I1Cent= 0 IOpClX= 0 NMat=1 NMatS=1 NMatT=0.
 FoFJK:  IHMeth= 1 ICntrl=    2127 DoSepK=F KAlg= 0 I1Cent=           0 FoldK=F
 IRaf=         0 NMat=       1 IRICut=       1 DoRegI=T DoRafI=F ISym2E= 1 IDoP0=0 IntGTp=1.
 FoFCou: FMM=F IPFlag=           0 FMFlag=      100000 FMFlg1=         800
         NFxFlg=           0 DoJE=F BraDBF=F KetDBF=F FulRan=T
         wScrn=  0.000000 ICntrl=      2127 IOpCl=  0 I1Cent=           0 NGrid=           0
         NMat0=    1 NMatS0=      1 NMatT0=    0 NMatD0=    1 NMtDS0=    0 NMtDT0=    0
 Petite list used in FoFCou.
 Leave Link  703 at Fri May 10 16:11:37 2019, MaxMem=   104857600 cpu:               0.6 elap:               0.3
 (Enter /opt/software/gaussian/g16.b01/l716.exe)
 Dipole        = 2.22044605D-16-4.44089210D-16 1.28260175D+00
 ***** Axes restored to original set *****
 -------------------------------------------------------------------
 Center     Atomic                   Forces (Hartrees/Bohr)
 Number     Number              X              Y              Z
 -------------------------------------------------------------------
      1        7          -0.114275340    0.004889316    0.046327421
      2        1          -0.007387061   -0.004890285   -0.012977425
      3        7           0.114275339    0.004891999   -0.046327140
      4        1           0.007387061   -0.004891030    0.012977144
 -------------------------------------------------------------------
 Cartesian Forces:  Max     0.114275340 RMS     0.050786950
 Leave Link  716 at Fri May 10 16:11:37 2019, MaxMem=   104857600 cpu:               0.1 elap:               0.0
 (Enter /opt/software/gaussian/g16.b01/l103.exe)

 GradGradGradGradGradGradGradGradGradGradGradGradGradGradGradGradGradGrad
 Berny optimization.
 Using GEDIIS/GDIIS optimizer.
 FormGI is forming the generalized inverse of G from B-inverse, IUseBI=4.
 Internal  Forces:  Max     0.125658569 RMS     0.052621797
 Search for a local minimum.
 Step number   3 out of a maximum of   20
 All quantities printed in internal units (Hartrees-Bohrs-Radians)
 RMS Force = .52622D-01 SwitMx=.10000D-02 MixMth= 1
 Mixed Optimization -- RFO/linear search
 Update second derivatives using D2CorX and points    1    3    2
 DE=  7.39D-03 DEPred=-6.29D-03 R=-1.17D+00
 Trust test=-1.17D+00 RLast= 3.47D-01 DXMaxT set to 2.52D-01
 The second derivative matrix:
                          R1        R2        R3        A1        A2
           R1           0.44127
           R2           0.02412   0.81585
           R3          -0.00143   0.02412   0.44127
           A1          -0.00863   0.05960  -0.00863   0.16139
           A2          -0.00863   0.05960  -0.00863   0.00139   0.16139
           D1          -0.00552  -0.03114  -0.00552   0.02936   0.02936
                          D1
           D1           0.03683
 ITU= -1  1  0
 Use linear search instead of GDIIS.
     Eigenvalues ---    0.02054   0.16000   0.16569   0.43906   0.44270
     Eigenvalues ---    0.83001
 RFO step:  Lambda=-7.89805823D-03 EMin= 2.05391341D-02
 Quartic linear search produced a step of -0.65025.
 Iteration  1 RMS(Cart)=  0.13990950 RMS(Int)=  0.13412835
 Iteration  2 RMS(Cart)=  0.04885151 RMS(Int)=  0.05204940
 Iteration  3 RMS(Cart)=  0.03115211 RMS(Int)=  0.00177208
 Iteration  4 RMS(Cart)=  0.00212340 RMS(Int)=  0.00000350
 Iteration  5 RMS(Cart)=  0.00000356 RMS(Int)=  0.00000000
 Iteration  6 RMS(Cart)=  0.00000000 RMS(Int)=  0.00000000
 ITry= 1 IFail=0 DXMaxC= 2.58D-01 DCOld= 1.00D+10 DXMaxT= 2.52D-01 DXLimC= 3.00D+00 Rises=F
 ClnCor:  largest displacement from symmetrization is 7.42D-09 for atom     4.
 Variable       Old X    -DE/DX   Delta X   Delta X   Delta X     New X
                                 (Linear)    (Quad)   (Total)
    R1        1.96656   0.00454  -0.01033   0.01276   0.00243   1.96899
    R2        2.22050   0.12566   0.14034  -0.02945   0.11089   2.33140
    R3        1.96656   0.00454  -0.01033   0.01276   0.00243   1.96899
    A1        1.98278   0.00671  -0.06629   0.17270   0.10641   2.08919
    A2        1.98278   0.00671  -0.06629   0.17270   0.10641   2.08919
    D1        0.29226  -0.02633  -0.14896  -0.38770  -0.53667  -0.24441
         Item               Value     Threshold  Converged?
 Maximum Force            0.125659     0.000450     NO 
 RMS     Force            0.052622     0.000300     NO 
 Maximum Displacement     0.257734     0.001800     NO 
 RMS     Displacement     0.196869     0.001200     NO 
 Predicted change in Energy=-1.003386D-02
 GradGradGradGradGradGradGradGradGradGradGradGradGradGradGradGradGradGrad

 Leave Link  103 at Fri May 10 16:11:37 2019, MaxMem=   104857600 cpu:               0.1 elap:               0.0
 (Enter /opt/software/gaussian/g16.b01/l202.exe)
                          Input orientation:                          
 ---------------------------------------------------------------------
 Center     Atomic      Atomic             Coordinates (Angstroms)
 Number     Number       Type             X           Y           Z
 ---------------------------------------------------------------------
      1          7           0       -0.577514    0.065792    0.216786
      2          1           0       -1.099621   -0.832512    0.294904
      3          7           0        0.577514    0.065805   -0.216782
      4          1           0        1.099621   -0.832495   -0.294952
 ---------------------------------------------------------------------
                    Distance matrix (angstroms):
                    1          2          3          4
     1  N    0.000000
     2  H    1.041945   0.000000
     3  N    1.233722   1.970172   0.000000
     4  H    1.970172   2.276971   1.041945   0.000000
 Stoichiometry    H2N2
 Framework group  C2[X(H2N2)]
 Deg. of freedom     4
 Full point group                 C2      NOp   2
 RotChk:  IX=3 Diff= 2.53D-01
 Largest Abelian subgroup         C2      NOp   2
 Largest concise Abelian subgroup C2      NOp   2
                         Standard orientation:                         
 ---------------------------------------------------------------------
 Center     Atomic      Atomic             Coordinates (Angstroms)
 Number     Number       Type             X           Y           Z
 ---------------------------------------------------------------------
      1          7           0        0.000000   -0.616861   -0.112288
      2          1           0        0.110325   -1.133127    0.786014
      3          7           0       -0.000000    0.616861   -0.112288
      4          1           0       -0.110325    1.133127    0.786014
 ---------------------------------------------------------------------
 Rotational constants (GHZ):         328.7978303          38.0860115          34.2235433
 Leave Link  202 at Fri May 10 16:11:38 2019, MaxMem=   104857600 cpu:               0.0 elap:               0.0
 (Enter /opt/software/gaussian/g16.b01/l301.exe)
 Standard basis: 6-31G(d,p) (6D, 7F)
 Ernie: Thresh=  0.10000D-02 Tol=  0.10000D-05 Strict=F.
 There are    20 symmetry adapted cartesian basis functions of A   symmetry.
 There are    20 symmetry adapted cartesian basis functions of B   symmetry.
 There are    20 symmetry adapted basis functions of A   symmetry.
 There are    20 symmetry adapted basis functions of B   symmetry.
    40 basis functions,    70 primitive gaussians,    40 cartesian basis functions
     8 alpha electrons        8 beta electrons
       nuclear repulsion energy        32.1204121437 Hartrees.
 IExCor=  402 DFT=T Ex+Corr=B3LYP ExCW=0 ScaHFX=  0.200000
 ScaDFX=  0.800000  0.720000  1.000000  0.810000 ScalE2=  1.000000  1.000000
 IRadAn=      5 IRanWt=     -1 IRanGd=            0 ICorTp=0 IEmpDi=131
 NAtoms=    4 NActive=    4 NUniq=    2 SFac= 4.00D+00 NAtFMM=   60 NAOKFM=F Big=F
 Integral buffers will be    131072 words long.
 Raffenetti 2 integral format.
 Two-electron integral symmetry is turned on.
 R6Disp:  Grimme-D3 Dispersion energy=       -0.0002462678 Hartrees.
 Nuclear repulsion after empirical dispersion term =       32.1201658759 Hartrees.
 ------------------------------------------------------------------------------
 Polarizable Continuum Model (PCM)
 =================================
 Model                : PCM.
 Atomic radii         : UFF (Universal Force Field).
 Polarization charges : Total charges.
 Charge compensation  : None.
 Solution method      : On-the-fly selection.
 Cavity type          : Scaled VdW (van der Waals Surface) (Alpha=1.100).
 Cavity algorithm     : GePol (No added spheres)
                        Default sphere list used, NSphG=    4.
                        Lebedev-Laikov grids with approx.  5.0 points / Ang**2.
                        Smoothing algorithm: York/Karplus (Gamma=1.0000).
                        Polarization charges: spherical gaussians, with
                                              point-specific exponents (IZeta= 3).
                        Self-potential: point-specific (ISelfS= 7).
                        Self-field    : sphere-specific E.n sum rule (ISelfD= 2).
 1st derivatives      : Analytical E(r).r(x)/FMM algorithm (CHGder, D1EAlg=3).
                        Cavity 1st derivative terms included.
 Solvent              : Acetonitrile, Eps=  35.688000 Eps(inf)=   1.806874
 ------------------------------------------------------------------------------
 Spheres list:
 ISph  on   Nord     Re0    Alpha      Xe            Ye            Ze
    1   N      1    1.8300  1.100      0.000000     -0.616861     -0.112288
    2   H      2    1.4430  1.100      0.110325     -1.133127      0.786014
    3   N      3    1.8300  1.100     -0.000000      0.616861     -0.112288
    4   H      4    1.4430  1.100     -0.110325      1.133127      0.786014
 ------------------------------------------------------------------------------
 GePol: Number of generator spheres                  =       4
 GePol: Total number of spheres                      =       4
 GePol: Number of exposed spheres                    =       4 (100.00%)
 GePol: Number of points                             =     538
 GePol: Average weight of points                     =       0.14
 GePol: Minimum weight of points                     =   0.30D-09
 GePol: Maximum weight of points                     =    0.20212
 GePol: Number of points with low weight             =      36
 GePol: Fraction of low-weight points (<1% of avg)   =       6.69%
 GePol: Cavity surface area                          =     74.834 Ang**2
 GePol: Cavity volume                                =     56.492 Ang**3
 Leave Link  301 at Fri May 10 16:11:38 2019, MaxMem=   104857600 cpu:               0.2 elap:               0.1
 (Enter /opt/software/gaussian/g16.b01/l302.exe)
 NPDir=0 NMtPBC=     1 NCelOv=     1 NCel=       1 NClECP=     1 NCelD=      1
         NCelK=      1 NCelE2=     1 NClLst=     1 CellRange=     0.0.
 One-electron integrals computed using PRISM.
 One-electron integral symmetry used in STVInt
 NBasis=    40 RedAO= T EigKep=  6.66D-03  NBF=    20    20
 NBsUse=    40 1.00D-06 EigRej= -1.00D+00 NBFU=    20    20
 Precomputing XC quadrature grid using
[...]
                 8.02268086D-11-1.59296374D-08 1.53242133D+01
 Full mass-weighted force constant matrix:
 Low frequencies --- -111.3779  -71.6844   -0.0016   -0.0012    0.0004  106.2866
 Low frequencies --- 1279.7294 1375.4618 1562.6546
 Diagonal vibrational polarizability:
        0.0000000       1.3210101       0.2518753
 Harmonic frequencies (cm**-1), IR intensities (KM/Mole), Raman scattering
 activities (A**4/AMU), depolarization ratios for plane and unpolarized
 incident light, reduced masses (AMU), force constants (mDyne/A),
 and normal coordinates:
                      1                      2                      3
                      A                      A                      B
 Frequencies --   1279.7115              1375.4617              1562.6473
 Red. masses --      1.1880                 1.0296                 1.3209
 Frc consts  --      1.1462                 1.1477                 1.9004
 IR Inten    --      0.0000                 5.7956                97.5954
  Atom  AN      X      Y      Z        X      Y      Z        X      Y      Z
     1   7    -0.08  -0.00   0.00     0.00  -0.02  -0.02    -0.00  -0.05  -0.10
     2   1     0.70   0.00  -0.00    -0.00   0.66   0.24     0.00   0.67   0.21
     3   7     0.08   0.00   0.00    -0.00   0.02  -0.02    -0.00  -0.05   0.10
     4   1    -0.70  -0.00  -0.00     0.00  -0.66   0.24     0.00   0.67  -0.21
                      4                      5                      6
                      A                      B                      A
 Frequencies --   1672.4245              3129.3098              3218.7806
 Red. masses --     10.8026                 1.0737                 1.0750
 Frc consts  --     17.8022                 6.1950                 6.5620
 IR Inten    --     10.6456                89.3102                25.7979
  Atom  AN      X      Y      Z        X      Y      Z        X      Y      Z
     1   7    -0.00   0.61   0.01    -0.00   0.02  -0.05    -0.00   0.02  -0.05
     2   1     0.00   0.34  -0.10     0.00  -0.28   0.65     0.00  -0.25   0.66
     3   7     0.00  -0.61   0.01    -0.00   0.02   0.05     0.00  -0.02  -0.05
     4   1    -0.00  -0.34  -0.10     0.00  -0.28  -0.65    -0.00   0.25   0.66

 -------------------
 - Thermochemistry -
 -------------------
 Temperature   298.150 Kelvin.  Pressure   1.00000 Atm.
 Atom     1 has atomic number  7 and mass  14.00307
 Atom     2 has atomic number  1 and mass   1.00783
 Atom     3 has atomic number  7 and mass  14.00307
 Atom     4 has atomic number  1 and mass   1.00783
 Molecular mass:    30.02180 amu.
 Principal axes and moments of inertia in atomic units:
                           1         2         3
     Eigenvalues --     6.19200  46.15326  52.34524
           X           -0.00019  -0.00000   1.00000
           Y            1.00000  -0.00000   0.00019
           Z            0.00000   1.00000   0.00000
 This molecule is an asymmetric top.
 Rotational symmetry number  2.
 Rotational temperatures (Kelvin)     13.98804     1.87666     1.65467
 Rotational constants (GHZ):         291.46347    39.10322    34.47765
 Zero-point vibrational energy      73201.5 (Joules/Mol)
                                   17.49558 (Kcal/Mol)
 Vibrational temperatures:   1841.22  1978.98  2248.30  2406.25  4502.38
          (Kelvin)           4631.11
 
 Zero-point correction=                           0.027881 (Hartree/Particle)
 Thermal correction to Energy=                    0.030740
 Thermal correction to Enthalpy=                  0.031684
 Thermal correction to Gibbs Free Energy=         0.006895
 Sum of electronic and zero-point Energies=           -110.614386
 Sum of electronic and thermal Energies=              -110.611527
 Sum of electronic and thermal Enthalpies=            -110.610583
 Sum of electronic and thermal Free Energies=         -110.635372
 
                     E (Thermal)             CV                S
                      KCal/Mol        Cal/Mol-Kelvin    Cal/Mol-Kelvin
 Total                   19.290              6.336             52.173
 Electronic               0.000              0.000              0.000
 Translational            0.889              2.981             36.131
 Rotational               0.889              2.981             15.977
 Vibrational             17.512              0.374              0.064
                       Q            Log10(Q)             Ln(Q)
 Total Bot       0.673552D-03         -3.171629         -7.302946
 Total V=0       0.449490D+10          9.652720         22.226209
 Vib (Bot)       0.150484D-12        -12.822509        -29.524918
 Vib (V=0)       0.100425D+01          0.001840          0.004237
 Electronic      0.100000D+01          0.000000          0.000000
 Translational   0.646560D+07          6.810609         15.682007
 Rotational      0.692263D+03          2.840271          6.539965
 
                                                         Title Card Required
                                                             IR Spectrum
 
     3   3                                                         1   1      1   1                                                  
     2   1                                                         6   5      3   2                                                  
     1   2                                                         7   6      7   8                                                  
     9   9                                                         2   3      5   0                                                  
 
     X   X                                                         X   X      X                                                      
     X   X                                                         X   X                                                             
     X   X                                                             X                                                             
     X   X                                                             X                                                             
     X   X                                                             X                                                             
         X                                                             X                                                             
         X                                                             X                                                             
         X                                                             X                                                             
         X                                                             X                                                             
         X                                                             X                                                             
         X                                                             X                                                             
         X                                                             X                                                             
         X                                                             X                                                             
         X                                                             X                                                             
         X                                                             X                                                             
         X                                                             X                                                             
         X                                                             X                                                             
         X                                                             X                                                             
                                                                       X                                                             
                                                                       X                                                             
 
 ***** Axes restored to original set *****
 -------------------------------------------------------------------
 Center     Atomic                   Forces (Hartrees/Bohr)
 Number     Number              X              Y              Z
 -------------------------------------------------------------------
      1        7          -0.000370376   -0.000034442   -0.000095605
      2        1          -0.000003844    0.000034441    0.000123546
      3        7           0.000370376   -0.000034447    0.000095603
      4        1           0.000003844    0.000034448   -0.000123544
 -------------------------------------------------------------------
 Cartesian Forces:  Max     0.000370376 RMS     0.000165312
 Force constants in Cartesian coordinates: 
                1             2             3             4             5 
      1  0.753281D+00
      2  0.429782D-01  0.446328D+00
      3 -0.201603D+00 -0.124438D-01  0.131299D+00
      4 -0.660148D-01 -0.451539D-01  0.648535D-02  0.106399D+00
      5 -0.964503D-01 -0.333764D+00  0.282824D-01  0.986322D-01  0.316073D+00
      6  0.642855D-02  0.130750D-01 -0.456646D-01 -0.236329D-01 -0.289130D-01
      7 -0.645887D+00 -0.479105D-01  0.170047D+00 -0.413791D-01 -0.557291D-02
      8  0.479007D-01 -0.114845D+00 -0.142357D-01 -0.500877D-01  0.228003D-02
      9  0.170050D+00  0.142362D-01 -0.121590D+00  0.250675D-01  0.160094D-02
     10 -0.413791D-01  0.500863D-01  0.250704D-01  0.995221D-03  0.339102D-02
     11  0.557146D-02  0.228099D-02 -0.160287D-02 -0.339056D-02  0.154116D-01
     12  0.251244D-01 -0.148674D-01  0.359563D-01 -0.791997D-02 -0.970349D-03
                6             7             8             9            10 
      6  0.331535D-01
      7  0.251241D-01  0.753281D+00
      8  0.148654D-01 -0.429665D-01  0.446326D+00
      9  0.359573D-01 -0.201606D+00  0.124618D-01  0.131300D+00
     10 -0.791977D-02 -0.660149D-01  0.451536D-01  0.648795D-02  0.106399D+00
     11  0.972581D-03  0.964500D-01 -0.333762D+00 -0.282989D-01 -0.986308D-01
     12 -0.234462D-01  0.643409D-02 -0.130915D-01 -0.456669D-01 -0.236386D-01
               11            12 
     11  0.316069D+00
     12  0.289292D-01  0.331568D-01
 FormGI is forming the generalized inverse of G from B-inverse, IUseBI=4.
 Force constants in internal coordinates: 
                1             2             3             4             5 
      1  0.359957D+00
      2  0.196608D-01  0.790492D+00
      3  0.921127D-02  0.196608D-01  0.359957D+00
      4 -0.145360D-02  0.807919D-01 -0.168494D-01  0.273187D+00
      5 -0.168494D-01  0.807919D-01 -0.145360D-02  0.679007D-02  0.273187D+00
      6  0.350264D-04  0.628700D-04  0.350264D-04  0.871283D-05  0.871283D-05
                6 
      6  0.868361D-01
 Leave Link  716 at Fri May 10 16:11:58 2019, MaxMem=   104857600 cpu:               0.1 elap:               0.1
 (Enter /opt/software/gaussian/g16.b01/l103.exe)

 GradGradGradGradGradGradGradGradGradGradGradGradGradGradGradGradGradGrad
 Berny optimization.
 Red2BG is reusing G-inverse.
 Internal  Forces:  Max     0.000366750 RMS     0.000182699
 Search for a local minimum.
 Step number   1 out of a maximum of    2
 All quantities printed in internal units (Hartrees-Bohrs-Radians)
 Second derivative matrix not updated -- analytic derivatives used.
 The second derivative matrix:
                          R1        R2        R3        A1        A2
           R1           0.35996
           R2           0.01966   0.79049
           R3           0.00921   0.01966   0.35996
           A1          -0.00145   0.08079  -0.01685   0.27319
           A2          -0.01685   0.08079  -0.00145   0.00679   0.27319
           D1           0.00004   0.00006   0.00004   0.00001   0.00001
                          D1
           D1           0.08684
 ITU=  0
     Eigenvalues ---    0.08684   0.25079   0.26368   0.35347   0.37273
     Eigenvalues ---    0.81612
 Angle between quadratic step and forces=  49.72 degrees.
 Linear search not attempted -- first point.
 Iteration  1 RMS(Cart)=  0.00076974 RMS(Int)=  0.00000081
 Iteration  2 RMS(Cart)=  0.00000098 RMS(Int)=  0.00000000
 ITry= 1 IFail=0 DXMaxC= 8.99D-04 DCOld= 1.00D+10 DXMaxT= 3.00D-01 DXLimC= 3.00D+00 Rises=F
 ClnCor:  largest displacement from symmetrization is 1.84D-14 for atom     4.
 Variable       Old X    -DE/DX   Delta X   Delta X   Delta X     New X
                                 (Linear)    (Quad)   (Total)
    R1        1.96741  -0.00002   0.00000  -0.00006  -0.00006   1.96735
    R2        2.34837   0.00037   0.00000   0.00042   0.00042   2.34879
    R3        1.96741  -0.00002   0.00000  -0.00006  -0.00006   1.96735
    A1        1.96742   0.00010   0.00000   0.00022   0.00022   1.96764
    A2        1.96742   0.00010   0.00000   0.00022   0.00022   1.96764
    D1       -0.00249   0.00022   0.00000   0.00248   0.00248  -0.00001
         Item               Value     Threshold  Converged?
 Maximum Force            0.000367     0.000450     YES
 RMS     Force            0.000183     0.000300     YES
 Maximum Displacement     0.000899     0.001800     YES
 RMS     Displacement     0.000770     0.001200     YES
 Predicted change in Energy=-3.673311D-07
 Optimization completed.
    -- Stationary point found.
                           ----------------------------
                           !   Optimized Parameters   !
                           ! (Angstroms and Degrees)  !
 --------------------------                            --------------------------
 ! Name  Definition              Value          Derivative Info.                !
 --------------------------------------------------------------------------------
 ! R1    R(1,2)                  1.0411         -DE/DX =    0.0                 !
 ! R2    R(1,3)                  1.2427         -DE/DX =    0.0004              !
 ! R3    R(3,4)                  1.0411         -DE/DX =    0.0                 !
 ! A1    A(2,1,3)              112.7251         -DE/DX =    0.0001              !
 ! A2    A(1,3,4)              112.7251         -DE/DX =    0.0001              !
 ! D1    D(2,1,3,4)             -0.1426         -DE/DX =    0.0002              !
 --------------------------------------------------------------------------------
 GradGradGradGradGradGradGradGradGradGradGradGradGradGradGradGradGradGrad

 Leave Link  103 at Fri May 10 16:11:58 2019, MaxMem=   104857600 cpu:               0.1 elap:               0.0
 (Enter /opt/software/gaussian/g16.b01/l9999.exe)

 ----------------------------------------------------------------------

 Electric dipole moment (input orientation):
 (Debye = 10**-18 statcoulomb cm , SI units = C m)
                  (au)            (Debye)         (10**-30 SI)
   Tot        0.133209D+01      0.338583D+01      0.112939D+02
   x          0.000000D+00      0.000000D+00      0.000000D+00
   y         -0.133209D+01     -0.338583D+01     -0.112939D+02
   z         -0.382859D-04     -0.973130D-04     -0.324601D-03

 Dipole polarizability, Alpha (input orientation).
 (esu units = cm**3 , SI units = C**2 m**2 J**-1)
 Alpha(0;0):
               (au)            (10**-24 esu)      (10**-40 SI)
   iso        0.157282D+02      0.233068D+01      0.259323D+01
   aniso      0.142721D+02      0.211490D+01      0.235314D+01
   xx         0.228387D+02      0.338434D+01      0.376559D+01
   yx         0.129369D-03      0.191705D-04      0.213301D-04
   yy         0.153242D+02      0.227081D+01      0.252662D+01
   zx        -0.447746D+01     -0.663492D+00     -0.738234D+00
   zy         0.180740D-03      0.267829D-04      0.298000D-04
   zz         0.902171D+01      0.133688D+01      0.148748D+01

 ----------------------------------------------------------------------

 Dipole orientation:
     7         -1.12584436          0.33344125         -0.18290676
     1         -1.85522800          0.54710777          1.63176965
     7          1.12584438         -0.33344129         -0.18290676
     1          1.85522802         -0.54710781          1.63176965

 Electric dipole moment (dipole orientation):
 (Debye = 10**-18 statcoulomb cm , SI units = C m)
                  (au)            (Debye)         (10**-30 SI)
   Tot        0.133209D+01      0.338583D+01      0.112939D+02
   x          0.000000D+00      0.000000D+00      0.000000D+00
   y          0.000000D+00      0.000000D+00      0.000000D+00
   z          0.133209D+01      0.338583D+01      0.112939D+02

 Dipole polarizability, Alpha (dipole orientation).
 (esu units = cm**3 , SI units = C**2 m**2 J**-1)
 Alpha(0;0):
               (au)            (10**-24 esu)      (10**-40 SI)
   iso        0.157282D+02      0.233068D+01      0.259323D+01
   aniso      0.142721D+02      0.211490D+01      0.235314D+01
   xx         0.228387D+02      0.338434D+01      0.376559D+01
   yx        -0.447746D+01     -0.663491D+00     -0.738234D+00
   yy         0.902171D+01      0.133688D+01      0.148748D+01
   zx         0.000000D+00      0.000000D+00      0.000000D+00
   zy         0.000000D+00      0.000000D+00      0.000000D+00
   zz         0.153242D+02      0.227081D+01      0.252662D+01

 ----------------------------------------------------------------------
 1\1\GINC-GRA596\Freq\RB3LYP\6-31G(d,p)\H2N2\RZK\10-May-2019\0\\#P Geom
 =AllCheck Guess=TCheck SCRF=Check GenChk RB3LYP/6-31G(d,p) Freq\\Title
  Card Required\\0,1\N,-0.5957711732,0.0967849628,0.1764523451\H,-0.981
 7442786,-0.8635037222,0.2894922352\N,0.5957711667,0.0967952112,-0.1764
 468012\H,0.9817444424,-0.863486906,-0.2895418908\\Version=ES64L-G16Rev
 B.01\State=1-A\HF=-110.6422672\RMSD=8.028e-10\RMSF=1.653e-04\ZeroPoint
 =0.027881\Thermal=0.0307401\Dipole=0.0000001,-1.33209,-0.0000383\Dipol
 eDeriv=-0.1650677,0.3238083,-0.0595544,0.1437577,0.082812,-0.041961,-0
 .0592799,-0.0954613,-0.3489929,0.1650677,-0.0760733,0.0595615,-0.28596
 56,-0.0828111,0.0842242,0.0592758,0.0221999,0.348992,-0.1650676,-0.323
 8049,-0.059573,-0.1437544,0.0828041,0.0419858,-0.0592882,0.0954861,-0.
 348985,0.1650676,0.0760699,0.0595659,0.2859623,-0.0828049,-0.084249,0.
 0592923,-0.0222247,0.3489859\Polar=22.8386777,0.0001294,15.3242133,-4.
 4774632,0.0001807,9.0217127\Quadrupole=-0.2646332,0.3300413,-0.0654081
 ,-0.000002,0.0670425,0.0000114\PG=C02 [X(H2N2)]\NImag=0\\0.75328093,0.
 04297815,0.44632786,-0.20160303,-0.01244376,0.13129872,-0.06601483,-0.
 04515389,0.00648535,0.10639871,-0.09645027,-0.33376425,0.02828237,0.09
 863217,0.31607264,0.00642855,0.01307495,-0.04566455,-0.02363290,-0.028
 91296,0.03315345,-0.64588699,-0.04791053,0.17004729,-0.04137910,-0.005
 57291,0.02512413,0.75328095,0.04790066,-0.11484460,-0.01423574,-0.0500
 8771,0.00228003,0.01486543,-0.04296651,0.44632641,0.17005004,0.0142361
 6,-0.12159049,0.02506752,0.00160094,0.03595726,-0.20160551,0.01246183,
 0.13130015,-0.04137911,0.05008627,0.02507040,0.00099522,0.00339102,-0.
 00791977,-0.06601485,0.04515357,0.00648795,0.10639874,0.00557146,0.002
 28099,-0.00160287,-0.00339056,0.01541158,0.00097258,0.09644995,-0.3337
 6184,-0.02829893,-0.09863085,0.31606928,0.02512445,-0.01486736,0.03595
 632,-0.00791997,-0.00097035,-0.02344617,0.00643409,-0.01309151,-0.0456
 6693,-0.02363857,0.02892922,0.03315678\\0.00037038,0.00003444,0.000095
 60,0.00000384,-0.00003444,-0.00012355,-0.00037038,0.00003445,-0.000095
 60,-0.00000384,-0.00003445,0.00012354\\\@


 Once you get people laughing, they're
 listening and you can tell them almost anything.
                                 -- Herb Gardner
 Job cpu time:       0 days  0 hours  0 minutes 16.0 seconds.
 Elapsed time:       0 days  0 hours  0 minutes  8.2 seconds.
 File lengths (MBytes):  RWF=     17 Int=      0 D2E=      0 Chk=      4 Scr=      1
 Normal termination of Gaussian 16 at Fri May 10 16:11:58 2019.
