 Entering Gaussian System, Link 0=g16
 Initial command:
 /opt/software/gaussian/g16.b01/l1.exe "/localscratch/rzk.14620212.0/Gau-28161.inp" -scrdir="/localscratch/rzk.14620212.0/"
 Entering Link 1 = /opt/software/gaussian/g16.b01/l1.exe PID=     28162.
  
 Copyright (c) 1988-2017, Gaussian, Inc.  All Rights Reserved.
  
 This is part of the Gaussian(R) 16 program.  It is based on
 the Gaussian(R) 09 system (copyright 2009, Gaussian, Inc.),
 the Gaussian(R) 03 system (copyright 2003, Gaussian, Inc.),
 the Gaussian(R) 98 system (copyright 1998, Gaussian, Inc.),
 the Gaussian(R) 94 system (copyright 1995, Gaussian, Inc.),
 the Gaussian 92(TM) system (copyright 1992, Gaussian, Inc.),
 the Gaussian 90(TM) system (copyright 1990, Gaussian, Inc.),
 the Gaussian 88(TM) system (copyright 1988, Gaussian, Inc.),
 the Gaussian 86(TM) system (copyright 1986, Carnegie Mellon
 University), and the Gaussian 82(TM) system (copyright 1983,
 Carnegie Mellon University). Gaussian is a federally registered
 trademark of Gaussian, Inc.
  
 This software contains proprietary and confidential information,
 including trade secrets, belonging to Gaussian, Inc.
  
 This software is provided under written license and may be
 used, copied, transmitted, or stored only in accord with that
 written license.
  
 The following legend is applicable only to US Government
 contracts under FAR:
  
                    RESTRICTED RIGHTS LEGEND
  
 Use, reproduction and disclosure by the US Government is
 subject to restrictions as set forth in subparagraphs (a)
 and (c) of the Commercial Computer Software - Restricted
 Rights clause in FAR 52.227-19.
  
 Gaussian, Inc.
 340 Quinnipiac St., Bldg. 40, Wallingford CT 06492
  
  
 ---------------------------------------------------------------
 Warning -- This program may not be used in any manner that
 competes with the business of Gaussian, Inc. or will provide
 assistance to any competitor of Gaussian, Inc.  The licensee
 of this program is prohibited from giving any competitor of
 Gaussian, Inc. access to this program.  By using this program,
 the user acknowledges that Gaussian, Inc. is engaged in the
 business of creating and licensing software in the field of
 computational chemistry and represents and warrants to the
 licensee that it is not a competitor of Gaussian, Inc. and that
 it will not use this program in any manner prohibited above.
 ---------------------------------------------------------------
  

 Cite this work as:
 Gaussian 16, Revision B.01,
 M. J. Frisch, G. W. Trucks, H. B. Schlegel, G. E. Scuseria, 
 M. A. Robb, J. R. Cheeseman, G. Scalmani, V. Barone, 
 G. A. Petersson, H. Nakatsuji, X. Li, M. Caricato, A. V. Marenich, 
 J. Bloino, B. G. Janesko, R. Gomperts, B. Mennucci, H. P. Hratchian, 
 J. V. Ortiz, A. F. Izmaylov, J. L. Sonnenberg, D. Williams-Young, 
 F. Ding, F. Lipparini, F. Egidi, J. Goings, B. Peng, A. Petrone, 
 T. Henderson, D. Ranasinghe, V. G. Zakrzewski, J. Gao, N. Rega, 
 G. Zheng, W. Liang, M. Hada, M. Ehara, K. Toyota, R. Fukuda, 
 J. Hasegawa, M. Ishida, T. Nakajima, Y. Honda, O. Kitao, H. Nakai, 
 T. Vreven, K. Throssell, J. A. Montgomery, Jr., J. E. Peralta, 
 F. Ogliaro, M. J. Bearpark, J. J. Heyd, E. N. Brothers, K. N. Kudin, 
 V. N. Staroverov, T. A. Keith, R. Kobayashi, J. Normand, 
 K. Raghavachari, A. P. Rendell, J. C. Burant, S. S. Iyengar, 
 J. Tomasi, M. Cossi, J. M. Millam, M. Klene, C. Adamo, R. Cammi, 
 J. W. Ochterski, R. L. Martin, K. Morokuma, O. Farkas, 
 J. B. Foresman, and D. J. Fox, Gaussian, Inc., Wallingford CT, 2016.
 
 ******************************************
 Gaussian 16:  ES64L-G16RevB.01 20-Dec-2017
                10-May-2019 
 ******************************************
 %NProcShared=2
 Will use up to    2 processors via shared memory.
 %chk=B-trans.chk
 ----------------------------------------------------------------------
 #p opt freq b3lyp/6-31g(d,p) scrf=(iefpcm,solvent=acetonitrile) empiri
 caldispersion=gd3
 ----------------------------------------------------------------------
 1/18=20,19=15,26=3,38=1/1,3;
 2/9=110,12=2,17=6,18=5,40=1/2;
 3/5=1,6=6,7=101,11=2,25=1,30=1,70=2201,71=1,72=2,74=-5,124=31/1,2,3;
 4//1;
 5/5=2,38=5,53=2/2;
 6/7=2,8=2,9=2,10=2,28=1/1;
 7//1,2,3,16;
 1/18=20,19=15,26=3/3(2);
 2/9=110/2;
 99//99;
 2/9=110/2;
 3/5=1,6=6,7=101,11=2,25=1,30=1,70=2205,71=1,72=2,74=-5,124=31/1,2,3;
 4/5=5,16=3,69=1/1;
 5/5=2,38=5,53=2/2;
 7//1,2,3,16;
 1/18=20,19=15,26=3/3(-5);
 2/9=110/2;
 6/7=2,8=2,9=2,10=2,19=2,28=1/1;
 99/9=1/99;
 Leave Link    1 at Fri May 10 16:12:29 2019, MaxMem=           0 cpu:               0.1 elap:               0.1
 (Enter /opt/software/gaussian/g16.b01/l101.exe)
 -------------------
 Title Card Required
 -------------------
 Symbolic Z-matrix:
 Charge =  0 Multiplicity = 1
 N                     0.       -0.62042  -0.12028 
 H                    -0.00041  -1.02791   0.84199 
 N                     0.        0.62042  -0.12028 
 H                     0.00041   1.02791  -1.08256 
 
 ITRead=  0  0  0  0
 MicOpt= -1 -1 -1 -1
 NAtoms=      4 NQM=        4 NQMF=       0 NMMI=      0 NMMIF=      0
                NMic=       0 NMicF=      0.
                    Isotopes and Nuclear Properties:
 (Nuclear quadrupole moments (NQMom) in fm**2, nuclear magnetic moments (NMagM)
  in nuclear magnetons)

  Atom         1           2           3           4
 IAtWgt=          14           1          14           1
 AtmWgt=  14.0030740   1.0078250  14.0030740   1.0078250
 NucSpn=           2           1           2           1
 AtZEff=  -0.0000000  -0.0000000  -0.0000000  -0.0000000
 NQMom=    2.0440000   0.0000000   2.0440000   0.0000000
 NMagM=    0.4037610   2.7928460   0.4037610   2.7928460
 AtZNuc=   7.0000000   1.0000000   7.0000000   1.0000000
 Leave Link  101 at Fri May 10 16:12:29 2019, MaxMem=   104857600 cpu:               0.2 elap:               0.1
 (Enter /opt/software/gaussian/g16.b01/l103.exe)

 GradGradGradGradGradGradGradGradGradGradGradGradGradGradGradGradGradGrad
 Berny optimization.
 Initialization pass.
                           ----------------------------
                           !    Initial Parameters    !
                           ! (Angstroms and Degrees)  !
 --------------------------                            --------------------------
 ! Name  Definition              Value          Derivative Info.                !
 --------------------------------------------------------------------------------
 ! R1    R(1,2)                  1.045          estimate D2E/DX2                !
 ! R2    R(1,3)                  1.2408         estimate D2E/DX2                !
 ! R3    R(3,4)                  1.045          estimate D2E/DX2                !
 ! A1    A(2,1,3)              112.9507         estimate D2E/DX2                !
 ! A2    A(1,3,4)              112.9507         estimate D2E/DX2                !
 ! D1    D(2,1,3,4)           -180.0            estimate D2E/DX2                !
 --------------------------------------------------------------------------------
 Trust Radius=3.00D-01 FncErr=1.00D-07 GrdErr=1.00D-06 EigMax=2.50D+02 EigMin=1.00D-04
 Number of steps in this run=     20 maximum allowed number of steps=    100.
 GradGradGradGradGradGradGradGradGradGradGradGradGradGradGradGradGradGrad

 Leave Link  103 at Fri May 10 16:12:29 2019, MaxMem=   104857600 cpu:               0.1 elap:               0.0
 (Enter /opt/software/gaussian/g16.b01/l202.exe)
                          Input orientation:                          
 ---------------------------------------------------------------------
 Center     Atomic      Atomic             Coordinates (Angstroms)
 Number     Number       Type             X           Y           Z
 ---------------------------------------------------------------------
      1          7           0        0.000000   -0.620422   -0.120284
      2          1           0       -0.000412   -1.027906    0.841988
      3          7           0        0.000000    0.620422   -0.120284
      4          1           0        0.000412    1.027906   -1.082557
 ---------------------------------------------------------------------
                    Distance matrix (angstroms):
                    1          2          3          4
     1  N    0.000000
     2  H    1.044994   0.000000
     3  N    1.240843   1.908652   0.000000
     4  H    1.908652   2.816068   1.044994   0.000000
 Stoichiometry    H2N2
 Framework group  C2H[SGH(H2N2)]
 Deg. of freedom     3
 Full point group                 C2H     NOp   4
 Largest Abelian subgroup         C2H     NOp   4
 Largest concise Abelian subgroup C2      NOp   2
                         Standard orientation:                         
 ---------------------------------------------------------------------
 Center     Atomic      Atomic             Coordinates (Angstroms)
 Number     Number       Type             X           Y           Z
 ---------------------------------------------------------------------
      1          7           0        0.000000    0.620422    0.000000
      2          1           0       -0.962273    1.027906    0.000000
      3          7           0       -0.000000   -0.620422    0.000000
      4          1           0        0.962273   -1.027906    0.000000
 ---------------------------------------------------------------------
 Rotational constants (GHZ):         333.0306281          38.1163726          34.2018647
 Leave Link  202 at Fri May 10 16:12:29 2019, MaxMem=   104857600 cpu:               0.1 elap:               0.0
 (Enter /opt/software/gaussian/g16.b01/l301.exe)
 Standard basis: 6-31G(d,p) (6D, 7F)
 Ernie: Thresh=  0.10000D-02 Tol=  0.10000D-05 Strict=F.
 There are    15 symmetry adapted cartesian basis functions of AG  symmetry.
 There are     5 symmetry adapted cartesian basis functions of BG  symmetry.
 There are     5 symmetry adapted cartesian basis functions of AU  symmetry.
 There are    15 symmetry adapted cartesian basis functions of BU  symmetry.
 There are    15 symmetry adapted basis functions of AG  symmetry.
 There are     5 symmetry adapted basis functions of BG  symmetry.
 There are     5 symmetry adapted basis functions of AU  symmetry.
 There are    15 symmetry adapted basis functions of BU  symmetry.
    40 basis functions,    70 primitive gaussians,    40 cartesian basis functions
     8 alpha electrons        8 beta electrons
       nuclear repulsion energy        32.0557581793 Hartrees.
 IExCor=  402 DFT=T Ex+Corr=B3LYP ExCW=0 ScaHFX=  0.200000
 ScaDFX=  0.800000  0.720000  1.000000  0.810000 ScalE2=  1.000000  1.000000
 IRadAn=      5 IRanWt=     -1 IRanGd=            0 ICorTp=0 IEmpDi=131
 NAtoms=    4 NActive=    4 NUniq=    2 SFac= 4.00D+00 NAtFMM=   60 NAOKFM=F Big=F
 Integral buffers will be    131072 words long.
 Raffenetti 2 integral format.
 Two-electron integral symmetry is turned on.
 R6Disp:  Grimme-D3 Dispersion energy=       -0.0001985860 Hartrees.
 Nuclear repulsion after empirical dispersion term =       32.0555595933 Hartrees.
 ------------------------------------------------------------------------------
 Polarizable Continuum Model (PCM)
 =================================
 Model                : PCM.
 Atomic radii         : UFF (Universal Force Field).
 Polarization charges : Total charges.
 Charge compensation  : None.
 Solution method      : On-the-fly selection.
 Cavity type          : Scaled VdW (van der Waals Surface) (Alpha=1.100).
 Cavity algorithm     : GePol (No added spheres)
                        Default sphere list used, NSphG=    4.
                        Lebedev-Laikov grids with approx.  5.0 points / Ang**2.
                        Smoothing algorithm: York/Karplus (Gamma=1.0000).
                        Polarization charges: spherical gaussians, with
                                              point-specific exponents (IZeta= 3).
                        Self-potential: point-specific (ISelfS= 7).
                        Self-field    : sphere-specific E.n sum rule (ISelfD= 2).
 1st derivatives      : Analytical E(r).r(x)/FMM algorithm (CHGder, D1EAlg=3).
                        Cavity 1st derivative terms included.
 Solvent              : Acetonitrile, Eps=  35.688000 Eps(inf)=   1.806874
 ------------------------------------------------------------------------------
 Spheres list:
 ISph  on   Nord     Re0    Alpha      Xe            Ye            Ze
    1   N      1    1.8300  1.100      0.000000      0.620422      0.000000
    2   H      2    1.4430  1.100     -0.962273      1.027906      0.000000
    3   N      3    1.8300  1.100     -0.000000     -0.620422     -0.000000
    4   H      4    1.4430  1.100      0.962273     -1.027906      0.000000
 ------------------------------------------------------------------------------
 GePol: Number of generator spheres                  =       4
 GePol: Total number of spheres                      =       4
 GePol: Number of exposed spheres                    =       4 (100.00%)
 GePol: Number of points                             =     516
 GePol: Average weight of points                     =       0.15
 GePol: Minimum weight of points                     =   0.63D-05
 GePol: Maximum weight of points                     =    0.20212
 GePol: Number of points with low weight             =      24
 GePol: Fraction of low-weight points (<1% of avg)   =       4.65%
 GePol: Cavity surface area                          =     74.849 Ang**2
 GePol: Cavity volume                                =     56.607 Ang**3
 Leave Link  301 at Fri May 10 16:12:29 2019, MaxMem=   104857600 cpu:               0.2 elap:               0.1
 (Enter /opt/software/gaussian/g16.b01/l302.exe)
 NPDir=0 NMtPBC=     1 NCelOv=     1 NCel=       1 NClECP=     1 NCelD=      1
         NCelK=      1 NCelE2=     1 NClLst=     1 CellRange=     0.0.
 One-electron integrals computed using PRISM.
 One-electron integral symmetry used in STVInt
 NBasis=    40 RedAO= T EigKep=  6.68D-03  NBF=    15     5     5    15
 NBsUse=    40 1.00D-06 EigRej= -1.00D+00 NBFU=    15     5     5    15
 Precomputing XC quadrature grid using
 IXCGrd= 4 IRadAn=           5 IRanWt=          -1 IRanGd=           0 AccXCQ= 0.00D+00.
 Generated NRdTot=       0 NPtTot=           0 NUsed=           0 NTot=          32
 NSgBfM=    40    40    40    40    40 MxSgAt=     4 MxSgA2=     4.
 Leave Link  302 at Fri May 10 16:12:29 2019, MaxMem=   104857600 cpu:               0.3 elap:               0.1
 (Enter /opt/software/gaussian/g16.b01/l303.exe)
 DipDrv:  MaxL=1.
 Leave Link  303 at Fri May 10 16:12:29 2019, MaxMem=   104857600 cpu:               0.1 elap:               0.1
 (Enter /opt/software/gaussian/g16.b01/l401.exe)
 ExpMin= 1.61D-01 ExpMax= 4.17D+03 ExpMxC= 6.27D+02 IAcc=3 IRadAn=         5 AccDes= 0.00D+00
 Harris functional with IExCor=  402 and IRadAn=       5 diagonalized for initial guess.
 HarFok:  IExCor=  402 AccDes= 0.00D+00 IRadAn=         5 IDoV= 1 UseB2=F ITyADJ=14
 ICtDFT=  3500011 ScaDFX=  1.000000  1.000000  1.000000  1.000000
 FoFCou: FMM=F IPFlag=           0 FMFlag=      100000 FMFlg1=           0
         NFxFlg=           0 DoJE=T BraDBF=F KetDBF=T FulRan=T
         wScrn=  0.000000 ICntrl=       500 IOpCl=  0 I1Cent=   200000004 NGrid=           0
         NMat0=    1 NMatS0=      1 NMatT0=    0 NMatD0=    1 NMtDS0=    0 NMtDT0=    0
 Petite list used in FoFCou.
 Harris En= -110.619223065662    
 JPrj=0 DoOrth=F DoCkMO=F.
 Initial guess orbital symmetries:
       Occupied  (AG) (BU) (AG) (BU) (AG) (BU) (AU) (AG)
       Virtual   (BG) (BU) (AG) (BU) (AG) (BU) (AU) (AG) (BU) (BG)
                 (BU) (AG) (AG) (BU) (BG) (AU) (BU) (AU) (AG) (AG)
                 (BU) (AG) (BG) (BU) (BG) (AU) (BU) (AG) (AG) (BU)
                 (AG) (BU)
 The electronic state of the initial guess is 1-AG.
 Leave Link  401 at Fri May 10 16:12:30 2019, MaxMem=   104857600 cpu:               0.4 elap:               0.2
 (Enter /opt/software/gaussian/g16.b01/l502.exe)
 Keep R1 ints in memory in symmetry-blocked form, NReq=2068184.
 FoFCou: FMM=F IPFlag=           0 FMFlag=           0 FMFlg1=           0
         NFxFlg=           0 DoJE=F BraDBF=F KetDBF=F FulRan=T
         wScrn=  0.000000 ICntrl=       600 IOpCl=  0 I1Cent=           0 NGrid=           0
         NMat0=    1 NMatS0=    820 NMatT0=    0 NMatD0=    1 NMtDS0=    0 NMtDT0=    0
 Petite list used in FoFCou.
 Closed shell SCF:
 Using DIIS extrapolation, IDIIS=  1040.
 NGot=   104857600 LenX=   104760288 LenY=   104758247
 Requested convergence on RMS density matrix=1.00D-08 within 128 cycles.
 Requested convergence on MAX density matrix=1.00D-06.
 Requested convergence on             energy=1.00D-06.
 No special actions if energy rises.

 Cycle   1  Pass 1  IDiag  1:
 Inv3:  Mode=1 IEnd=      798768.
 Iteration    1 A*A^-1 deviation from unit magnitude is 2.44D-15 for     42.
 Iteration    1 A*A^-1 deviation from orthogonality  is 2.11D-15 for    207     93.
 Iteration    1 A^-1*A deviation from unit magnitude is 2.22D-15 for    185.
 Iteration    1 A^-1*A deviation from orthogonality  is 1.62D-15 for    384     54.
 E= -110.626492451804    
 DIIS: error= 2.64D-02 at cycle   1 NSaved=   1.
 NSaved= 1 IEnMin= 1 EnMin= -110.626492451804     IErMin= 1 ErrMin= 2.64D-02
 ErrMax= 2.64D-02  0.00D+00 EMaxC= 1.00D-01 BMatC= 2.03D-02 BMatP= 2.03D-02
 IDIUse=3 WtCom= 7.36D-01 WtEn= 2.64D-01
 Coeff-Com:  0.100D+01
 Coeff-En:   0.100D+01
 Coeff:      0.100D+01
 Gap=     0.180 Goal=   None    Shift=    0.000
 GapD=    0.180 DampG=1.000 DampE=0.500 DampFc=0.5000 IDamp=-1.
 Damping current iteration by 5.00D-01
 RMSDP=6.16D-03 MaxDP=6.55D-02              OVMax= 7.03D-02

 Cycle   2  Pass 1  IDiag  1:
 E= -110.635129107080     Delta-E=       -0.008636655276 Rises=F Damp=T
 DIIS: error= 6.95D-03 at cycle   2 NSaved=   2.
 NSaved= 2 IEnMin= 2 EnMin= -110.635129107080     IErMin= 2 ErrMin= 6.95D-03
 ErrMax= 6.95D-03  0.00D+00 EMaxC= 1.00D-01 BMatC= 1.74D-03 BMatP= 2.03D-02
 IDIUse=3 WtCom= 9.31D-01 WtEn= 6.95D-02
 Coeff-Com: -0.785D-01 0.108D+01
 Coeff-En:   0.000D+00 0.100D+01
 Coeff:     -0.730D-01 0.107D+01
 Gap=     0.175 Goal=   None    Shift=    0.000
 RMSDP=8.14D-04 MaxDP=6.71D-03 DE=-8.64D-03 OVMax= 3.75D-02

 Cycle   3  Pass 1  IDiag  1:
 E= -110.643620946625     Delta-E=       -0.008491839545 Rises=F Damp=F
 DIIS: error= 1.91D-03 at cycle   3 NSaved=   3.
 NSaved= 3 IEnMin= 3 EnMin= -110.643620946625     IErMin= 3 ErrMin= 1.91D-03
 ErrMax= 1.91D-03  0.00D+00 EMaxC= 1.00D-01 BMatC= 1.94D-04 BMatP= 1.74D-03
 IDIUse=3 WtCom= 9.81D-01 WtEn= 1.91D-02
 Coeff-Com: -0.739D-01 0.252D+00 0.822D+00
 Coeff-En:   0.000D+00 0.000D+00 0.100D+01
 Coeff:     -0.725D-01 0.247D+00 0.826D+00
 Gap=     0.177 Goal=   None    Shift=    0.000
 RMSDP=3.28D-04 MaxDP=3.22D-03 DE=-8.49D-03 OVMax= 4.04D-03

 Cycle   4  Pass 1  IDiag  1:
 E= -110.643788304930     Delta-E=       -0.000167358305 Rises=F Damp=F
 DIIS: error= 3.53D-04 at cycle   4 NSaved=   4.
 NSaved= 4 IEnMin= 4 EnMin= -110.643788304930     IErMin= 4 ErrMin= 3.53D-04
 ErrMax= 3.53D-04  0.00D+00 EMaxC= 1.00D-01 BMatC= 4.01D-06 BMatP= 1.94D-04
 IDIUse=3 WtCom= 9.96D-01 WtEn= 3.53D-03
 Coeff-Com: -0.101D-01 0.219D-01 0.176D+00 0.812D+00
 Coeff-En:   0.000D+00 0.000D+00 0.000D+00 0.100D+01
 Coeff:     -0.101D-01 0.218D-01 0.175D+00 0.813D+00
 Gap=     0.177 Goal=   None    Shift=    0.000
 RMSDP=3.94D-05 MaxDP=4.64D-04 DE=-1.67D-04 OVMax= 4.73D-04

 Cycle   5  Pass 1  IDiag  1:
 E= -110.643791433702     Delta-E=       -0.000003128772 Rises=F Damp=F
 DIIS: error= 1.30D-05 at cycle   5 NSaved=   5.
 NSaved= 5 IEnMin= 5 EnMin= -110.643791433702     IErMin= 5 ErrMin= 1.30D-05
 ErrMax= 1.30D-05  0.00D+00 EMaxC= 1.00D-01 BMatC= 6.51D-09 BMatP= 4.01D-06
 IDIUse=1 WtCom= 1.00D+00 WtEn= 0.00D+00
 Coeff-Com: -0.660D-03 0.855D-03 0.162D-01 0.864D-01 0.897D+00
 Coeff:     -0.660D-03 0.855D-03 0.162D-01 0.864D-01 0.897D+00
 Gap=     0.177 Goal=   None    Shift=    0.000
 RMSDP=1.93D-06 MaxDP=1.52D-05 DE=-3.13D-06 OVMax= 2.44D-05

 Cycle   6  Pass 1  IDiag  1:
 E= -110.643791439024     Delta-E=       -0.000000005322 Rises=F Damp=F
 DIIS: error= 1.65D-06 at cycle   6 NSaved=   6.
 NSaved= 6 IEnMin= 6 EnMin= -110.643791439024     IErMin= 6 ErrMin= 1.65D-06
 ErrMax= 1.65D-06  0.00D+00 EMaxC= 1.00D-01 BMatC= 1.05D-10 BMatP= 6.51D-09
 IDIUse=1 WtCom= 1.00D+00 WtEn= 0.00D+00
 Coeff-Com:  0.113D-03-0.265D-03-0.138D-02-0.809D-02 0.420D-01 0.968D+00
 Coeff:      0.113D-03-0.265D-03-0.138D-02-0.809D-02 0.420D-01 0.968D+00
 Gap=     0.177 Goal=   None    Shift=    0.000
 RMSDP=4.11D-07 MaxDP=5.04D-06 DE=-5.32D-09 OVMax= 3.79D-06

 Cycle   7  Pass 1  IDiag  1:
 E= -110.643791439134     Delta-E=       -0.000000000110 Rises=F Damp=F
 DIIS: error= 1.60D-07 at cycle   7 NSaved=   7.
 NSaved= 7 IEnMin= 7 EnMin= -110.643791439134     IErMin= 7 ErrMin= 1.60D-07
 ErrMax= 1.60D-07  0.00D+00 EMaxC= 1.00D-01 BMatC= 9.65D-13 BMatP= 1.05D-10
 IDIUse=1 WtCom= 1.00D+00 WtEn= 0.00D+00
 Coeff-Com:  0.123D-04-0.209D-04-0.170D-03-0.115D-02-0.739D-02 0.448D-01
 Coeff-Com:  0.964D+00
 Coeff:      0.123D-04-0.209D-04-0.170D-03-0.115D-02-0.739D-02 0.448D-01
 Coeff:      0.964D+00
 Gap=     0.177 Goal=   None    Shift=    0.000
 RMSDP=5.21D-08 MaxDP=4.69D-07 DE=-1.10D-10 OVMax= 6.14D-07

 Cycle   8  Pass 1  IDiag  1:
 E= -110.643791439135     Delta-E=       -0.000000000001 Rises=F Damp=F
 DIIS: error= 1.60D-08 at cycle   8 NSaved=   8.
 NSaved= 8 IEnMin= 8 EnMin= -110.643791439135     IErMin= 8 ErrMin= 1.60D-08
 ErrMax= 1.60D-08  0.00D+00 EMaxC= 1.00D-01 BMatC= 9.25D-15 BMatP= 9.65D-13
 IDIUse=1 WtCom= 1.00D+00 WtEn= 0.00D+00
 Coeff-Com: -0.131D-05 0.286D-05 0.233D-04 0.130D-03 0.377D-03-0.118D-01
 Coeff-Com: -0.760D-01 0.109D+01
 Coeff:     -0.131D-05 0.286D-05 0.233D-04 0.130D-03 0.377D-03-0.118D-01
 Coeff:     -0.760D-01 0.109D+01
 Gap=     0.177 Goal=   None    Shift=    0.000
 RMSDP=7.41D-09 MaxDP=7.04D-08 DE=-1.11D-12 OVMax= 8.97D-08

 Error on total polarization charges =  0.00296
 SCF Done:  E(RB3LYP) =  -110.643791439     A.U. after    8 cycles
            NFock=  8  Conv=0.74D-08     -V/T= 2.0096
 KE= 1.095888301600D+02 PE=-3.224928177101D+02 EE= 7.020463651765D+01
 Leave Link  502 at Fri May 10 16:12:31 2019, MaxMem=   104857600 cpu:               2.6 elap:               1.3
 (Enter /opt/software/gaussian/g16.b01/l601.exe)
 Copying SCF densities to generalized density rwf, IOpCl= 0 IROHF=0.

 **********************************************************************

            Population analysis using the SCF Density.

 **********************************************************************

 Orbital symmetries:
       Occupied  (AG) (BU) (AG) (BU) (AG) (BU) (AU) (AG)
       Virtual   (BG) (BU) (AG) (BU) (AG) (AU) (BU) (AG) (BU) (BG)
                 (BU) (AG) (AG) (BU) (BG) (AU) (BU) (AU) (AG) (AG)
                 (BU) (AG) (BG) (BU) (BG) (AU) (BU) (AG) (AG) (BU)
                 (AG) (BU)
 The electronic state is 1-AG.
 Alpha  occ. eigenvalues --  -14.39160 -14.39108  -1.02495  -0.69594  -0.50138
 Alpha  occ. eigenvalues --   -0.42919  -0.39113  -0.22907
 Alpha virt. eigenvalues --   -0.05243   0.09937   0.12072   0.34816   0.61783
 Alpha virt. eigenvalues --    0.64964   0.67149   0.68862   0.72385   0.75047
 Alpha virt. eigenvalues --    0.87452   0.89560   0.94826   1.18925   1.41098
 Alpha virt. eigenvalues --    1.43160   1.55395   1.67873   1.83198   2.05458
 Alpha virt. eigenvalues --    2.18558   2.34265   2.37122   2.44382   2.53495
 Alpha virt. eigenvalues --    2.61062   2.74362   2.83771   3.29423   3.33824
 Alpha virt. eigenvalues --    3.56605   3.85523
          Condensed to atoms (all electrons):
               1          2          3          4
     1  N    6.692940   0.287764   0.372522  -0.071560
     2  H    0.287764   0.492118  -0.071560   0.010012
     3  N    0.372522  -0.071560   6.692940   0.287764
     4  H   -0.071560   0.010012   0.287764   0.492118
 Mulliken charges:
               1
     1  N   -0.281666
     2  H    0.281666
     3  N   -0.281666
     4  H    0.281666
 Sum of Mulliken charges =   0.00000
 Mulliken charges with hydrogens summed into heavy atoms:
               1
     1  N    0.000000
     3  N    0.000000
 Electronic spatial extent (au):  <R**2>=             58.9843
 Charge=              0.0000 electrons
 Dipole moment (field-independent basis, Debye):
    X=             -0.0000    Y=             -0.0000    Z=              0.0000  Tot=              0.0000
 Quadrupole moment (field-independent basis, Debye-Ang):
   XX=            -10.4277   YY=            -12.0997   ZZ=            -11.8792
   XY=             -3.9468   XZ=              0.0000   YZ=             -0.0000
 Traceless Quadrupole moment (field-independent basis, Debye-Ang):
   XX=              1.0411   YY=             -0.6308   ZZ=             -0.4103
   XY=             -3.9468   XZ=              0.0000   YZ=             -0.0000
 Octapole moment (field-independent basis, Debye-Ang**2):
  XXX=              0.0000  YYY=             -0.0000  ZZZ=             -0.0000  XYY=             -0.0000
  XXY=              0.0000  XXZ=             -0.0000  XZZ=              0.0000  YZZ=             -0.0000
  YYZ=             -0.0000  XYZ=             -0.0000
 Hexadecapole moment (field-independent basis, Debye-Ang**3):
 XXXX=            -14.5531 YYYY=            -43.2573 ZZZZ=             -9.7332 XXXY=             -0.3560
 XXXZ=             -0.0000 YYYX=             -2.0303 YYYZ=             -0.0000 ZZZX=             -0.0000
 ZZZY=             -0.0000 XXYY=             -8.2533 XXZZ=             -4.5354 YYZZ=             -8.8795
 XXYZ=             -0.0000 YYXZ=              0.0000 ZZXY=              0.7412
 N-N= 3.205555959334D+01 E-N=-3.224928181989D+02  KE= 1.095888301600D+02
 Symmetry AG   KE= 5.534920391318D+01
 Symmetry BG   KE= 3.448653366819D-32
 Symmetry AU   KE= 3.146619483607D+00
 Symmetry BU   KE= 5.109300676319D+01
 No NMR shielding tensors so no spin-rotation constants.
 Leave Link  601 at Fri May 10 16:12:31 2019, MaxMem=   104857600 cpu:               0.2 elap:               0.1
 (Enter /opt/software/gaussian/g16.b01/l701.exe)
 ... and contract with generalized density number  0.
 Compute integral first derivatives.
 R6Disp: Adding Grimme-D3 dispersion energy 1st derivatives to the gradient.
 D1PCM: PCM CHGder 1st derivatives, ID1Alg=3 FixD1E=F DoIter=F DoCFld=F I1PDM=0.
 GePol: Maximum number of non-zero 1st derivatives   =     235
 Leave Link  701 at Fri May 10 16:12:31 2019, MaxMem=   104857600 cpu:               0.8 elap:               0.4
 (Enter /opt/software/gaussian/g16.b01/l702.exe)
 L702 exits ... SP integral derivatives will be done elsewhere.
 Leave Link  702 at Fri May 10 16:12:31 2019, MaxMem=   104857600 cpu:               0.1 elap:               0.0
 (Enter /opt/software/gaussian/g16.b01/l703.exe)
 Integral derivatives from FoFJK, PRISM(SPDF).
 Compute integral first derivatives, UseDBF=F ICtDFT=           0.
 Calling FoFJK, ICntrl=      2127 FMM=F ISym2X=1 I1Cent= 0 IOpClX= 0 NMat=1 NMatS=1 NMatT=0.
 FoFJK:  IHMeth= 1 ICntrl=    2127 DoSepK=F KAlg= 0 I1Cent=           0 FoldK=F
 IRaf=         0 NMat=       1 IRICut=       1 DoRegI=T DoRafI=F ISym2E= 1 IDoP0=0 IntGTp=1.
 FoFCou: FMM=F IPFlag=           0 FMFlag=      100000 FMFlg1=         800
         NFxFlg=           0 DoJE=F BraDBF=F KetDBF=F FulRan=T
         wScrn=  0.000000 ICntrl=      2127 IOpCl=  0 I1Cent=           0 NGrid=           0
         NMat0=    1 NMatS0=      1 NMatT0=    0 NMatD0=    1 NMtDS0=    0 NMtDT0=    0
 Petite list used in FoFCou.
 Leave Link  703 at Fri May 10 16:12:32 2019, MaxMem=   104857600 cpu:               0.5 elap:               0.3
 (Enter /opt/software/gaussian/g16.b01/l716.exe)
 Dipole        =-8.88178420D-16 8.88178420D-16 3.34458855D-20
 ***** Axes restored to original set *****
 -------------------------------------------------------------------
 Center     Atomic                   Forces (Hartrees/Bohr)
 Number     Number              X              Y              Z
 -------------------------------------------------------------------
      1        7           0.000011312   -0.008160707   -0.026451964
      2        1           0.000000035    0.017136845   -0.000082718
      3        7          -0.000011312    0.008160707    0.026451964
      4        1          -0.000000035   -0.017136845    0.000082718
 -------------------------------------------------------------------
 Cartesian Forces:  Max     0.026451964 RMS     0.013291488
 Leave Link  716 at Fri May 10 16:12:32 2019, MaxMem=   104857600 cpu:               0.1 elap:               0.0
 (Enter /opt/software/gaussian/g16.b01/l103.exe)

 GradGradGradGradGradGradGradGradGradGradGradGradGradGradGradGradGradGrad
 Berny optimization.
 FormGI is forming the generalized inverse of G from B-inverse, IUseBI=4.
 Internal  Forces:  Max     0.031105015 RMS     0.018739328
 Search for a local minimum.
 Step number   1 out of a maximum of   20
 All quantities printed in internal units (Hartrees-Bohrs-Radians)
 RMS Force = .18739D-01 SwitMx=.10000D-02 MixMth= 1
 Mixed Optimization -- RFO/linear search
 Second derivative matrix not updated -- first step.
 The second derivative matrix:
                          R1        R2        R3        A1        A2
           R1           0.40578
           R2           0.00000   0.86714
           R3           0.00000   0.00000   0.40578
           A1           0.00000   0.00000   0.00000   0.16000
           A2           0.00000   0.00000   0.00000   0.00000   0.16000
           D1           0.00000   0.00000   0.00000   0.00000   0.00000
                          D1
           D1           0.03400
 ITU=  0
     Eigenvalues ---    0.03400   0.16000   0.16000   0.40578   0.40578
     Eigenvalues ---    0.86714
 RFO step:  Lambda=-1.15878086D-02 EMin= 3.40014271D-02
 Linear search not attempted -- first point.
 Iteration  1 RMS(Cart)=  0.12080677 RMS(Int)=  0.00615222
 Iteration  2 RMS(Cart)=  0.00638852 RMS(Int)=  0.00000030
 Iteration  3 RMS(Cart)=  0.00000030 RMS(Int)=  0.00000000
 ITry= 1 IFail=0 DXMaxC= 1.62D-01 DCOld= 1.00D+10 DXMaxT= 3.00D-01 DXLimC= 3.00D+00 Rises=F
 ClnCor:  largest displacement from symmetrization is 1.06D-10 for atom     3.
 Variable       Old X    -DE/DX   Delta X   Delta X   Delta X     New X
                                 (Linear)    (Quad)   (Total)
    R1        1.97475  -0.00676   0.00000  -0.01619  -0.01619   1.95856
    R2        2.34485  -0.00898   0.00000  -0.01022  -0.01022   2.33464
    R3        1.97475  -0.00676   0.00000  -0.01619  -0.01619   1.95856
    A1        1.97136  -0.03111   0.00000  -0.18128  -0.18128   1.79008
    A2        1.97136  -0.03111   0.00000  -0.18128  -0.18128   1.79008
    D1        3.14159   0.00000   0.00000  -0.00000   0.00000   3.14159
         Item               Value     Threshold  Converged?
 Maximum Force            0.031105     0.000450     NO 
 RMS     Force            0.018739     0.000300     NO 
 Maximum Displacement     0.162080     0.001800     NO 
 RMS     Displacement     0.125115     0.001200     NO 
 Predicted change in Energy=-6.178340D-03
 Lowest energy point so far.  Saving SCF results.
 GradGradGradGradGradGradGradGradGradGradGradGradGradGradGradGradGradGrad

 Leave Link  103 at Fri May 10 16:12:32 2019, MaxMem=   104857600 cpu:               0.1 elap:               0.0
 (Enter /opt/software/gaussian/g16.b01/l202.exe)
                          Input orientation:                          
 ---------------------------------------------------------------------
 Center     Atomic      Atomic             Coordinates (Angstroms)
 Number     Number       Type             X           Y           Z
 ---------------------------------------------------------------------
      1          7           0        0.000027   -0.614484   -0.183407
      2          1           0       -0.000393   -0.942137    0.799865
      3          7           0       -0.000027    0.614484   -0.057161
      4          1           0        0.000393    0.942137   -1.040433
 ---------------------------------------------------------------------
                    Distance matrix (angstroms):
                    1          2          3          4
     1  N    0.000000
     2  H    1.036427   0.000000
     3  N    1.235436   1.776954   0.000000
     4  H    1.776954   2.633854   1.036427   0.000000
 Stoichiometry    H2N2
 Framework group  C2H[SGH(H2N2)]
 Deg. of freedom     3
 Full point group                 C2H     NOp   4
 RotChk:  IX=2 Diff= 1.45D-01
 Largest Abelian subgroup         C2H     NOp   4
 Largest concise Abelian subgroup C2      NOp   2
                         Standard orientation:                         
 ---------------------------------------------------------------------
 Center     Atomic      Atomic             Coordinates (Angstroms)
 Number     Number       Type             X           Y           Z
 ---------------------------------------------------------------------
      1          7           0       -0.000000    0.617718    0.000000
      2          1           0       -1.011607    0.843178   -0.000000
      3          7           0        0.000000   -0.617718    0.000000
      4          1           0        1.011607   -0.843178   -0.000000
 ---------------------------------------------------------------------
 Rotational constants (GHZ):         284.4142300          40.7389926          35.6347359
 Leave Link  202 at Fri May 10 16:12:32 2019, MaxMem=   104857600 cpu:               0.1 elap:               0.0
 (Enter /opt/software/gaussian/g16.b01/l301.exe)
 Standard basis: 6-31G(d,p) (6D, 7F)
 Ernie: Thresh=  0.10000D-02 Tol=  0.10000D-05 Strict=F.
 There are    15 symmetry adapted cartesian basis functions of AG  symmetry.
 There are     5 symmetry adapted cartesian basis functions of BG  symmetry.
 There are     5 symmetry adapted cartesian basis functions of AU  symmetry.
 There are    15 symmetry adapted cartesian basis functions of BU  symmetry.
 There are    15 symmetry adapted basis functions of AG  symmetry.
 There are     5 symmetry adapted basis functions of BG  symmetry.
 There are     5 symmetry adapted basis functions of AU  symmetry.
 There are    15 symmetry adapted basis functions of BU  symmetry.
    40 basis functions,    70 primitive gaussians,    40 cartesian basis functions
     8 alpha electrons        8 beta electrons
       nuclear repulsion energy        32.5064956876 Hartrees.
 IExCor=  402 DFT=T Ex+Corr=B3LYP ExCW=0 ScaHFX=  0.200000
 ScaDFX=  0.800000  0.720000  1.000000  0.810000 ScalE2=  1.000000  1.000000
 IRadAn=      5 IRanWt=     -1 IRanGd=            0 ICorTp=0 IEmpDi=131
 NAtoms=    4 NActive=    4 NUniq=    2 SFac= 4.00D+00 NAtFMM=   60 NAOKFM=F Big=F
 Integral buffers will be    131072 words long.
 Raffenetti 2 integral format.
 Two-electron integral symmetry is turned on.
 R6Disp:  Grimme-D3 Dispersion energy=       -0.0001945141 Hartrees.
 Nuclear repulsion after empirical dispersion term =       32.5063011735 Hartrees.
 ------------------------------------------------------------------------------
 Polarizable Continuum Model (PCM)
 =================================
 Model                : PCM.
 Atomic radii         : UFF (Universal Force Field).
 Polarization charges : Total charges.
 Charge compensation  : None.
 Solution method      : On-the-fly selection.
 Cavity type          : Scaled VdW (van der Waals Surface) (Alpha=1.100).
 Cavity algorithm     : GePol (No added spheres)
                        Default sphere list used, NSphG=    4.
                        Lebedev-Laikov grids with approx.  5.0 points / Ang**2.
                        Smoothing algorithm: York/Karplus (Gamma=1.0000).
                        Polarization charges: spherical gaussians, with
                                              point-specific exponents (IZeta= 3).
                        Self-potential: point-specific (ISelfS= 7).
                        Self-field    : sphere-specific E.n sum rule (ISelfD= 2).
 1st derivatives      : Analytical E(r).r(x)/FMM algorithm (CHGder, D1EAlg=3).
                        Cavity 1st derivative terms included.
 Solvent              : Acetonitrile, Eps=  35.688000 Eps(inf)=   1.806874
 ------------------------------------------------------------------------------
 Spheres list:
 ISph  on   Nord     Re0    Alpha      Xe            Ye            Ze
    1   N      1    1.8300  1.100     -0.000000      0.617718      0.000000
    2   H      2    1.4430  1.100     -1.011607      0.843178      0.000000
    3   N      3    1.8300  1.100      0.000000     -0.617718      0.000000
    4   H      4    1.4430  1.100      1.011607     -0.843178     -0.000000
 ------------------------------------------------------------------------------
 GePol: Number of generator spheres                  =       4
 GePol: Total number of spheres                      =       4
 GePol: Number of exposed spheres                    =       4 (100.00%)
 GePol: Number of points                             =     508
 GePol: Average weight of points                     =       0.15
 GePol: Minimum weight of points                     =   0.44D-05
 GePol: Maximum weight of points                     =    0.20212
 GePol: Number of points with low weight             =      24
 GePol: Fraction of low-weight points (<1% of avg)   =       4.72%
 GePol: Cavity surface area                          =     73.829 Ang**2
 GePol: Cavity volume                                =     56.062 Ang**3
 Leave Link  301 at Fri May 10 16:12:32 2019, MaxMem=   104857600 cpu:               0.2 elap:               0.1
 (Enter /opt/software/gaussian/g16.b01/l302.exe)
 NPDir=0 NMtPBC=     1 NCelOv=     1 NCel=       1 NClECP=     1 NCelD=      1
         NCelK=      1 NCelE2=     1 NClLst=     1 CellRange=     0.0.
 One-electron integrals computed using PRISM.
 One-electron integral symmetry used in STVInt
 NBasis=    40 RedAO= T EigKep=  6.20D-03  NBF=    15     5     5    15
 NBsUse=    40 1.00D-06 EigRej= -1.00D+00 NBFU=    15     5     5    15
 Precomputing XC quadrature grid using
 IXCGrd= 4 IRadAn=           5 IRanWt=          -1 IRanGd=           0 AccXCQ= 0.00D+00.
 Generated NRdTot=       0 NPtTot=           0 NUsed=           0 NTot=          32
 NSgBfM=    40    40    40    40    40 MxSgAt=     4 MxSgA2=     4.
 Leave Link  302 at Fri May 10 16:12:32 2019, MaxMem=   104857600 cpu:               0.2 elap:               0.1
 (Enter /opt/software/gaussian/g16.b01/l303.exe)
 DipDrv:  MaxL=1.
 Leave Link  303 at Fri May 10 16:12:32 2019, MaxMem=   104857600 cpu:               0.1 elap:               0.0
 (Enter /opt/software/gaussian/g16.b01/l401.exe)
 Initial guess from the checkpoint file:  "B-trans.chk"
 B after Tr=     0.000000   -0.000000    0.000000
         Rot=    0.999682   -0.000000    0.000000   -0.025233 Ang=  -2.89 deg.
 Guess basis will be translated and rotated to current coordinates.
 JPrj=2 DoOrth=T DoCkMO=T.
 Initial guess orbital symmetries:
       Occupied  (AG) (BU) (AG) (BU) (AG) (BU) (AU) (AG)
       Virtual   (BG) (BU) (AG) (BU) (AG) (AU) (BU) (AG) (BU) (BG)
                 (BU) (AG) (AG) (BU) (BG) (AU) (BU) (AU) (AG) (AG)
                 (BU) (AG) (BG) (BU) (BG) (AU) (BU) (AG) (AG) (BU)
                 (AG) (BU)
 The electronic state of the initial guess is 1-AG.
 Generating alternative initial guess.
 ExpMin= 1.61D-01 ExpMax= 4.17D+03 ExpMxC= 6.27D+02 IAcc=3 IRadAn=         5 AccDes= 0.00D+00
 Harris functional with IExCor=  402 and IRadAn=       5 diagonalized for initial guess.
 HarFok:  IExCor=  402 AccDes= 0.00D+00 IRadAn=         5 IDoV= 1 UseB2=F ITyADJ=14
 ICtDFT=  3500011 ScaDFX=  1.000000  1.000000  1.000000  1.000000
 FoFCou: FMM=F IPFlag=           0 FMFlag=      100000 FMFlg1=           0
         NFxFlg=           0 DoJE=T BraDBF=F KetDBF=T FulRan=T
         wScrn=  0.000000 ICntrl=       500 IOpCl=  0 I1Cent=   200000004 NGrid=           0
         NMat0=    1 NMatS0=      1 NMatT0=    0 NMatD0=    1 NMtDS0=    0 NMtDT0=    0
 Petite list used in FoFCou.
 Harris En= -110.618582409340    
 Leave Link  401 at Fri May 10 16:12:32 2019, MaxMem=   104857600 cpu:               0.5 elap:               0.2
 (Enter /opt/software/gaussian/g16.b01/l502.exe)
 Keep R1 ints in memory in symmetry-blocked form, NReq=2068184.
 FoFCou: FMM=F IPFlag=           0 FMFlag=           0 FMFlg1=           0
         NFxFlg=           0 DoJE=F BraDBF=F KetDBF=F FulRan=T
         wScrn=  0.000000 ICntrl=       600 IOpCl=  0 I1Cent=           0 NGrid=           0
         NMat0=    1 NMatS0=    820 NMatT0=    0 NMatD0=    1 NMtDS0=    0 NMtDT0=    0
 Petite list used in FoFCou.
 Closed shell SCF:
 Using DIIS extrapolation, IDIIS=  1040.
 NGot=   104857600 LenX=   104760288 LenY=   104758247
 Requested convergence on RMS density matrix=1.00D-08 within 128 cycles.
 Requested convergence on MAX density matrix=1.00D-06.
 Requested convergence on             energy=1.00D-06.
 No special actions if energy rises.

 Cycle   1  Pass 1  IDiag  1:
 Inv3:  Mode=1 IEnd=      774192.
 Iteration    1 A*A^-1 deviation from unit magnitude is 2.22D-15 for     24.
 Iteration    1 A*A^-1 deviation from orthogonality  is 1.21D-15 for    415     54.
 Iteration    1 A^-1*A deviation from unit magnitude is 2.44D-15 for     24.
 Iteration    1 A^-1*A deviation from orthogonality  is 1.55D-15 for    272     80.
 E= -110.643100314303    
 DIIS: error= 7.46D-03 at cycle   1 NSaved=   1.
 NSaved= 1 IEnMin= 1 EnMin= -110.643100314303     IErMin= 1 ErrMin= 7.46D-03
 ErrMax= 7.46D-03  0.00D+00 EMaxC= 1.00D-01 BMatC= 1.85D-03 BMatP= 1.85D-03
 IDIUse=3 WtCom= 9.25D-01 WtEn= 7.46D-02
 Coeff-Com:  0.100D+01
 Coeff-En:   0.100D+01
 Coeff:      0.100D+01
 Gap=     0.196 Goal=   None    Shift=    0.000
 GapD=    0.196 DampG=1.000 DampE=1.000 DampFc=1.0000 IDamp=-1.
 RMSDP=2.10D-03 MaxDP=2.17D-02              OVMax= 1.91D-02

 Cycle   2  Pass 1  IDiag  1:
 E= -110.645501513867     Delta-E=       -0.002401199564 Rises=F Damp=F
 DIIS: error= 9.40D-04 at cycle   2 NSaved=   2.
 NSaved= 2 IEnMin= 2 EnMin= -110.645501513867     IErMin= 2 ErrMin= 9.40D-04
 ErrMax= 9.40D-04  0.00D+00 EMaxC= 1.00D-01 BMatC= 2.51D-05 BMatP= 1.85D-03
 IDIUse=3 WtCom= 9.91D-01 WtEn= 9.40D-03
 Coeff-Com:  0.600D-04 0.100D+01
 Coeff-En:   0.000D+00 0.100D+01
 Coeff:      0.594D-04 0.100D+01
 Gap=     0.196 Goal=   None    Shift=    0.000
 RMSDP=1.87D-04 MaxDP=1.31D-03 DE=-2.40D-03 OVMax= 2.36D-03

 Cycle   3  Pass 1  IDiag  1:
 E= -110.645519363497     Delta-E=       -0.000017849630 Rises=F Damp=F
 DIIS: error= 4.10D-04 at cycle   3 NSaved=   3.
 NSaved= 3 IEnMin= 3 EnMin= -110.645519363497     IErMin= 3 ErrMin= 4.10D-04
 ErrMax= 4.10D-04  0.00D+00 EMaxC= 1.00D-01 BMatC= 1.05D-05 BMatP= 2.51D-05
 IDIUse=3 WtCom= 9.96D-01 WtEn= 4.10D-03
 Coeff-Com: -0.144D-01 0.382D+00 0.632D+00
 Coeff-En:   0.000D+00 0.303D-01 0.970D+00
 Coeff:     -0.143D-01 0.381D+00 0.633D+00
 Gap=     0.196 Goal=   None    Shift=    0.000
 RMSDP=9.18D-05 MaxDP=8.98D-04 DE=-1.78D-05 OVMax= 1.11D-03

 Cycle   4  Pass 1  IDiag  1:
 E= -110.645527974654     Delta-E=       -0.000008611158 Rises=F Damp=F
 DIIS: error= 1.25D-04 at cycle   4 NSaved=   4.
 NSaved= 4 IEnMin= 4 EnMin= -110.645527974654     IErMin= 4 ErrMin= 1.25D-04
 ErrMax= 1.25D-04  0.00D+00 EMaxC= 1.00D-01 BMatC= 6.46D-07 BMatP= 1.05D-05
 IDIUse=3 WtCom= 9.99D-01 WtEn= 1.25D-03
 Coeff-Com: -0.571D-02 0.842D-01 0.254D+00 0.667D+00
 Coeff-En:   0.000D+00 0.000D+00 0.000D+00 0.100D+01
 Coeff:     -0.570D-02 0.841D-01 0.254D+00 0.668D+00
 Gap=     0.196 Goal=   None    Shift=    0.000
 RMSDP=1.80D-05 MaxDP=2.11D-04 DE=-8.61D-06 OVMax= 2.14D-04

 Cycle   5  Pass 1  IDiag  1:
 E= -110.645528556102     Delta-E=       -0.000000581448 Rises=F Damp=F
 DIIS: error= 5.02D-06 at cycle   5 NSaved=   5.
 NSaved= 5 IEnMin= 5 EnMin= -110.645528556102     IErMin= 5 ErrMin= 5.02D-06
 ErrMax= 5.02D-06  0.00D+00 EMaxC= 1.00D-01 BMatC= 1.12D-09 BMatP= 6.46D-07
 IDIUse=1 WtCom= 1.00D+00 WtEn= 0.00D+00
 Coeff-Com: -0.344D-04-0.244D-02 0.489D-02 0.374D-01 0.960D+00
 Coeff:     -0.344D-04-0.244D-02 0.489D-02 0.374D-01 0.960D+00
 Gap=     0.196 Goal=   None    Shift=    0.000
 RMSDP=1.43D-06 MaxDP=1.28D-05 DE=-5.81D-07 OVMax= 1.39D-05

 Cycle   6  Pass 1  IDiag  1:
 E= -110.645528557197     Delta-E=       -0.000000001095 Rises=F Damp=F
 DIIS: error= 9.08D-07 at cycle   6 NSaved=   6.
 NSaved= 6 IEnMin= 6 EnMin= -110.645528557197     IErMin= 6 ErrMin= 9.08D-07
 ErrMax= 9.08D-07  0.00D+00 EMaxC= 1.00D-01 BMatC= 3.75D-11 BMatP= 1.12D-09
 IDIUse=1 WtCom= 1.00D+00 WtEn= 0.00D+00
 Coeff-Com:  0.623D-04-0.137D-02-0.200D-02-0.179D-02 0.171D+00 0.834D+00
 Coeff:      0.623D-04-0.137D-02-0.200D-02-0.179D-02 0.171D+00 0.834D+00
 Gap=     0.196 Goal=   None    Shift=    0.000
 RMSDP=2.40D-07 MaxDP=2.80D-06 DE=-1.09D-09 OVMax= 2.69D-06

 Cycle   7  Pass 1  IDiag  1:
 E= -110.645528557235     Delta-E=       -0.000000000038 Rises=F Damp=F
 DIIS: error= 7.62D-08 at cycle   7 NSaved=   7.
 NSaved= 7 IEnMin= 7 EnMin= -110.645528557235     IErMin= 7 ErrMin= 7.62D-08
 ErrMax= 7.62D-08  0.00D+00 EMaxC= 1.00D-01 BMatC= 2.32D-13 BMatP= 3.75D-11
 IDIUse=1 WtCom= 1.00D+00 WtEn= 0.00D+00
 Coeff-Com:  0.235D-06 0.271D-04-0.276D-04-0.515D-03-0.147D-01 0.997D-02
 Coeff-Com:  0.101D+01
 Coeff:      0.235D-06 0.271D-04-0.276D-04-0.515D-03-0.147D-01 0.997D-02
 Coeff:      0.101D+01
 Gap=     0.196 Goal=   None    Shift=    0.000
 RMSDP=3.41D-08 MaxDP=2.90D-07 DE=-3.79D-11 OVMax= 4.45D-07

 Cycle   8  Pass 1  IDiag  1:
 E= -110.645528557235     Delta-E=       -0.000000000000 Rises=F Damp=F
 DIIS: error= 8.53D-09 at cycle   8 NSaved=   8.
 NSaved= 8 IEnMin= 8 EnMin= -110.645528557235     IErMin= 8 ErrMin= 8.53D-09
 ErrMax= 8.53D-09  0.00D+00 EMaxC= 1.00D-01 BMatC= 2.78D-15 BMatP= 2.32D-13
 IDIUse=1 WtCom= 1.00D+00 WtEn= 0.00D+00
 Coeff-Com: -0.568D-06 0.109D-04 0.277D-04 0.755D-05-0.773D-03-0.362D-02
 Coeff-Com: -0.393D-01 0.104D+01
 Coeff:     -0.568D-06 0.109D-04 0.277D-04 0.755D-05-0.773D-03-0.362D-02
 Coeff:     -0.393D-01 0.104D+01
 Gap=     0.196 Goal=   None    Shift=    0.000
 RMSDP=3.14D-09 MaxDP=2.05D-08 DE=-4.41D-13 OVMax= 4.07D-08

 Error on total polarization charges =  0.00297
 SCF Done:  E(RB3LYP) =  -110.645528557     A.U. after    8 cycles
            NFock=  8  Conv=0.31D-08     -V/T= 2.0084
 KE= 1.097250436087D+02 PE=-3.234414288609D+02 EE= 7.056455552150D+01
 Leave Link  502 at Fri May 10 16:12:34 2019, MaxMem=   104857600 cpu:               2.5 elap:               1.3
 (Enter /opt/software/gaussian/g16.b01/l701.exe)
 ... and contract with generalized density number  0.
 Compute integral first derivatives.
 R6Disp: Adding Grimme-D3 dispersion energy 1st derivatives to the gradient.
 D1PCM: PCM CHGder 1st derivatives, ID1Alg=3 FixD1E=F DoIter=F DoCFld=F I1PDM=0.
 GePol: Maximum number of non-zero 1st derivatives   =     228
 Leave Link  701 at Fri May 10 16:12:34 2019, MaxMem=   104857600 cpu:               0.9 elap:               0.4
 (Enter /opt/software/gaussian/g16.b01/l702.exe)
 L702 exits ... SP integral derivatives will be done elsewhere.
 Leave Link  702 at Fri May 10 16:12:34 2019, MaxMem=   104857600 cpu:               0.1 elap:               0.0
 (Enter /opt/software/gaussian/g16.b01/l703.exe)
 Integral derivatives from FoFJK, PRISM(SPDF).
 Compute integral first derivatives, UseDBF=F ICtDFT=           0.
 Calling FoFJK, ICntrl=      2127 FMM=F ISym2X=1 I1Cent= 0 IOpClX= 0 NMat=1 NMatS=1 NMatT=0.
 FoFJK:  IHMeth= 1 ICntrl=    2127 DoSepK=F KAlg= 0 I1Cent=           0 FoldK=F
 IRaf=         0 NMat=       1 IRICut=       1 DoRegI=T DoRafI=F ISym2E= 1 IDoP0=0 IntGTp=1.
 FoFCou: FMM=F IPFlag=           0 FMFlag=      100000 FMFlg1=         800
         NFxFlg=           0 DoJE=F BraDBF=F KetDBF=F FulRan=T
         wScrn=  0.000000 ICntrl=      2127 IOpCl=  0 I1Cent=           0 NGrid=           0
         NMat0=    1 NMatS0=      1 NMatT0=    0 NMatD0=    1 NMtDS0=    0 NMtDT0=    0
 Petite list used in FoFCou.
 Leave Link  703 at Fri May 10 16:12:35 2019, MaxMem=   104857600 cpu:               0.5 elap:               0.3
 (Enter /opt/software/gaussian/g16.b01/l716.exe)
 Dipole        = 4.44089210D-16-6.66133815D-16-1.27384598D-20
 ***** Axes restored to original set *****
 -------------------------------------------------------------------
 Center     Atomic                   Forces (Hartrees/Bohr)
 Number     Number              X              Y              Z
 -------------------------------------------------------------------
      1        7          -0.000007702   -0.018499328    0.018010962
      2        1           0.000000358   -0.012463539   -0.000837415
      3        7           0.000007702    0.018499328   -0.018010962
      4        1          -0.000000358    0.012463539    0.000837415
 -------------------------------------------------------------------
 Cartesian Forces:  Max     0.018499328 RMS     0.011709405
 Leave Link  716 at Fri May 10 16:12:35 2019, MaxMem=   104857600 cpu:               0.1 elap:               0.0
 (Enter /opt/software/gaussian/g16.b01/l103.exe)

 GradGradGradGradGradGradGradGradGradGradGradGradGradGradGradGradGradGrad
 Berny optimization.
 Using GEDIIS/GDIIS optimizer.
 FormGI is forming the generalized inverse of G from B-inverse, IUseBI=4.
 Internal  Forces:  Max     0.029035301 RMS     0.018174492
 Search for a local minimum.
 Step number   2 out of a maximum of   20
 All quantities printed in internal units (Hartrees-Bohrs-Radians)
 RMS Force = .18174D-01 SwitMx=.10000D-02 MixMth= 1
 Mixed Optimization -- RFO/linear search
 Update second derivatives using D2CorX and points    1    2
 DE= -1.74D-03 DEPred=-6.18D-03 R= 2.81D-01
 Trust test= 2.81D-01 RLast= 2.58D-01 DXMaxT set to 3.00D-01
 The second derivative matrix:
                          R1        R2        R3        A1        A2
           R1           0.40657
           R2           0.01294   0.93016
           R3           0.00079   0.01294   0.40657
           A1           0.00878   0.07748   0.00878   0.22807
           A2           0.00878   0.07748   0.00878   0.06807   0.22807
           D1          -0.00000  -0.00000  -0.00000  -0.00000  -0.00000
                          D1
           D1           0.03400
 ITU=  0  0
 Use linear search instead of GDIIS.
     Eigenvalues ---    0.03400   0.16000   0.27617   0.40578   0.40811
     Eigenvalues ---    0.94937
 RFO step:  Lambda=-2.16439507D-04 EMin= 3.40014271D-02
 Quartic linear search produced a step of -0.40604.
 Iteration  1 RMS(Cart)=  0.05169893 RMS(Int)=  0.00094475
 Iteration  2 RMS(Cart)=  0.00080051 RMS(Int)=  0.00000013
 Iteration  3 RMS(Cart)=  0.00000018 RMS(Int)=  0.00000001
 ITry= 1 IFail=0 DXMaxC= 6.62D-02 DCOld= 1.00D+10 DXMaxT= 3.00D-01 DXLimC= 3.00D+00 Rises=F
 ClnCor:  largest displacement from symmetrization is 2.82D-12 for atom     3.
 Variable       Old X    -DE/DX   Delta X   Delta X   Delta X     New X
                                 (Linear)    (Quad)   (Total)
    R1        1.95856   0.00315   0.00657  -0.00279   0.00378   1.96234
    R2        2.33464   0.02904   0.00415   0.01540   0.01955   2.35418
    R3        1.95856   0.00315   0.00657  -0.00279   0.00378   1.96234
    A1        1.79008   0.02365   0.07361  -0.00484   0.06877   1.85886
    A2        1.79008   0.02365   0.07361  -0.00484   0.06877   1.85886
    D1        3.14159  -0.00000   0.00000  -0.00000   0.00000   3.14159
         Item               Value     Threshold  Converged?
 Maximum Force            0.029035     0.000450     NO 
 RMS     Force            0.018174     0.000300     NO 
 Maximum Displacement     0.066162     0.001800     NO 
 RMS     Displacement     0.051234     0.001200     NO 
 Predicted change in Energy=-2.041281D-03
 Lowest energy point so far.  Saving SCF results.
 GradGradGradGradGradGradGradGradGradGradGradGradGradGradGradGradGradGrad

 Leave Link  103 at Fri May 10 16:12:35 2019, MaxMem=   104857600 cpu:               0.0 elap:               0.0
 (Enter /opt/software/gaussian/g16.b01/l202.exe)
                          Input orientation:                          
 ---------------------------------------------------------------------
 Center     Atomic      Atomic             Coordinates (Angstroms)
 Number     Number       Type             X           Y           Z
 ---------------------------------------------------------------------
      1          7           0        0.000016   -0.621721   -0.158430
      2          1           0       -0.000401   -0.977149    0.817276
      3          7           0       -0.000016    0.621721   -0.082138
      4          1           0        0.000401    0.977149   -1.057844
 ---------------------------------------------------------------------
                    Distance matrix (angstroms):
                    1          2          3          4
     1  N    0.000000
     2  H    1.038427   0.000000
     3  N    1.245780   1.834484   0.000000
     4  H    1.834484   2.708386   1.038427   0.000000
 Stoichiometry    H2N2
 Framework group  C2H[SGH(H2N2)]
 Deg. of freedom     3
 Full point group                 C2H     NOp   4
 RotChk:  IX=2 Diff= 5.81D-02
 Largest Abelian subgroup         C2H     NOp   4
 Largest concise Abelian subgroup C2      NOp   2
                         Standard orientation:                         
 ---------------------------------------------------------------------
 Center     Atomic      Atomic             Coordinates (Angstroms)
 Number     Number       Type             X           Y           Z
 ---------------------------------------------------------------------
      1          7           0        0.000000    0.622890    0.000000
      2          1           0       -0.995641    0.917899    0.000000
      3          7           0        0.000000   -0.622890    0.000000
      4          1           0        0.995641   -0.917899   -0.000000
 ---------------------------------------------------------------------
 Rotational constants (GHZ):         299.7184421          39.2486100          34.7040580
 Leave Link  202 at Fri May 10 16:12:35 2019, MaxMem=   104857600 cpu:               0.0 elap:               0.0
 (Enter /opt/software/gaussian/g16.b01/l301.exe)
 Standard basis: 6-31G(d,p) (6D, 7F)
 Ernie: Thresh=  0.10000D-02 Tol=  0.10000D-05 Strict=F.
 There are    15 symmetry adapted cartesian basis functions of AG  symmetry.
 There are     5 symmetry adapted cartesian basis functions of BG  symmetry.
 There are     5 symmetry adapted cartesian basis functions of AU  symmetry.
 There are    15 symmetry adapted cartesian basis functions of BU  symmetry.
 There are    15 symmetry adapted basis functions of AG  symmetry.
 There are     5 symmetry adapted basis functions of BG  symmetry.
 There are     5 symmetry adapted basis functions of AU  symmetry.
 There are    15 symmetry adapted basis functions of BU  symmetry.
    40 basis functions,    70 primitive gaussians,    40 cartesian basis functions
     8 alpha electrons        8 beta electrons
       nuclear repulsion energy        32.1821871044 Hartrees.
 IExCor=  402 DFT=T Ex+Corr=B3LYP ExCW=0 ScaHFX=  0.200000
 ScaDFX=  0.800000  0.720000  1.000000  0.810000 ScalE2=  1.000000  1.000000
 IRadAn=      5 IRanWt=     -1 IRanGd=            0 ICorTp=0 IEmpDi=131
 NAtoms=    4 NActive=    4 NUniq=    2 SFac= 4.00D+00 NAtFMM=   60 NAOKFM=F Big=F
 Integral buffers will be    131072 words long.
 Raffenetti 2 integral format.
 Two-electron integral symmetry is turned on.
 R6Disp:  Grimme-D3 Dispersion energy=       -0.0001948650 Hartrees.
 Nuclear repulsion after empirical dispersion term =       32.1819922394 Hartrees.
 ------------------------------------------------------------------------------
 Polarizable Continuum Model (PCM)
 =================================
 Model                : PCM.
 Atomic radii         : UFF (Universal Force Field).
 Polarization charges : Total charges.
 Charge compensation  : None.
 Solution method      : On-the-fly selection.
 Cavity type          : Scaled VdW (van der Waals Surface) (Alpha=1.100).
 Cavity algorithm     : GePol (No added spheres)
                        Default sphere list used, NSphG=    4.
                        Lebedev-Laikov grids with approx.  5.0 points / Ang**2.
                        Smoothing algorithm: York/Karplus (Gamma=1.0000).
                        Polarization charges: spherical gaussians, with
                                              point-specific exponents (IZeta= 3).
                        Self-potential: point-specific (ISelfS= 7).
                        Self-field    : sphere-specific E.n sum rule (ISelfD= 2).
 1st derivatives      : Analytical E(r).r(x)/FMM algorithm (CHGder, D1EAlg=3).
                        Cavity 1st derivative terms included.
 Solvent              : Acetonitrile, Eps=  35.688000 Eps(inf)=   1.806874
 ------------------------------------------------------------------------------
 Spheres list:
 ISph  on   Nord     Re0    Alpha      Xe            Ye            Ze
    1   N      1    1.8300  1.100      0.000000      0.622890      0.000000
    2   H      2    1.4430  1.100     -0.995641      0.917899      0.000000
    3   N      3    1.8300  1.100      0.000000     -0.622890      0.000000
    4   H      4    1.4430  1.100      0.995641     -0.917899     -0.000000
 ------------------------------------------------------------------------------
 GePol: Number of generator spheres                  =       4
 GePol: Total number of spheres                      =       4
 GePol: Number of exposed spheres                    =       4 (100.00%)
 GePol: Number of points                             =     518
 GePol: Average weight of points                     =       0.14
 GePol: Minimum weight of points                     =   0.50D-07
 GePol: Maximum weight of points                     =    0.20212
 GePol: Number of points with low weight             =      28
 GePol: Fraction of low-weight points (<1% of avg)   =       5.41%
 GePol: Cavity surface area                          =     74.214 Ang**2
 GePol: Cavity volume                                =     56.300 Ang**3
 Leave Link  301 at Fri May 10 16:12:35 2019, MaxMem=   104857600 cpu:               0.1 elap:               0.1
 (Enter /opt/software/gaussian/g16.b01/l302.exe)
 NPDir=0 NMtPBC=     1 NCelOv=     1 NCel=       1 NClECP=     1 NCelD=      1
         NCelK=      1 NCelE2=     1 NClLst=     1 CellRange=     0.0.
 One-electron integrals computed using PRISM.
 One-electron integral symmetry used in STVInt
 NBasis=    40 RedAO= T EigKep=  6.55D-03  NBF=    15     5     5    15
 NBsUse=    40 1.00D-06 EigRej= -1.00D+00 NBFU=    15     5     5    15
 Precomputing XC quadrature grid using
 IXCGrd= 4 IRadAn=           5 IRanWt=          -1 IRanGd=           0 AccXCQ= 0.00D+00.
 Generated NRdTot=       0 NPtTot=           0 NUsed=           0 NTot=          32
 NSgBfM=    40    40    40    40    40 MxSgAt=     4 MxSgA2=     4.
 Leave Link  302 at Fri May 10 16:12:35 2019, MaxMem=   104857600 cpu:               0.2 elap:               0.1
 (Enter /opt/software/gaussian/g16.b01/l303.exe)
 DipDrv:  MaxL=1.
 Leave Link  303 at Fri May 10 16:12:35 2019, MaxMem=   104857600 cpu:               0.1 elap:               0.0
 (Enter /opt/software/gaussian/g16.b01/l401.exe)
 Initial guess from the checkpoint file:  "B-trans.chk"
 B after Tr=    -0.000000    0.000000   -0.000000
         Rot=    0.999951   -0.000000    0.000000    0.009949 Ang=   1.14 deg.
 Guess basis will be translated and rotated to current coordinates.
 JPrj=2 DoOrth=T DoCkMO=T.
 Initial guess orbital symmetries:
       Occupied  (AG) (BU) (AG) (BU) (AG) (BU) (AU) (AG)
       Virtual   (BG) (AG) (BU) (BU) (AG) (AU) (BU) (AG) (BG) (BU)
                 (AG) (BU) (AG) (BU) (BG) (BU) (AU) (AU) (AG) (AG)
                 (AG) (BU) (BU) (BG) (BG) (AU) (BU) (AG) (AG) (BU)
                 (AG) (BU)
 The electronic state of the initial guess is 1-AG.
 Generating alternative initial guess.
 ExpMin= 1.61D-01 ExpMax= 4.17D+03 ExpMxC= 6.27D+02 IAcc=3 IRadAn=         5 AccDes= 0.00D+00
 Harris functional with IExCor=  402 and IRadAn=       5 diagonalized for initial guess.
 HarFok:  IExCor=  402 AccDes= 0.00D+00 IRadAn=         5 IDoV= 1 UseB2=F ITyADJ=14
 ICtDFT=  3500011 ScaDFX=  1.000000  1.000000  1.000000  1.000000
 FoFCou: FMM=F IPFlag=           0 FMFlag=      100000 FMFlg1=           0
         NFxFlg=           0 DoJE=T BraDBF=F KetDBF=T FulRan=T
         wScrn=  0.000000 ICntrl=       500 IOpCl=  0 I1Cent=   200000004 NGrid=           0
         NMat0=    1 NMatS0=      1 NMatT0=    0 NMatD0=    1 NMtDS0=    0 NMtDT0=    0
 Petite list used in FoFCou.
 Harris En= -110.621228221750    
 Leave Link  401 at Fri May 10 16:12:35 2019, MaxMem=   104857600 cpu:               0.4 elap:               0.2
 (Enter /opt/software/gaussian/g16.b01/l502.exe)
 Keep R1 ints in memory in symmetry-blocked form, NReq=2068184.
 FoFCou: FMM=F IPFlag=           0 FMFlag=           0 FMFlg1=           0
         NFxFlg=           0 DoJE=F BraDBF=F KetDBF=F FulRan=T
         wScrn=  0.000000 ICntrl=       600 IOpCl=  0 I1Cent=           0 NGrid=           0
         NMat0=    1 NMatS0=    820 NMatT0=    0 NMatD0=    1 NMtDS0=    0 NMtDT0=    0
 Petite list used in FoFCou.
 Closed shell SCF:
 Using DIIS extrapolation, IDIIS=  1040.
 NGot=   104857600 LenX=   104760288 LenY=   104758247
 Requested convergence on RMS density matrix=1.00D-08 within 128 cycles.
 Requested convergence on MAX density matrix=1.00D-06.
 Requested convergence on             energy=1.00D-06.
 No special actions if energy rises.

 Cycle   1  Pass 1  IDiag  1:
 Inv3:  Mode=1 IEnd=      804972.
 Iteration    1 A*A^-1 deviation from unit magnitude is 2.55D-15 for     34.
 Iteration    1 A*A^-1 deviation from orthogonality  is 1.44D-15 for    210     94.
 Iteration    1 A^-1*A deviation from unit magnitude is 2.00D-15 for     19.
 Iteration    1 A^-1*A deviation from orthogonality  is 1.13D-15 for    369     80.
 E= -110.647042513710    
 DIIS: error= 2.53D-03 at cycle   1 NSaved=   1.
 NSaved= 1 IEnMin= 1 EnMin= -110.647042513710     IErMin= 1 ErrMin= 2.53D-03
 ErrMax= 2.53D-03  0.00D+00 EMaxC= 1.00D-01 BMatC= 3.06D-04 BMatP= 3.06D-04
 IDIUse=3 WtCom= 9.75D-01 WtEn= 2.53D-02
 Coeff-Com:  0.100D+01
 Coeff-En:   0.100D+01
 Coeff:      0.100D+01
 Gap=     0.189 Goal=   None    Shift=    0.000
 GapD=    0.189 DampG=1.000 DampE=1.000 DampFc=1.0000 IDamp=-1.
 RMSDP=8.02D-04 MaxDP=8.61D-03              OVMax= 6.77D-03

 Cycle   2  Pass 1  IDiag  1:
 E= -110.647419477734     Delta-E=       -0.000376964023 Rises=F Damp=F
 DIIS: error= 4.83D-04 at cycle   2 NSaved=   2.
 NSaved= 2 IEnMin= 2 EnMin= -110.647419477734     IErMin= 2 ErrMin= 4.83D-04
 ErrMax= 4.83D-04  0.00D+00 EMaxC= 1.00D-01 BMatC= 9.08D-06 BMatP= 3.06D-04
 IDIUse=3 WtCom= 9.95D-01 WtEn= 4.83D-03
 Coeff-Com:  0.377D-01 0.962D+00
 Coeff-En:   0.000D+00 0.100D+01
 Coeff:      0.375D-01 0.962D+00
 Gap=     0.188 Goal=   None    Shift=    0.000
 RMSDP=1.14D-04 MaxDP=1.25D-03 DE=-3.77D-04 OVMax= 1.39D-03

 Cycle   3  Pass 1  IDiag  1:
 E= -110.647422563747     Delta-E=       -0.000003086014 Rises=F Damp=F
 DIIS: error= 3.61D-04 at cycle   3 NSaved=   3.
 NSaved= 3 IEnMin= 3 EnMin= -110.647422563747     IErMin= 3 ErrMin= 3.61D-04
 ErrMax= 3.61D-04  0.00D+00 EMaxC= 1.00D-01 BMatC= 6.01D-06 BMatP= 9.08D-06
 IDIUse=3 WtCom= 9.96D-01 WtEn= 3.61D-03
 Coeff-Com: -0.146D-01 0.445D+00 0.569D+00
 Coeff-En:   0.000D+00 0.367D+00 0.633D+00
 Coeff:     -0.145D-01 0.445D+00 0.570D+00
 Gap=     0.188 Goal=   None    Shift=    0.000
 RMSDP=6.16D-05 MaxDP=6.35D-04 DE=-3.09D-06 OVMax= 7.41D-04

 Cycle   4  Pass 1  IDiag  1:
 E= -110.647427871705     Delta-E=       -0.000005307958 Rises=F Damp=F
 DIIS: error= 3.79D-05 at cycle   4 NSaved=   4.
 NSaved= 4 IEnMin= 4 EnMin= -110.647427871705     IErMin= 4 ErrMin= 3.79D-05
 ErrMax= 3.79D-05  0.00D+00 EMaxC= 1.00D-01 BMatC= 6.28D-08 BMatP= 6.01D-06
 IDIUse=1 WtCom= 1.00D+00 WtEn= 0.00D+00
 Coeff-Com: -0.512D-02 0.784D-01 0.157D+00 0.770D+00
 Coeff:     -0.512D-02 0.784D-01 0.157D+00 0.770D+00
 Gap=     0.188 Goal=   None    Shift=    0.000
 RMSDP=5.81D-06 MaxDP=6.47D-05 DE=-5.31D-06 OVMax= 6.92D-05

 Cycle   5  Pass 1  IDiag  1:
 E= -110.647427927719     Delta-E=       -0.000000056014 Rises=F Damp=F
 DIIS: error= 2.67D-06 at cycle   5 NSaved=   5.
 NSaved= 5 IEnMin= 5 EnMin= -110.647427927719     IErMin= 5 ErrMin= 2.67D-06
 ErrMax= 2.67D-06  0.00D+00 EMaxC= 1.00D-01 BMatC= 2.71D-10 BMatP= 6.28D-08
 IDIUse=1 WtCom= 1.00D+00 WtEn= 0.00D+00
 Coeff-Com: -0.353D-04-0.316D-02 0.254D-02 0.636D-01 0.937D+00
 Coeff:     -0.353D-04-0.316D-02 0.254D-02 0.636D-01 0.937D+00
 Gap=     0.188 Goal=   None    Shift=    0.000
 RMSDP=4.36D-07 MaxDP=2.59D-06 DE=-5.60D-08 OVMax= 5.50D-06

 Cycle   6  Pass 1  IDiag  1:
 E= -110.647427927955     Delta-E=       -0.000000000236 Rises=F Damp=F
 DIIS: error= 2.98D-07 at cycle   6 NSaved=   6.
 NSaved= 6 IEnMin= 6 EnMin= -110.647427927955     IErMin= 6 ErrMin= 2.98D-07
 ErrMax= 2.98D-07  0.00D+00 EMaxC= 1.00D-01 BMatC= 4.08D-12 BMatP= 2.71D-10
 IDIUse=1 WtCom= 1.00D+00 WtEn= 0.00D+00
 Coeff-Com:  0.373D-04-0.105D-02-0.957D-03 0.335D-02 0.142D+00 0.856D+00
 Coeff:      0.373D-04-0.105D-02-0.957D-03 0.335D-02 0.142D+00 0.856D+00
 Gap=     0.188 Goal=   None    Shift=    0.000
 RMSDP=7.30D-08 MaxDP=9.07D-07 DE=-2.36D-10 OVMax= 7.08D-07

 Cycle   7  Pass 1  IDiag  1:
 E= -110.647427927959     Delta-E=       -0.000000000004 Rises=F Damp=F
 DIIS: error= 3.22D-08 at cycle   7 NSaved=   7.
 NSaved= 7 IEnMin= 7 EnMin= -110.647427927959     IErMin= 7 ErrMin= 3.22D-08
 ErrMax= 3.22D-08  0.00D+00 EMaxC= 1.00D-01 BMatC= 3.69D-14 BMatP= 4.08D-12
 IDIUse=1 WtCom= 1.00D+00 WtEn= 0.00D+00
 Coeff-Com:  0.304D-05-0.244D-04-0.157D-03-0.911D-03-0.905D-02 0.381D-01
 Coeff-Com:  0.972D+00
 Coeff:      0.304D-05-0.244D-04-0.157D-03-0.911D-03-0.905D-02 0.381D-01
 Coeff:      0.972D+00
 Gap=     0.188 Goal=   None    Shift=    0.000
 RMSDP=7.31D-09 MaxDP=8.25D-08 DE=-4.05D-12 OVMax= 6.63D-08

 Error on total polarization charges =  0.00297
 SCF Done:  E(RB3LYP) =  -110.647427928     A.U. after    7 cycles
            NFock=  7  Conv=0.73D-08     -V/T= 2.0091
 KE= 1.096465357435D+02 PE=-3.227634585363D+02 EE= 7.028750262541D+01
 Leave Link  502 at Fri May 10 16:12:36 2019, MaxMem=   104857600 cpu:               2.2 elap:               1.1
 (Enter /opt/software/gaussian/g16.b01/l701.exe)
 ... and contract with generalized density number  0.
 Compute integral first derivatives.
 R6Disp: Adding Grimme-D3 dispersion energy 1st derivatives to the gradient.
 D1PCM: PCM CHGder 1st derivatives, ID1Alg=3 FixD1E=F DoIter=F DoCFld=F I1PDM=0.
 GePol: Maximum number of non-zero 1st derivatives   =     237
 Leave Link  701 at Fri May 10 16:12:37 2019, MaxMem=   104857600 cpu:               0.9 elap:               0.5
 (Enter /opt/software/gaussian/g16.b01/l702.exe)
 L702 exits ... SP integral derivatives will be done elsewhere.
 Leave Link  702 at Fri May 10 16:12:37 2019, MaxMem=   104857600 cpu:               0.1 elap:               0.0
 (Enter /opt/software/gaussian/g16.b01/l703.exe)
 Integral derivatives from FoFJK, PRISM(SPDF).
 Compute integral first derivatives, UseDBF=F ICtDFT=           0.
 Calling FoFJK, ICntrl=      2127 FMM=F ISym2X=1 I1Cent= 0 IOpClX= 0 NMat=1 NMatS=1 NMatT=0.
 FoFJK:  IHMeth= 1 ICntrl=    2127 DoSepK=F KAlg= 0 I1Cent=           0 FoldK=F
 IRaf=         0 NMat=       1 IRICut=       1 DoRegI=T DoRafI=F ISym2E= 1 IDoP0=0 IntGTp=1.
 FoFCou: FMM=F IPFlag=           0 FMFlag=      100000 FMFlg1=         800
         NFxFlg=           0 DoJE=F BraDBF=F KetDBF=F FulRan=T
         wScrn=  0.000000 ICntrl=      2127 IOpCl=  0 I1Cent=           0 NGrid=           0
         NMat0=    1 NMatS0=      1 NMatT0=    0 NMatD0=    1 NMtDS0=    0 NMtDT0=    0
 Petite list used in FoFCou.
 Leave Link  703 at Fri May 10 16:12:37 2019, MaxMem=   104857600 cpu:               0.5 elap:               0.3
 (Enter /opt/software/gaussian/g16.b01/l716.exe)
 Dipole        = 0.00000000D+00-2.22044605D-16 6.63956514D-21
 ***** Axes restored to original set *****
 -------------------------------------------------------------------
 Center     Atomic                   Forces (Hartrees/Bohr)
 Number     Number              X              Y              Z
 -------------------------------------------------------------------
      1        7          -0.000000112   -0.001022021    0.000261359
      2        1           0.000000146    0.000115922   -0.000342059
      3        7           0.000000112    0.001022021   -0.000261359
      4        1          -0.000000146   -0.000115922    0.000342059
 -------------------------------------------------------------------
 Cartesian Forces:  Max     0.001022021 RMS     0.000455206
 Leave Link  716 at Fri May 10 16:12:37 2019, MaxMem=   104857600 cpu:               0.1 elap:               0.0
 (Enter /opt/software/gaussian/g16.b01/l103.exe)

 GradGradGradGradGradGradGradGradGradGradGradGradGradGradGradGradGradGrad
 Berny optimization.
 Using GEDIIS/GDIIS optimizer.
 FormGI is forming the generalized inverse of G from B-inverse, IUseBI=4.
 Internal  Forces:  Max     0.000898549 RMS     0.000420133
 Search for a local minimum.
 Step number   3 out of a maximum of   20
 All quantities printed in internal units (Hartrees-Bohrs-Radians)
 RMS Force = .42013D-03 SwitMx=.10000D-02 MixMth= 2
 Mixed Optimization -- En-DIIS/RFO-DIIS
 Update second derivatives using D2CorX and points    1    2    3
 DE= -1.90D-03 DEPred=-2.04D-03 R= 9.30D-01
 TightC=F SS=  1.41D+00  RLast= 9.93D-02 DXNew= 5.0454D-01 2.9804D-01
 Trust test= 9.30D-01 RLast= 9.93D-02 DXMaxT set to 3.00D-01
 The second derivative matrix:
                          R1        R2        R3        A1        A2
           R1           0.40709
           R2           0.01633   0.89010
           R3           0.00130   0.01633   0.40709
           A1           0.01195   0.07718   0.01195   0.24042
           A2           0.01195   0.07718   0.01195   0.08042   0.24042
           D1          -0.00000  -0.00000  -0.00000  -0.00000  -0.00000
                          D1
           D1           0.03400
 ITU=  1  0  0
 Use linear search instead of GDIIS.
     Eigenvalues ---    0.03400   0.16000   0.29724   0.40578   0.41032
     Eigenvalues ---    0.91176
 RFO step:  Lambda=-1.55857884D-06 EMin= 3.40014271D-02
 Quartic linear search produced a step of  0.00370.
 Iteration  1 RMS(Cart)=  0.00048633 RMS(Int)=  0.00000015
 Iteration  2 RMS(Cart)=  0.00000011 RMS(Int)=  0.00000001
 ITry= 1 IFail=0 DXMaxC= 5.49D-04 DCOld= 1.00D+10 DXMaxT= 3.00D-01 DXLimC= 3.00D+00 Rises=F
 ClnCor:  largest displacement from symmetrization is 7.01D-09 for atom     3.
 Variable       Old X    -DE/DX   Delta X   Delta X   Delta X     New X
                                 (Linear)    (Quad)   (Total)
    R1        1.96234  -0.00035   0.00001  -0.00091  -0.00090   1.96144
    R2        2.35418   0.00090   0.00007   0.00101   0.00108   2.35526
    R3        1.96234  -0.00035   0.00001  -0.00091  -0.00090   1.96144
    A1        1.85886  -0.00001   0.00025  -0.00046  -0.00021   1.85865
    A2        1.85886  -0.00001   0.00025  -0.00046  -0.00021   1.85865
    D1        3.14159   0.00000   0.00000   0.00000   0.00000   3.14159
         Item               Value     Threshold  Converged?
 Maximum Force            0.000899     0.000450     NO 
 RMS     Force            0.000420     0.000300     NO 
 Maximum Displacement     0.000549     0.001800     YES
 RMS     Displacement     0.000486     0.001200     YES
 Predicted change in Energy=-8.065188D-07
 Lowest energy point so far.  Saving SCF results.
 GradGradGradGradGradGradGradGradGradGradGradGradGradGradGradGradGradGrad

 Leave Link  103 at Fri May 10 16:12:37 2019, MaxMem=   104857600 cpu:               0.1 elap:               0.0
 (Enter /opt/software/gaussian/g16.b01/l202.exe)
                          Input orientation:                          
 ---------------------------------------------------------------------
 Center     Atomic      Atomic             Coordinates (Angstroms)
 Number     Number       Type             X           Y           Z
 ---------------------------------------------------------------------
      1          7           0        0.000016   -0.622011   -0.158362
      2          1           0       -0.000401   -0.976939    0.817020
      3          7           0       -0.000016    0.622011   -0.082206
      4          1           0        0.000401    0.976939   -1.057588
 ---------------------------------------------------------------------
                    Distance matrix (angstroms):
                    1          2          3          4
     1  N    0.000000
     2  H    1.037952   0.000000
     3  N    1.246351   1.834461   0.000000
     4  H    1.834461   2.707729   1.037952   0.000000
 Stoichiometry    H2N2
 Framework group  C2H[SGH(H2N2)]
 Deg. of freedom     3
 Full point group                 C2H     NOp   4
 RotChk:  IX=2 Diff= 1.94D-04
 Largest Abelian subgroup         C2H     NOp   4
 Largest concise Abelian subgroup C2      NOp   2
                         Standard orientation:                         
 ---------------------------------------------------------------------
 Center     Atomic      Atomic             Coordinates (Angstroms)
 Number     Number       Type             X           Y           Z
 ---------------------------------------------------------------------
      1          7           0        0.000000    0.623176    0.000000
      2          1           0       -0.995247    0.917841    0.000000
      3          7           0        0.000000   -0.623176    0.000000
      4          1           0        0.995247   -0.917841    0.000000
 ---------------------------------------------------------------------
 Rotational constants (GHZ):         299.8942199          39.2206864          34.6845772
 Leave Link  202 at Fri May 10 16:12:37 2019, MaxMem=   104857600 cpu:               0.1 elap:               0.0
 (Enter /opt/software/gaussian/g16.b01/l301.exe)
 Standard basis: 6-31G(d,p) (6D, 7F)
 Ernie: Thresh=  0.10000D-02 Tol=  0.10000D-05 Strict=F.
 There are    15 symmetry adapted cartesian basis functions of AG  symmetry.
 There are     5 symmetry adapted cartesian basis functions of BG  symmetry.
 There are     5 symmetry adapted cartesian basis functions of AU  symmetry.
 There are    15 symmetry adapted cartesian basis functions of BU  symmetry.
 There are    15 symmetry adapted basis functions of AG  symmetry.
 There are     5 symmetry adapted basis functions of BG  symmetry.
 There are     5 symmetry adapted basis functions of AU  symmetry.
 There are    15 symmetry adapted basis functions of BU  symmetry.
    40 basis functions,    70 primitive gaussians,    40 cartesian basis functions
     8 alpha electrons        8 beta electrons
       nuclear repulsion energy        32.1760057996 Hartrees.
 IExCor=  402 DFT=T Ex+Corr=B3LYP ExCW=0 ScaHFX=  0.200000
 ScaDFX=  0.800000  0.720000  1.000000  0.810000 ScalE2=  1.000000  1.000000
 IRadAn=      5 IRanWt=     -1 IRanGd=            0 ICorTp=0 IEmpDi=131
 NAtoms=    4 NActive=    4 NUniq=    2 SFac= 4.00D+00 NAtFMM=   60 NAOKFM=F Big=F
 Integral buffers will be    131072 words long.
 Raffenetti 2 integral format.
 Two-electron integral symmetry is turned on.
 R6Disp:  Grimme-D3 Dispersion energy=       -0.0001949779 Hartrees.
 Nuclear repulsion after empirical dispersion term =       32.1758108217 Hartrees.
 ------------------------------------------------------------------------------
 Polarizable Continuum Model (PCM)
 =================================
 Model                : PCM.
 Atomic radii         : UFF (Universal Force Field).
 Polarization charges : Total charges.
 Charge compensation  : None.
 Solution method      : On-the-fly selection.
 Cavity type          : Scaled VdW (van der Waals Surface) (Alpha=1.100).
 Cavity algorithm     : GePol (No added spheres)
                        Default sphere list used, NSphG=    4.
                        Lebedev-Laikov grids with approx.  5.0 points / Ang**2.
                        Smoothing algorithm: York/Karplus (Gamma=1.0000).
                        Polarization charges: spherical gaussians, with
                                              point-specific exponents (IZeta= 3).
                        Self-potential: point-specific (ISelfS= 7).
                        Self-field    : sphere-specific E.n sum rule (ISelfD= 2).
 1st derivatives      : Analytical E(r).r(x)/FMM algorithm (CHGder, D1EAlg=3).
                        Cavity 1st derivative terms included.
 Solvent              : Acetonitrile, Eps=  35.688000 Eps(inf)=   1.806874
 ------------------------------------------------------------------------------
 Spheres list:
 ISph  on   Nord     Re0    Alpha      Xe            Ye            Ze
    1   N      1    1.8300  1.100      0.000000      0.623176      0.000000
    2   H      2    1.4430  1.100     -0.995247      0.917841      0.000000
    3   N      3    1.8300  1.100      0.000000     -0.623176      0.000000
    4   H      4    1.4430  1.100      0.995247     -0.917841      0.000000
 ------------------------------------------------------------------------------
 GePol: Number of generator spheres                  =       4
 GePol: Total number of spheres                      =       4
 GePol: Number of exposed spheres                    =       4 (100.00%)
 GePol: Number of points                             =     518
 GePol: Average weight of points                     =       0.14
 GePol: Minimum weight of points                     =   0.47D-07
 GePol: Maximum weight of points                     =    0.20212
 GePol: Number of points with low weight             =      28
 GePol: Fraction of low-weight points (<1% of avg)   =       5.41%
 GePol: Cavity surface area                          =     74.216 Ang**2
 GePol: Cavity volume                                =     56.301 Ang**3
 Leave Link  301 at Fri May 10 16:12:37 2019, MaxMem=   104857600 cpu:               0.2 elap:               0.1
 (Enter /opt/software/gaussian/g16.b01/l302.exe)
 NPDir=0 NMtPBC=     1 NCelOv=     1 NCel=       1 NClECP=     1 NCelD=      1
         NCelK=      1 NCelE2=     1 NClLst=     1 CellRange=     0.0.
 One-electron integrals computed using PRISM.
 One-electron integral symmetry used in STVInt
 NBasis=    40 RedAO= T EigKep=  6.56D-03  NBF=    15     5     5    15
 NBsUse=    40 1.00D-06 EigRej= -1.00D+00 NBFU=    15     5     5    15
 Precomputing XC quadrature grid using
 IXCGrd= 4 IRadAn=           5 IRanWt=          -1 IRanGd=           0 AccXCQ= 0.00D+00.
 Generated NRdTot=       0 NPtTot=           0 NUsed=           0 NTot=          32
 NSgBfM=    40    40    40    40    40 MxSgAt=     4 MxSgA2=     4.
 Leave Link  302 at Fri May 10 16:12:38 2019, MaxMem=   104857600 cpu:               0.2 elap:               0.1
 (Enter /opt/software/gaussian/g16.b01/l303.exe)
 DipDrv:  MaxL=1.
 Leave Link  303 at Fri May 10 16:12:38 2019, MaxMem=   104857600 cpu:               0.1 elap:               0.1
 (Enter /opt/software/gaussian/g16.b01/l401.exe)
 Initial guess from the checkpoint file:  "B-trans.chk"
 B after Tr=    -0.000000    0.000000    0.000000
         Rot=    1.000000    0.000000   -0.000000    0.000033 Ang=   0.00 deg.
 Guess basis will be translated and rotated to current coordinates.
 JPrj=2 DoOrth=T DoCkMO=T.
 Initial guess orbital symmetries:
       Occupied  (AG) (BU) (AG) (BU) (AG) (BU) (AU) (AG)
       Virtual   (BG) (BU) (AG) (BU) (AG) (AU) (BU) (AG) (BG) (BU)
                 (BU) (AG) (AG) (BU) (BG) (AU) (BU) (AU) (AG) (AG)
                 (BU) (AG) (BG) (BU) (BG) (AU) (BU) (AG) (AG) (BU)
                 (AG) (BU)
 The electronic state of the initial guess is 1-AG.
 Leave Link  401 at Fri May 10 16:12:38 2019, MaxMem=   104857600 cpu:               0.2 elap:               0.1
 (Enter /opt/software/gaussian/g16.b01/l502.exe)
 Keep R1 ints in memory in symmetry-blocked form, NReq=2068184.
[...]
 GePol: Maximum number of non-zero 2nd derivatives   =     237
 Leave Link  701 at Fri May 10 16:12:46 2019, MaxMem=   104857600 cpu:               2.7 elap:               1.3
 (Enter /opt/software/gaussian/g16.b01/l702.exe)
 L702 exits ... SP integral derivatives will be done elsewhere.
 Leave Link  702 at Fri May 10 16:12:47 2019, MaxMem=   104857600 cpu:               0.1 elap:               0.0
 (Enter /opt/software/gaussian/g16.b01/l703.exe)
 Integral derivatives from FoFJK, PRISM(SPDF).
 Compute integral second derivatives, UseDBF=F ICtDFT=           0.
 Calling FoFJK, ICntrl=    100127 FMM=F ISym2X=1 I1Cent= 0 IOpClX= 0 NMat=1 NMatS=1 NMatT=0.
 FoFJK:  IHMeth= 1 ICntrl=  100127 DoSepK=F KAlg= 0 I1Cent=           0 FoldK=F
 IRaf=         0 NMat=       1 IRICut=       1 DoRegI=T DoRafI=F ISym2E= 1 IDoP0=0 IntGTp=1.
 FoFCou: FMM=F IPFlag=           0 FMFlag=      100000 FMFlg1=         800
         NFxFlg=           0 DoJE=F BraDBF=F KetDBF=F FulRan=T
         wScrn=  0.000000 ICntrl=    100127 IOpCl=  0 I1Cent=           0 NGrid=           0
         NMat0=    1 NMatS0=      1 NMatT0=    0 NMatD0=    1 NMtDS0=    0 NMtDT0=    0
 Petite list used in FoFCou.
 Leave Link  703 at Fri May 10 16:12:47 2019, MaxMem=   104857600 cpu:               1.6 elap:               0.8
 (Enter /opt/software/gaussian/g16.b01/l716.exe)
 Dipole        =-3.24690138D-16-1.02531935D-15 1.01356822D-19
 Polarizability= 1.70604400D+01-6.04442168D+00 2.19841656D+01
                -7.42808325D-16 1.99050733D-17 7.31772181D+00
 Full mass-weighted force constant matrix:
 Low frequencies ---  -12.9955   -0.0026   -0.0025   -0.0020   23.4785   59.9460
 Low frequencies --- 1342.2488 1361.4080 1606.3615
 Diagonal vibrational polarizability:
        0.0788319       1.8279974       1.8776757
 Harmonic frequencies (cm**-1), IR intensities (KM/Mole), Raman scattering
 activities (A**4/AMU), depolarization ratios for plane and unpolarized
 incident light, reduced masses (AMU), force constants (mDyne/A),
 and normal coordinates:
                      1                      2                      3
                     AU                     BU                     AG
 Frequencies --   1342.2488              1361.4080              1606.3613
 Red. masses --      1.0748                 1.0748                 1.2904
 Frc consts  --      1.1409                 1.1737                 1.9618
 IR Inten    --    125.7053               122.0672                 0.0000
  Atom  AN      X      Y      Z        X      Y      Z        X      Y      Z
     1   7     0.00  -0.00  -0.05    -0.01  -0.05   0.00    -0.09  -0.05  -0.00
     2   1     0.00  -0.00   0.71     0.20   0.68  -0.00     0.13   0.69   0.00
     3   7    -0.00   0.00  -0.05    -0.01  -0.05   0.00     0.09   0.05  -0.00
     4   1    -0.00   0.00   0.71     0.20   0.68  -0.00    -0.13  -0.69   0.00
                      4                      5                      6
                     AG                     AG                     BU
 Frequencies --   1658.1557              3235.0293              3258.8340
 Red. masses --      8.6743                 1.0728                 1.0748
 Frc consts  --     14.0520                 6.6148                 6.7251
 IR Inten    --      0.0000                 0.0000                53.0599
  Atom  AN      X      Y      Z        X      Y      Z        X      Y      Z
     1   7    -0.05   0.54  -0.00    -0.05   0.01   0.00    -0.05   0.01  -0.00
     2   1    -0.05   0.45   0.00     0.68  -0.20  -0.00     0.68  -0.20   0.00
     3   7     0.05  -0.54  -0.00     0.05  -0.01   0.00    -0.05   0.01  -0.00
     4   1     0.05  -0.45   0.00    -0.68   0.20  -0.00     0.68  -0.20   0.00

 -------------------
 - Thermochemistry -
 -------------------
 Temperature   298.150 Kelvin.  Pressure   1.00000 Atm.
 Atom     1 has atomic number  7 and mass  14.00307
 Atom     2 has atomic number  1 and mass   1.00783
 Atom     3 has atomic number  7 and mass  14.00307
 Atom     4 has atomic number  1 and mass   1.00783
 Molecular mass:    30.02180 amu.
 Principal axes and moments of inertia in atomic units:
                           1         2         3
     Eigenvalues --     6.01793  46.01503  52.03296
           X           -0.16673   0.98600   0.00000
           Y            0.98600   0.16673   0.00000
           Z            0.00000   0.00000   1.00000
 This molecule is an asymmetric top.
 Rotational symmetry number  2.
 Rotational temperatures (Kelvin)     14.39265     1.88230     1.66460
 Rotational constants (GHZ):         299.89422    39.22069    34.68458
 Zero-point vibrational energy      74539.5 (Joules/Mol)
                                   17.81538 (Kcal/Mol)
 Vibrational temperatures:   1931.20  1958.76  2311.20  2385.72  4654.49
          (Kelvin)           4688.74
 
 Zero-point correction=                           0.028391 (Hartree/Particle)
 Thermal correction to Energy=                    0.031247
 Thermal correction to Enthalpy=                  0.032191
 Thermal correction to Gibbs Free Energy=         0.007423
 Sum of electronic and zero-point Energies=           -110.619038
 Sum of electronic and thermal Energies=              -110.616182
 Sum of electronic and thermal Enthalpies=            -110.615238
 Sum of electronic and thermal Free Energies=         -110.640006
 
                     E (Thermal)             CV                S
                      KCal/Mol        Cal/Mol-Kelvin    Cal/Mol-Kelvin
 Total                   19.608              6.305             52.129
 Electronic               0.000              0.000              0.000
 Translational            0.889              2.981             36.131
 Rotational               0.889              2.981             15.940
 Vibrational             17.830              0.343              0.057
                       Q            Log10(Q)             Ln(Q)
 Total Bot       0.385110D-03         -3.414415         -7.861981
 Total V=0       0.440907D+10          9.644347         22.206930
 Vib (Bot)       0.876694D-13        -13.057152        -30.065204
 Vib (V=0)       0.100371D+01          0.001610          0.003708
 Electronic      0.100000D+01          0.000000          0.000000
 Translational   0.646560D+07          6.810609         15.682007
 Rotational      0.679404D+03          2.832128          6.521216
 
                                                         Title Card Required
                                                             IR Spectrum
 
     33                                                             1 1        11                                                    
     22                                                             6 6        33                                                    
     53                                                             5 0        64                                                    
     95                                                             8 6        12                                                    
 
     X                                                                         XX                                                    
     X                                                                         XX                                                    
     X                                                                         XX                                                    
     X                                                                         XX                                                    
     X                                                                         XX                                                    
     X                                                                         XX                                                    
     X                                                                         XX                                                    
     X                                                                         XX                                                    
                                                                               XX                                                    
                                                                               XX                                                    
                                                                               XX                                                    
                                                                               XX                                                    
                                                                               XX                                                    
                                                                               XX                                                    
                                                                               XX                                                    
                                                                               XX                                                    
                                                                               XX                                                    
                                                                               XX                                                    
                                                                               XX                                                    
                                                                                X                                                    
 
 ***** Axes restored to original set *****
 -------------------------------------------------------------------
 Center     Atomic                   Forces (Hartrees/Bohr)
 Number     Number              X              Y              Z
 -------------------------------------------------------------------
      1        7          -0.000000003   -0.000161218    0.000007649
      2        1           0.000000020    0.000011700   -0.000047012
      3        7           0.000000003    0.000161218   -0.000007649
      4        1          -0.000000020   -0.000011700    0.000047012
 -------------------------------------------------------------------
 Cartesian Forces:  Max     0.000161218 RMS     0.000068795
 Force constants in Cartesian coordinates: 
                1             2             3             4             5 
      1  0.320283D-01
      2  0.253299D-04  0.788009D+00
      3 -0.187195D-03 -0.592328D-01  0.469775D+00
      4 -0.320902D-01 -0.396411D-04  0.136871D-03  0.321170D-01
      5 -0.171715D-04 -0.595496D-01  0.401547D-01  0.434272D-04  0.111076D+00
      6  0.136871D-03  0.926988D-01 -0.352156D+00 -0.130587D-03 -0.101552D+00
      7  0.320720D-01  0.173914D-04  0.685058D-04 -0.320101D-01 -0.255498D-04
      8  0.173914D-04 -0.685867D+00 -0.406689D-01 -0.308020D-05 -0.425928D-01
      9  0.685058D-04 -0.406689D-01 -0.128125D+00 -0.181816D-04  0.597470D-01
     10 -0.320101D-01 -0.308020D-05 -0.181816D-04  0.319832D-01  0.000000D+00
     11 -0.255498D-04 -0.425928D-01  0.597470D-01  0.000000D+00 -0.893395D-02
     12 -0.181816D-04  0.720291D-02  0.105067D-01  0.118979D-04  0.165074D-02
                6             7             8             9            10 
      6  0.337489D+00
      7 -0.181816D-04  0.320283D-01
      8  0.720291D-02  0.253299D-04  0.788009D+00
      9  0.105067D-01 -0.187195D-03 -0.592328D-01  0.469775D+00
     10  0.118979D-04 -0.320902D-01 -0.396411D-04  0.136871D-03  0.321170D-01
     11  0.165074D-02 -0.171715D-04 -0.595496D-01  0.401547D-01  0.434272D-04
     12  0.416055D-02  0.136871D-03  0.926988D-01 -0.352156D+00 -0.130587D-03
               11            12 
     11  0.111076D+00
     12 -0.101552D+00  0.337489D+00
 FormGI is forming the generalized inverse of G from B-inverse, IUseBI=4.
 Force constants in internal coordinates: 
                1             2             3             4             5 
      1  0.376280D+00
      2  0.254551D-01  0.774035D+00
      3 -0.156814D-02  0.254551D-01  0.376280D+00
      4  0.992882D-02  0.813027D-01  0.107514D-01  0.277874D+00
      5  0.107514D-01  0.813027D-01  0.992882D-02  0.242530D-01  0.277874D+00
      6  0.000000D+00  0.000000D+00  0.000000D+00  0.000000D+00  0.000000D+00
                6 
      6  0.113332D+00
 Leave Link  716 at Fri May 10 16:12:47 2019, MaxMem=   104857600 cpu:               0.1 elap:               0.1
 (Enter /opt/software/gaussian/g16.b01/l103.exe)

 GradGradGradGradGradGradGradGradGradGradGradGradGradGradGradGradGradGrad
 Berny optimization.
 Red2BG is reusing G-inverse.
 Internal  Forces:  Max     0.000140862 RMS     0.000063012
 Search for a local minimum.
 Step number   1 out of a maximum of    2
 All quantities printed in internal units (Hartrees-Bohrs-Radians)
 Second derivative matrix not updated -- analytic derivatives used.
 The second derivative matrix:
                          R1        R2        R3        A1        A2
           R1           0.37628
           R2           0.02546   0.77403
           R3          -0.00157   0.02546   0.37628
           A1           0.00993   0.08130   0.01075   0.27787
           A2           0.01075   0.08130   0.00993   0.02425   0.27787
           D1           0.00000   0.00000   0.00000   0.00000   0.00000
                          D1
           D1           0.11333
 ITU=  0
     Eigenvalues ---    0.11333   0.25362   0.27411   0.37253   0.37785
     Eigenvalues ---    0.80423
 Angle between quadratic step and forces=  24.69 degrees.
 Linear search not attempted -- first point.
 Iteration  1 RMS(Cart)=  0.00009456 RMS(Int)=  0.00000001
 Iteration  2 RMS(Cart)=  0.00000001 RMS(Int)=  0.00000001
 ITry= 1 IFail=0 DXMaxC= 1.04D-04 DCOld= 1.00D+10 DXMaxT= 3.00D-01 DXLimC= 3.00D+00 Rises=F
 ClnCor:  largest displacement from symmetrization is 7.01D-09 for atom     2.
 Variable       Old X    -DE/DX   Delta X   Delta X   Delta X     New X
                                 (Linear)    (Quad)   (Total)
    R1        1.96144  -0.00004   0.00000  -0.00012  -0.00012   1.96132
    R2        2.35526   0.00014   0.00000   0.00021   0.00021   2.35547
    R3        1.96144  -0.00004   0.00000  -0.00012  -0.00012   1.96132
    A1        1.85865  -0.00002   0.00000  -0.00010  -0.00010   1.85855
    A2        1.85865  -0.00002   0.00000  -0.00010  -0.00010   1.85855
    D1        3.14159  -0.00000   0.00000  -0.00000   0.00000  -3.14159
         Item               Value     Threshold  Converged?
 Maximum Force            0.000141     0.000450     YES
 RMS     Force            0.000063     0.000300     YES
 Maximum Displacement     0.000104     0.001800     YES
 RMS     Displacement     0.000095     0.001200     YES
 Predicted change in Energy=-2.147727D-08
 Optimization completed.
    -- Stationary point found.
                           ----------------------------
                           !   Optimized Parameters   !
                           ! (Angstroms and Degrees)  !
 --------------------------                            --------------------------
 ! Name  Definition              Value          Derivative Info.                !
 --------------------------------------------------------------------------------
 ! R1    R(1,2)                  1.038          -DE/DX =    0.0                 !
 ! R2    R(1,3)                  1.2464         -DE/DX =    0.0001              !
 ! R3    R(3,4)                  1.038          -DE/DX =    0.0                 !
 ! A1    A(2,1,3)              106.4926         -DE/DX =    0.0                 !
 ! A2    A(1,3,4)              106.4926         -DE/DX =    0.0                 !
 ! D1    D(2,1,3,4)           -180.0            -DE/DX =    0.0                 !
 --------------------------------------------------------------------------------
 GradGradGradGradGradGradGradGradGradGradGradGradGradGradGradGradGradGrad

 Leave Link  103 at Fri May 10 16:12:47 2019, MaxMem=   104857600 cpu:               0.0 elap:               0.0
 (Enter /opt/software/gaussian/g16.b01/l9999.exe)
 Dipole is zero, so no output in dipole orientation.

 ----------------------------------------------------------------------

 Electric dipole moment (input orientation):
 (Debye = 10**-18 statcoulomb cm , SI units = C m)
                  (au)            (Debye)         (10**-30 SI)
   Tot        0.000000D+00      0.000000D+00      0.000000D+00
   x          0.000000D+00      0.000000D+00      0.000000D+00
   y          0.000000D+00      0.000000D+00      0.000000D+00
   z          0.000000D+00      0.000000D+00      0.000000D+00

 Dipole polarizability, Alpha (input orientation).
 (esu units = cm**3 , SI units = C**2 m**2 J**-1)
 Alpha(0;0):
               (au)            (10**-24 esu)      (10**-40 SI)
   iso        0.154541D+02      0.229006D+01      0.254804D+01
   aniso      0.166355D+02      0.246512D+01      0.274282D+01
   xx         0.731772D+01      0.108437D+01      0.120653D+01
   yx         0.243708D-02      0.361138D-03      0.401820D-03
   yy         0.227031D+02      0.336425D+01      0.374323D+01
   zx        -0.385889D-02     -0.571828D-03     -0.636244D-03
   zy        -0.569900D+01     -0.844504D+00     -0.939637D+00
   zz         0.163415D+02      0.242157D+01      0.269436D+01

 ----------------------------------------------------------------------
 1\1\GINC-GRA596\Freq\RB3LYP\6-31G(d,p)\H2N2\RZK\10-May-2019\0\\#P Geom
 =AllCheck Guess=TCheck SCRF=Check GenChk RB3LYP/6-31G(d,p) Freq\\Title
  Card Required\\0,1\N,0.0000162833,-0.6220112711,-0.1583618675\H,-0.00
 04008228,-0.9769385031,0.8170203137\N,-0.0000162833,0.6220112711,-0.08
 22062538\H,0.0004008228,0.9769385031,-1.0575884349\\Version=ES64L-G16R
 evB.01\State=1-AG\HF=-110.6474289\RMSD=8.541e-10\RMSF=6.880e-05\ZeroPo
 int=0.0283906\Thermal=0.031247\Dipole=0.,0.,0.\DipoleDeriv=-0.2461994,
 0.0000801,-0.000148,0.0000258,-0.189008,-0.0603184,-0.000148,-0.187404
 6,0.0998105,0.2461994,-0.0000801,0.000148,-0.0000258,0.189008,0.060318
 4,0.000148,0.1874047,-0.0998105,-0.2461994,0.0000801,-0.000148,0.00002
 58,-0.189008,-0.0603184,-0.000148,-0.1874047,0.0998105,0.2461994,-0.00
 00801,0.000148,-0.0000258,0.189008,0.0603184,0.000148,0.1874047,-0.099
 8105\Polar=7.3177235,0.0024371,22.7030651,-0.0038589,-5.6989953,16.341
 5388\Quadrupole=-0.1991334,-0.572276,0.7714093,0.0011713,-0.000415,-2.
 7389323\PG=C02H [SGH(H2N2)]\NImag=0\\0.03202825,0.00002533,0.78800931,
 -0.00018720,-0.05923279,0.46977467,-0.03209015,-0.00003964,0.00013687,
 0.03211703,-0.00001717,-0.05954965,0.04015468,0.00004343,0.11107635,0.
 00013687,0.09269878,-0.35215598,-0.00013059,-0.10155242,0.33748871,0.0
 3207199,0.00001739,0.00006851,-0.03201008,-0.00002555,-0.00001818,0.03
 202825,0.00001739,-0.68586691,-0.04066890,-0.00000308,-0.04259275,0.00
 720291,0.00002533,0.78800931,0.00006851,-0.04066890,-0.12812541,-0.000
 01818,0.05974700,0.01050671,-0.00018720,-0.05923279,0.46977467,-0.0320
 1008,-0.00000308,-0.00001818,0.03198320,-0.00000071,0.00001190,-0.0320
 9015,-0.00003964,0.00013687,0.03211703,-0.00002555,-0.04259275,0.05974
 700,-0.00000071,-0.00893395,0.00165074,-0.00001717,-0.05954965,0.04015
 468,0.00004343,0.11107635,-0.00001818,0.00720291,0.01050671,0.00001190
 ,0.00165074,0.00416055,0.00013687,0.09269878,-0.35215598,-0.00013059,-
 0.10155242,0.33748871\\0.,0.00016122,-0.00000765,-0.00000002,-0.000011
 70,0.00004701,0.,-0.00016122,0.00000765,0.00000002,0.00001170,-0.00004
 701\\\@


 BREAD HAS TO MOLD IN ORDER TO GET PENICILLIN.
          -- JERRY BOATZ
 Job cpu time:       0 days  0 hours  0 minutes 14.3 seconds.
 Elapsed time:       0 days  0 hours  0 minutes  7.4 seconds.
 File lengths (MBytes):  RWF=     11 Int=      0 D2E=      0 Chk=      4 Scr=      1
 Normal termination of Gaussian 16 at Fri May 10 16:12:48 2019.
