 Entering Gaussian System, Link 0=g16
 Initial command:
 /project/6004141/group/g16/g16/l1.exe "/scratch/rzk/GaussianScratch/Gau-311496.inp" -scrdir="/scratch/rzk/GaussianScratch/"
 Entering Link 1 = /project/6004141/group/g16/g16/l1.exe PID=    311497.
  
 Copyright (c) 1988,1990,1992,1993,1995,1998,2003,2009,2016,
            Gaussian, Inc.  All Rights Reserved.
  
 This is part of the Gaussian(R) 16 program.  It is based on
 the Gaussian(R) 09 system (copyright 2009, Gaussian, Inc.),
 the Gaussian(R) 03 system (copyright 2003, Gaussian, Inc.),
 the Gaussian(R) 98 system (copyright 1998, Gaussian, Inc.),
 the Gaussian(R) 94 system (copyright 1995, Gaussian, Inc.),
 the Gaussian 92(TM) system (copyright 1992, Gaussian, Inc.),
 the Gaussian 90(TM) system (copyright 1990, Gaussian, Inc.),
 the Gaussian 88(TM) system (copyright 1988, Gaussian, Inc.),
 the Gaussian 86(TM) system (copyright 1986, Carnegie Mellon
 University), and the Gaussian 82(TM) system (copyright 1983,
 Carnegie Mellon University). Gaussian is a federally registered
 trademark of Gaussian, Inc.
  
 This software contains proprietary and confidential information,
 including trade secrets, belonging to Gaussian, Inc.
  
 This software is provided under written license and may be
 used, copied, transmitted, or stored only in accord with that
 written license.
  
 The following legend is applicable only to US Government
 contracts under FAR:
  
                    RESTRICTED RIGHTS LEGEND
  
 Use, reproduction and disclosure by the US Government is
 subject to restrictions as set forth in subparagraphs (a)
 and (c) of the Commercial Computer Software - Restricted
 Rights clause in FAR 52.227-19.
  
 Gaussian, Inc.
 340 Quinnipiac St., Bldg. 40, Wallingford CT 06492
  
  
 ---------------------------------------------------------------
 Warning -- This program may not be used in any manner that
 competes with the business of Gaussian, Inc. or will provide
 assistance to any competitor of Gaussian, Inc.  The licensee
 of this program is prohibited from giving any competitor of
 Gaussian, Inc. access to this program.  By using this program,
 the user acknowledges that Gaussian, Inc. is engaged in the
 business of creating and licensing software in the field of
 computational chemistry and represents and warrants to the
 licensee that it is not a competitor of Gaussian, Inc. and that
 it will not use this program in any manner prohibited above.
 ---------------------------------------------------------------
  

 Cite this work as:
 Gaussian 16, Revision A.03,
 M. J. Frisch, G. W. Trucks, H. B. Schlegel, G. E. Scuseria, 
 M. A. Robb, J. R. Cheeseman, G. Scalmani, V. Barone, 
 G. A. Petersson, H. Nakatsuji, X. Li, M. Caricato, A. V. Marenich, 
 J. Bloino, B. G. Janesko, R. Gomperts, B. Mennucci, H. P. Hratchian, 
 J. V. Ortiz, A. F. Izmaylov, J. L. Sonnenberg, D. Williams-Young, 
 F. Ding, F. Lipparini, F. Egidi, J. Goings, B. Peng, A. Petrone, 
 T. Henderson, D. Ranasinghe, V. G. Zakrzewski, J. Gao, N. Rega, 
 G. Zheng, W. Liang, M. Hada, M. Ehara, K. Toyota, R. Fukuda, 
 J. Hasegawa, M. Ishida, T. Nakajima, Y. Honda, O. Kitao, H. Nakai, 
 T. Vreven, K. Throssell, J. A. Montgomery, Jr., J. E. Peralta, 
 F. Ogliaro, M. J. Bearpark, J. J. Heyd, E. N. Brothers, K. N. Kudin, 
 V. N. Staroverov, T. A. Keith, R. Kobayashi, J. Normand, 
 K. Raghavachari, A. P. Rendell, J. C. Burant, S. S. Iyengar, 
 J. Tomasi, M. Cossi, J. M. Millam, M. Klene, C. Adamo, R. Cammi, 
 J. W. Ochterski, R. L. Martin, K. Morokuma, O. Farkas, 
 J. B. Foresman, and D. J. Fox, Gaussian, Inc., Wallingford CT, 2016.
 
 ******************************************
 Gaussian 16:  ES64L-G16RevA.03 25-Dec-2016
                30-Jun-2019 
 ******************************************
 %NProcShared=40
 Will use up to   40 processors via shared memory.
 %chk=Step02-sp-td.chk
 %Mem=1GW
 ----------------------------------------------------------------------
 #p td=(50-50,nstates=100) rb3lyp/6-31g(d,p) scrf=(iefpcm,solvent=aceto
 nitrile) guess=(core,mix,always) empiricaldispersion=gd3
 ----------------------------------------------------------------------
 1/38=1,172=1/1;
 2/12=2,17=6,18=5,40=1/2;
 3/5=1,6=6,7=101,11=1,25=1,30=1,70=2201,72=2,74=-5,116=1,124=31/1,2,3,8;
 4/5=2,13=-1/1;
 5/5=2,38=5,53=2/2;
 8/6=1,10=2,108=100/1;
 9/41=100,42=1,48=2,70=2/14;
 6/7=2,8=2,9=2,10=2/1;
 99/5=1,9=1/99;
 Leave Link    1 at Sun Jun 30 17:08:01 2019, MaxMem=  1073741824 cpu:              11.9 elap:               0.3
 (Enter /project/6004141/group/g16/g16/l101.exe)
 ----------------------------------------------------------------------
 After the closed shell GS is optimized, find out which excited state w
 e need
 ----------------------------------------------------------------------
 Symbolic Z-matrix:
 Charge =  0 Multiplicity = 1
 C                     0.35429  -1.47937  -0.30068 
 H                     4.61802  -1.28328   1.29805 
 C                     1.78959   1.48604   0.3137 
 O                     2.51655   1.44709  -0.67856 
 O                     1.08739  -1.59167   0.68272 
 N                     4.64178  -0.83217  -0.64035 
 H                     4.54254  -1.38286  -1.49002 
 N                     4.21673  -1.68419   0.45352 
 H                     3.2011   -1.64085   0.56767 
 H                     4.0152   -0.02933  -0.73513 
 C                     0.94441  -1.34421  -1.68628 
 H                     0.59689  -2.15548  -2.33388 
 H                     0.62986  -0.39991  -2.13981 
 H                     2.03185  -1.35996  -1.62133 
 C                     2.34462   1.20312   1.69138 
 H                     2.13324   2.03014   2.37627 
 H                     1.87762   0.30053   2.09587 
 H                     3.42118   1.04823   1.61972 
 C                    -1.12782  -1.46691  -0.13376 
 C                    -1.66107  -1.66547   1.1511 
 C                    -2.00002  -1.24392  -1.2101 
 C                    -3.0362   -1.64507   1.35551 
 H                    -0.97697  -1.82964   1.97628 
 C                    -3.37897  -1.21781  -1.00329 
 H                    -1.611    -1.07944  -2.2084 
 C                    -3.89843  -1.41902   0.27693 
 H                    -3.43947  -1.80029   2.35146 
 H                    -4.04635  -1.03762  -1.84013 
 H                    -4.97248  -1.39839   0.4357 
 C                     0.33579   1.78998   0.16355 
 C                    -0.15191   2.12626  -1.11132 
 C                    -0.56215   1.70368   1.23851 
 C                    -1.50806   2.36076  -1.30891 
 H                     0.55151   2.19258  -1.93417 
 C                    -1.92258   1.93338   1.03808 
 H                    -0.21041   1.43512   2.22813 
 C                    -2.39736   2.25813  -0.23361 
 H                    -1.87676   2.6149   -2.2978 
 H                    -2.61288   1.84333   1.8703 
 H                    -3.45857   2.42581  -0.38923 
 
 ITRead=  0  0  0  0  0  0  0  0  0  0  0  0  0  0  0  0  0  0  0  0
 ITRead=  0  0  0  0  0  0  0  0  0  0  0  0  0  0  0  0  0  0  0  0
 MicOpt= -1 -1 -1 -1 -1 -1 -1 -1 -1 -1 -1 -1 -1 -1 -1 -1 -1 -1 -1 -1
 MicOpt= -1 -1 -1 -1 -1 -1 -1 -1 -1 -1 -1 -1 -1 -1 -1 -1 -1 -1 -1 -1
 NAtoms=     40 NQM=       40 NQMF=       0 NMMI=      0 NMMIF=      0
                NMic=       0 NMicF=      0.
                    Isotopes and Nuclear Properties:
 (Nuclear quadrupole moments (NQMom) in fm**2, nuclear magnetic moments (NMagM)
  in nuclear magnetons)

  Atom         1           2           3           4           5           6           7           8           9          10
 IAtWgt=          12           1          12          16          16          14           1          14           1           1
 AtmWgt=  12.0000000   1.0078250  12.0000000  15.9949146  15.9949146  14.0030740   1.0078250  14.0030740   1.0078250   1.0078250
 NucSpn=           0           1           0           0           0           2           1           2           1           1
 AtZEff=  -0.0000000  -0.0000000  -0.0000000  -0.0000000  -0.0000000  -0.0000000  -0.0000000  -0.0000000  -0.0000000  -0.0000000
 NQMom=    0.0000000   0.0000000   0.0000000   0.0000000   0.0000000   2.0440000   0.0000000   2.0440000   0.0000000   0.0000000
 NMagM=    0.0000000   2.7928460   0.0000000   0.0000000   0.0000000   0.4037610   2.7928460   0.4037610   2.7928460   2.7928460
 AtZNuc=   6.0000000   1.0000000   6.0000000   8.0000000   8.0000000   7.0000000   1.0000000   7.0000000   1.0000000   1.0000000

  Atom        11          12          13          14          15          16          17          18          19          20
 IAtWgt=          12           1           1           1          12           1           1           1          12          12
 AtmWgt=  12.0000000   1.0078250   1.0078250   1.0078250  12.0000000   1.0078250   1.0078250   1.0078250  12.0000000  12.0000000
 NucSpn=           0           1           1           1           0           1           1           1           0           0
 AtZEff=  -0.0000000  -0.0000000  -0.0000000  -0.0000000  -0.0000000  -0.0000000  -0.0000000  -0.0000000  -0.0000000  -0.0000000
 NQMom=    0.0000000   0.0000000   0.0000000   0.0000000   0.0000000   0.0000000   0.0000000   0.0000000   0.0000000   0.0000000
 NMagM=    0.0000000   2.7928460   2.7928460   2.7928460   0.0000000   2.7928460   2.7928460   2.7928460   0.0000000   0.0000000
 AtZNuc=   6.0000000   1.0000000   1.0000000   1.0000000   6.0000000   1.0000000   1.0000000   1.0000000   6.0000000   6.0000000

  Atom        21          22          23          24          25          26          27          28          29          30
 IAtWgt=          12          12           1          12           1          12           1           1           1          12
 AtmWgt=  12.0000000  12.0000000   1.0078250  12.0000000   1.0078250  12.0000000   1.0078250   1.0078250   1.0078250  12.0000000
 NucSpn=           0           0           1           0           1           0           1           1           1           0
 AtZEff=  -0.0000000  -0.0000000  -0.0000000  -0.0000000  -0.0000000  -0.0000000  -0.0000000  -0.0000000  -0.0000000  -0.0000000
 NQMom=    0.0000000   0.0000000   0.0000000   0.0000000   0.0000000   0.0000000   0.0000000   0.0000000   0.0000000   0.0000000
 NMagM=    0.0000000   0.0000000   2.7928460   0.0000000   2.7928460   0.0000000   2.7928460   2.7928460   2.7928460   0.0000000
 AtZNuc=   6.0000000   6.0000000   1.0000000   6.0000000   1.0000000   6.0000000   1.0000000   1.0000000   1.0000000   6.0000000

  Atom        31          32          33          34          35          36          37          38          39          40
 IAtWgt=          12          12          12           1          12           1          12           1           1           1
 AtmWgt=  12.0000000  12.0000000  12.0000000   1.0078250  12.0000000   1.0078250  12.0000000   1.0078250   1.0078250   1.0078250
 NucSpn=           0           0           0           1           0           1           0           1           1           1
 AtZEff=  -0.0000000  -0.0000000  -0.0000000  -0.0000000  -0.0000000  -0.0000000  -0.0000000  -0.0000000  -0.0000000  -0.0000000
 NQMom=    0.0000000   0.0000000   0.0000000   0.0000000   0.0000000   0.0000000   0.0000000   0.0000000   0.0000000   0.0000000
 NMagM=    0.0000000   0.0000000   0.0000000   2.7928460   0.0000000   2.7928460   0.0000000   2.7928460   2.7928460   2.7928460
 AtZNuc=   6.0000000   6.0000000   6.0000000   1.0000000   6.0000000   1.0000000   6.0000000   1.0000000   1.0000000   1.0000000
 Leave Link  101 at Sun Jun 30 17:08:01 2019, MaxMem=  1073741824 cpu:               7.3 elap:               0.3
 (Enter /project/6004141/group/g16/g16/l202.exe)
                          Input orientation:                          
 ---------------------------------------------------------------------
 Center     Atomic      Atomic             Coordinates (Angstroms)
 Number     Number       Type             X           Y           Z
 ---------------------------------------------------------------------
      1          6           0        0.354292   -1.479367   -0.300682
      2          1           0        4.618022   -1.283283    1.298049
      3          6           0        1.789590    1.486036    0.313703
      4          8           0        2.516551    1.447090   -0.678564
      5          8           0        1.087393   -1.591673    0.682724
      6          7           0        4.641778   -0.832169   -0.640352
      7          1           0        4.542537   -1.382863   -1.490021
      8          7           0        4.216729   -1.684188    0.453524
      9          1           0        3.201097   -1.640852    0.567673
     10          1           0        4.015195   -0.029334   -0.735132
     11          6           0        0.944413   -1.344207   -1.686276
     12          1           0        0.596890   -2.155483   -2.333883
     13          1           0        0.629864   -0.399910   -2.139806
     14          1           0        2.031853   -1.359962   -1.621332
     15          6           0        2.344620    1.203121    1.691376
     16          1           0        2.133242    2.030138    2.376266
     17          1           0        1.877621    0.300528    2.095869
     18          1           0        3.421182    1.048234    1.619719
     19          6           0       -1.127817   -1.466906   -0.133755
     20          6           0       -1.661066   -1.665472    1.151099
     21          6           0       -2.000025   -1.243915   -1.210097
     22          6           0       -3.036203   -1.645070    1.355511
     23          1           0       -0.976966   -1.829640    1.976279
     24          6           0       -3.378972   -1.217805   -1.003288
     25          1           0       -1.611000   -1.079441   -2.208397
     26          6           0       -3.898430   -1.419016    0.276932
     27          1           0       -3.439469   -1.800289    2.351458
     28          1           0       -4.046348   -1.037619   -1.840128
     29          1           0       -4.972479   -1.398392    0.435704
     30          6           0        0.335793    1.789979    0.163553
     31          6           0       -0.151912    2.126260   -1.111322
     32          6           0       -0.562152    1.703684    1.238513
     33          6           0       -1.508064    2.360762   -1.308906
     34          1           0        0.551512    2.192584   -1.934174
     35          6           0       -1.922581    1.933380    1.038083
     36          1           0       -0.210412    1.435119    2.228133
     37          6           0       -2.397359    2.258132   -0.233613
     38          1           0       -1.876758    2.614901   -2.297804
     39          1           0       -2.612881    1.843333    1.870299
     40          1           0       -3.458570    2.425814   -0.389234
 ---------------------------------------------------------------------
                    Distance matrix (angstroms):
                    1          2          3          4          5
     1  C    0.000000
     2  H    4.557827   0.000000
     3  C    3.351293   4.078982   0.000000
     4  O    3.658184   3.972168   1.230684   0.000000
     5  O    1.231721   3.597092   3.178294   3.623490   0.000000
     6  N    4.349342   1.990343   3.797272   3.116580   3.867949
     7  H    4.354909   2.790869   4.366087   3.573754   4.086862
     8  N    3.940710   1.017341   3.995106   3.738600   3.139082
     9  H    2.980674   1.633702   3.440099   3.399573   2.117404
    10  H    3.961509   2.463659   2.889588   2.104510   3.608773
    11  C    1.512079   4.733425   3.567144   3.358339   2.386178
    12  H    2.156361   5.488275   4.657564   4.404964   3.107795
    13  H    2.150243   5.338970   3.304764   3.017652   3.097791
    14  H    2.138360   3.900889   3.450037   3.000547   2.500874
    15  C    3.889144   3.391942   1.511980   2.388660   3.226278
    16  H    4.758922   4.279654   2.160627   3.133506   4.132723
    17  H    3.351420   3.264165   2.142264   3.069253   2.490354
    18  H    4.413901   2.640430   2.135285   2.501909   3.646044
    19  C    1.491532   5.924394   4.175087   4.697830   2.364183
    20  C    2.490777   6.292425   4.747659   5.521611   2.789059
    21  C    2.534814   7.077492   4.912818   5.284269   3.638112
    22  C    3.777021   7.662986   5.846150   6.673229   4.178461
    23  H    2.660731   5.662366   4.627278   5.476295   2.447752
    24  C    3.807799   8.321800   5.979904   6.477986   4.788615
    25  H    2.767976   7.151044   4.950421   5.075473   3.987767
    26  C    4.292193   8.578523   6.387038   7.090805   5.005288
    27  H    4.639985   8.142489   6.503494   7.429716   4.829148
    28  H    4.683019   9.218450   6.713121   7.112992   5.746917
    29  H    5.378040   9.629880   7.352577   8.088506   6.067984
    30  C    3.302193   5.391614   1.492800   2.362719   3.502858
    31  C    3.730137   6.338953   2.491990   2.787337   4.310163
    32  C    3.652507   5.979943   2.536402   3.635854   3.726832
    33  C    4.385371   7.589744   3.777900   4.174884   5.130763
    34  H    4.023732   6.250234   2.661766   2.448203   4.632054
    35  C    4.315470   7.293421   3.808550   4.784271   4.648895
    36  H    3.899747   5.618589   2.769051   3.985644   3.637864
    37  C    4.641657   8.006446   4.292578   5.000228   5.272966
    38  H    5.072387   8.384996   4.640734   4.825649   5.946848
    39  H    4.955563   7.898681   4.683204   5.741497   5.186678
    40  H    5.458589   9.046307   5.377777   6.061657   6.160769
                    6          7          8          9         10
     6  N    0.000000
     7  H    1.017374   0.000000
     8  N    1.450230   1.993568   0.000000
     9  H    2.046669   2.469843   1.022945   0.000000
    10  H    1.022807   1.637067   2.047452   2.226443   0.000000
    11  C    3.876422   3.603680   3.924587   3.203265   3.473222
    12  H    4.580429   4.108184   4.592928   3.932654   4.331434
    13  H    4.304726   4.086249   4.608723   3.934669   3.683870
    14  H    2.837710   2.514220   3.030484   2.497554   2.547463
    15  C    3.854387   4.651821   3.656996   3.175601   3.193385
    16  H    4.856494   5.692227   4.672694   4.229361   4.178991
    17  H    4.050984   4.774326   3.479629   2.802843   3.562667
    18  H    3.183346   4.103432   3.075555   2.895932   2.656939
    19  C    5.826470   5.830903   5.381104   4.388822   5.373904
    20  C    6.605266   6.748339   5.919074   4.897103   6.201190
    21  C    6.678899   6.550021   6.450543   5.510871   6.154971
    22  C    7.974689   8.099574   7.308908   6.286861   7.530180
    23  H    6.277897   6.532975   5.414278   4.413165   5.959406
    24  C    8.038213   7.938165   7.748193   6.778215   7.493869
    25  H    6.451135   6.202753   6.435368   5.583729   5.909933
    26  C    8.609353   8.623999   8.121410   7.108940   8.098207
    27  H    8.671490   8.868124   7.888790   6.877821   8.260468
    28  H    8.772982   8.602948   8.599845   7.660735   8.199154
    29  H    9.690843   9.707945   9.193669   8.178236   9.166431
    30  C    5.105236   5.522493   5.216856   4.488194   4.201849
    31  C    5.652750   5.873262   6.004438   5.315339   4.706685
    32  C    6.086179   6.559689   5.910295   5.079172   5.277379
    33  C    6.961489   7.117394   7.227796   6.458379   6.045508
    34  H    5.249132   5.376744   5.845022   5.289118   4.286225
    35  C    7.318211   7.693278   7.149800   6.264862   6.500286
    36  H    6.075570   6.660046   5.699025   4.884375   5.364822
    37  C    7.698366   7.937100   7.730472   6.869268   6.826776
    38  H    7.557827   7.605391   7.948746   7.218518   6.644474
    39  H    8.129684   8.538155   7.816280   6.902081   7.363867
    40  H    8.734595   8.929472   8.747147   7.861591   7.874297
                   11         12         13         14         15
    11  C    0.000000
    12  H    1.094685   0.000000
    13  H    1.093768   1.766576   0.000000
    14  H    1.089491   1.788771   1.776538   0.000000
    15  C    4.456231   5.526074   4.493112   4.200149   0.000000
    16  H    5.413295   6.485777   5.344173   5.242504   1.094400
    17  H    4.228552   5.224458   4.470845   4.074138   1.093790
    18  H    4.773653   5.819914   4.901286   4.270135   1.090005
    19  C    2.592202   2.879117   2.872658   3.493972   4.745310
    20  C    3.865544   4.181337   4.204767   4.627889   4.956435
    21  C    2.984379   2.972847   2.914279   4.054457   5.769096
    22  C    5.018794   5.203029   5.216101   5.884562   6.097397
    23  H    4.164331   4.600075   4.644156   4.713427   4.506855
    24  C    4.378825   4.296185   4.246339   5.447863   6.773596
    25  H    2.621612   2.459348   2.342635   3.700502   6.005435
    26  C    5.226176   5.250394   5.233034   6.226970   6.917509
    27  H    5.977435   6.194415   6.220288   6.775863   6.550715
    28  H    5.002536   4.801362   4.729000   6.090674   7.637860
    29  H    6.286123   6.265913   6.246316   7.300243   7.866671
    30  C    3.689906   4.676754   3.191795   3.998070   2.591145
    31  C    3.684649   4.515383   2.837338   4.145200   3.865226
    32  C    4.484838   5.385031   4.154401   4.928844   2.984120
    33  C    4.459131   5.087030   3.589212   5.145135   5.018466
    34  H    3.567172   4.366636   2.601816   3.861329   4.163999
    35  C    5.136571   5.868278   4.696615   5.792766   4.378250
    36  H    4.937699   5.861412   4.811682   5.259145   2.621091
    37  C    5.123916   5.732073   4.456774   5.885090   5.225418
    38  H    4.899746   5.373714   3.923927   5.615549   5.977183
    39  H    5.955164   6.630860   5.623920   6.635220   5.001870
    40  H    5.939835   6.420023   5.269204   6.781955   6.284977
                   16         17         18         19         20
    16  H    0.000000
    17  H    1.770739   0.000000
    18  H    1.787537   1.779990   0.000000
    19  C    5.400373   4.138563   5.485799   0.000000
    20  C    5.436482   4.156928   5.780402   1.405216   0.000000
    21  C    6.376936   5.324552   6.530796   1.403205   2.422365
    22  C    6.424349   5.336586   7.001536   2.427260   1.390396
    23  H    4.973054   3.563788   5.268112   2.146293   1.084374
    24  C    7.235677   6.288233   7.632640   2.426075   2.791593
    25  H    6.686401   5.709772   6.671156   2.165118   3.410594
    26  C    7.258439   6.295088   7.840097   2.801295   2.414686
    27  H    6.762240   5.722779   7.464453   3.410449   2.149827
    28  H    8.085570   7.237135   8.490308   3.407905   3.877010
    29  H    8.124769   7.250265   8.822778   3.887210   3.398320
    30  C    2.860874   2.886095   3.491451   3.582994   4.111306
    31  C    4.170664   4.211695   4.624687   3.849529   4.666190
    32  C    2.943842   2.942176   4.054859   3.500820   3.544921
    33  C    5.191234   5.224933   5.881925   4.022016   4.720762
    34  H    4.594361   4.645394   4.709002   4.410615   5.412856
    35  C    4.271978   4.269268   5.447714   3.683314   3.610111
    36  H    2.422541   2.380057   3.702475   3.852518   3.588602
    37  C    5.233526   5.247300   6.225280   3.936701   4.225426
    38  H    6.186193   6.225435   6.772710   4.680296   5.501186
    39  H    4.776671   4.753497   6.091378   4.144796   3.706064
    40  H    6.250833   6.258395   7.298261   4.544331   4.726761
                   21         22         23         24         25
    21  C    0.000000
    22  C    2.795878   0.000000
    23  H    3.397457   2.158675   0.000000
    24  C    1.394613   2.421565   3.875796   0.000000
    25  H    1.083972   3.879765   4.298408   2.144098   0.000000
    26  C    2.417821   1.399239   3.404606   1.396168   3.394776
    27  H    3.881524   1.085646   2.491092   3.405476   4.965400
    28  H    2.151031   3.406097   4.961186   1.085430   2.463390
    29  H    3.401177   2.157790   4.303890   2.154663   4.288653
    30  C    4.067859   4.958899   4.255697   4.920138   4.201157
    31  C    3.844913   5.350451   5.085581   4.648479   3.689042
    32  C    4.092861   4.165185   3.633283   4.636296   4.552698
    33  C    3.639435   5.047872   5.351072   4.049672   3.557341
    34  H    4.340985   6.198493   5.814308   5.286398   3.931641
    35  C    3.893008   3.761146   3.991832   4.027187   4.440023
    36  H    4.711832   4.270144   3.362988   5.245937   5.288427
    37  C    3.657284   4.262443   4.859117   3.692980   3.956959
    38  H    4.011080   5.730478   6.231481   4.315328   3.704967
    39  H    4.404036   3.551502   4.022211   4.267899   5.116848
    40  H    4.033371   4.449115   5.464696   3.695857   4.360009
                   26         27         28         29         30
    26  C    0.000000
    27  H    2.158627   0.000000
    28  H    2.156220   4.303413   0.000000
    29  H    1.085917   2.486313   2.483402   0.000000
    30  C    5.314052   5.650624   5.586878   6.198187   0.000000
    31  C    5.341594   6.181963   5.070298   6.168819   1.405791
    32  C    4.669758   4.668557   5.397443   5.451455   1.403314
    33  C    4.745045   5.868810   4.274819   5.401581   2.427702
    34  H    6.142852   7.087849   5.619909   7.001850   2.146878
    35  C    3.965084   4.238654   4.649873   4.556912   2.426030
    36  H    5.055170   4.572733   6.113885   5.823991   2.164892
    37  C    4.004409   4.923349   4.020203   4.522101   2.801255
    38  H    5.195085   6.599364   4.272878   5.758652   3.410888
    39  H    3.851542   3.767060   4.911413   4.258468   3.407419
    40  H    3.926827   5.037033   3.800782   4.194877   3.886779
                   31         32         33         34         35
    31  C    0.000000
    32  C    2.422518   0.000000
    33  C    1.390388   2.795683   0.000000
    34  H    1.084569   3.397825   2.158957   0.000000
    35  C    2.791489   1.394166   2.421330   3.875904   0.000000
    36  H    3.410727   1.084065   3.879608   4.298730   2.143830
    37  C    2.414497   2.417137   1.399155   3.404709   1.395739
    38  H    2.149791   3.881242   1.085560   2.491400   3.405101
    39  H    3.876400   2.150382   3.405246   4.960784   1.084991
    40  H    3.397813   3.400040   2.157429   4.303719   2.153831
                   36         37         38         39         40
    36  H    0.000000
    37  C    3.394154   0.000000
    38  H    4.965149   2.158517   0.000000
    39  H    2.463035   2.155215   4.302357   0.000000
    40  H    4.287495   1.085589   2.486066   2.481927   0.000000
 Stoichiometry    C16H20N2O2
 Framework group  C1[X(C16H20N2O2)]
 Deg. of freedom   114
 Full point group                 C1      NOp   1
 Largest Abelian subgroup         C1      NOp   1
 Largest concise Abelian subgroup C1      NOp   1
                         Standard orientation:                         
 ---------------------------------------------------------------------
 Center     Atomic      Atomic             Coordinates (Angstroms)
 Number     Number       Type             X           Y           Z
 ---------------------------------------------------------------------
      1          6           0        0.354292   -1.479367   -0.300682
      2          1           0        4.618022   -1.283283    1.298049
      3          6           0        1.789590    1.486036    0.313703
      4          8           0        2.516551    1.447090   -0.678564
      5          8           0        1.087393   -1.591673    0.682724
      6          7           0        4.641778   -0.832169   -0.640352
      7          1           0        4.542537   -1.382863   -1.490021
      8          7           0        4.216729   -1.684188    0.453524
      9          1           0        3.201097   -1.640852    0.567673
     10          1           0        4.015195   -0.029334   -0.735132
     11          6           0        0.944413   -1.344207   -1.686276
     12          1           0        0.596890   -2.155483   -2.333883
     13          1           0        0.629864   -0.399910   -2.139806
     14          1           0        2.031853   -1.359962   -1.621332
     15          6           0        2.344620    1.203121    1.691376
     16          1           0        2.133242    2.030138    2.376266
     17          1           0        1.877621    0.300528    2.095869
     18          1           0        3.421182    1.048234    1.619719
     19          6           0       -1.127817   -1.466906   -0.133755
     20          6           0       -1.661066   -1.665472    1.151099
     21          6           0       -2.000025   -1.243915   -1.210097
     22          6           0       -3.036203   -1.645070    1.355511
     23          1           0       -0.976966   -1.829640    1.976279
     24          6           0       -3.378972   -1.217805   -1.003288
     25          1           0       -1.611000   -1.079441   -2.208397
     26          6           0       -3.898430   -1.419016    0.276932
     27          1           0       -3.439469   -1.800289    2.351458
     28          1           0       -4.046348   -1.037619   -1.840128
     29          1           0       -4.972479   -1.398392    0.435704
     30          6           0        0.335793    1.789979    0.163553
     31          6           0       -0.151912    2.126260   -1.111322
     32          6           0       -0.562152    1.703684    1.238513
     33          6           0       -1.508064    2.360762   -1.308906
     34          1           0        0.551512    2.192584   -1.934174
     35          6           0       -1.922581    1.933380    1.038083
     36          1           0       -0.210412    1.435119    2.228133
     37          6           0       -2.397359    2.258132   -0.233613
     38          1           0       -1.876758    2.614901   -2.297804
     39          1           0       -2.612881    1.843333    1.870299
     40          1           0       -3.458570    2.425814   -0.389234
 ---------------------------------------------------------------------
 Rotational constants (GHZ):           0.4970317           0.2618455           0.2147225
 Leave Link  202 at Sun Jun 30 17:08:02 2019, MaxMem=  1073741824 cpu:               3.0 elap:               0.1
 (Enter /project/6004141/group/g16/g16/l301.exe)
 Standard basis: 6-31G(d,p) (6D, 7F)
 Ernie: Thresh=  0.10000D-02 Tol=  0.10000D-05 Strict=F.
 There are   400 symmetry adapted cartesian basis functions of A   symmetry.
 There are   400 symmetry adapted basis functions of A   symmetry.
   400 basis functions,   700 primitive gaussians,   400 cartesian basis functions
    73 alpha electrons       73 beta electrons
       nuclear repulsion energy      1570.5520442434 Hartrees.
 IExCor=  402 DFT=T Ex+Corr=B3LYP ExCW=0 ScaHFX=  0.200000
 ScaDFX=  0.800000  0.720000  1.000000  0.810000 ScalE2=  1.000000  1.000000
 IRadAn=      5 IRanWt=     -1 IRanGd=            0 ICorTp=0 IEmpDi=131
 NAtoms=   40 NActive=   40 NUniq=   40 SFac= 1.00D+00 NAtFMM=   60 NAOKFM=F Big=F
 Integral buffers will be    131072 words long.
 Raffenetti 1 integral format.
 Two-electron integral symmetry is turned on.
 R6Disp:  Grimme-D3 Dispersion energy=       -0.0479907269 Hartrees.
 Nuclear repulsion after empirical dispersion term =     1570.5040535165 Hartrees.
 ------------------------------------------------------------------------------
 Polarizable Continuum Model (PCM)
 =================================
 Model                : PCM.
 Atomic radii         : UFF (Universal Force Field).
 Polarization charges : Total charges.
 Charge compensation  : None.
 Solution method      : On-the-fly selection.
 Cavity type          : Scaled VdW (van der Waals Surface) (Alpha=1.100).
 Cavity algorithm     : GePol (No added spheres)
                        Default sphere list used, NSphG=   40.
                        Lebedev-Laikov grids with approx.  5.0 points / Ang**2.
                        Smoothing algorithm: York/Karplus (Gamma=1.0000).
                        Polarization charges: spherical gaussians, with
                                              point-specific exponents (IZeta= 3).
                        Self-potential: point-specific (ISelfS= 7).
                        Self-field    : sphere-specific E.n sum rule (ISelfD= 2).
 Solvent              : Acetonitrile, Eps=  35.688000 Eps(inf)=   1.806874
 ------------------------------------------------------------------------------
 GePol: Number of generator spheres                  =      40
 GePol: Total number of spheres                      =      40
 GePol: Number of exposed spheres                    =      40 (100.00%)
 GePol: Number of points                             =    2729
 GePol: Average weight of points                     =       0.13
 GePol: Minimum weight of points                     =   0.45D-10
 GePol: Maximum weight of points                     =    0.20577
 GePol: Number of points with low weight             =     210
 GePol: Fraction of low-weight points (<1% of avg)   =       7.70%
 GePol: Cavity surface area                          =    347.345 Ang**2
 GePol: Cavity volume                                =    412.341 Ang**3
 Leave Link  301 at Sun Jun 30 17:08:03 2019, MaxMem=  1073741824 cpu:              20.5 elap:               0.6
 (Enter /project/6004141/group/g16/g16/l302.exe)
 NPDir=0 NMtPBC=     1 NCelOv=     1 NCel=       1 NClECP=     1 NCelD=      1
         NCelK=      1 NCelE2=     1 NClLst=     1 CellRange=     0.0.
 One-electron integrals computed using PRISM.
 One-electron integral symmetry used in STVInt
 NBasis=   400 RedAO= T EigKep=  4.63D-04  NBF=   400
 NBsUse=   400 1.00D-06 EigRej= -1.00D+00 NBFU=   400
 Precomputing XC quadrature grid using
 IXCGrd= 4 IRadAn=           5 IRanWt=          -1 IRanGd=           0 AccXCQ= 0.00D+00.
 Generated NRdTot=       0 NPtTot=           0 NUsed=           0 NTot=          32
 NSgBfM=   399   398   398   398   399 MxSgAt=    40 MxSgA2=    40.
 Leave Link  302 at Sun Jun 30 17:08:04 2019, MaxMem=  1073741824 cpu:              21.2 elap:               0.6
 (Enter /project/6004141/group/g16/g16/l303.exe)
 DipDrv:  MaxL=1.
 Leave Link  303 at Sun Jun 30 17:08:04 2019, MaxMem=  1073741824 cpu:               3.9 elap:               0.1
 (Enter /project/6004141/group/g16/g16/l308.exe)
 Leave Link  308 at Sun Jun 30 17:08:05 2019, MaxMem=  1073741824 cpu:               3.5 elap:               0.1
 (Enter /project/6004141/group/g16/g16/l401.exe)
 Core hamiltonian diagonalized for initial guess.
 JPrj=0 DoOrth=F DoCkMO=T.
 Mixing orbitals, IMix= 1 IMixAn=  0 NRI=1 NE=   73 Coef=  7.07106781D-01  7.07106781D-01
 Leave Link  401 at Sun Jun 30 17:08:05 2019, MaxMem=  1073741824 cpu:               8.7 elap:               0.3
 (Enter /project/6004141/group/g16/g16/l502.exe)
 Integral symmetry usage will be decided dynamically.
 Closed shell SCF:
 Using DIIS extrapolation, IDIIS=  1040.
 NGot=  1073741824 LenX=  1073401472 LenY=  1073241031
 Requested convergence on RMS density matrix=1.00D-08 within 128 cycles.
 Requested convergence on MAX density matrix=1.00D-06.
 Requested convergence on             energy=1.00D-06.
 No special actions if energy rises.
 Fock matrices will be formed incrementally for  20 cycles.

 Cycle   1  Pass 1  IDiag  1:
 FoFJK:  IHMeth= 1 ICntrl=       0 DoSepK=F KAlg= 0 I1Cent=           0 FoldK=F
 IRaf= 800000000 NMat=       1 IRICut=       1 DoRegI=T DoRafI=F ISym2E= 0 IDoP0=0 IntGTp=1.
 FoFCou: FMM=F IPFlag=           0 FMFlag=      100000 FMFlg1=           0
         NFxFlg=           0 DoJE=F BraDBF=F KetDBF=F FulRan=T
         wScrn=  0.000000 ICntrl=         0 IOpCl=  0 I1Cent=           0 NGrid=           0
         NMat0=    1 NMatS0=      1 NMatT0=    0 NMatD0=    1 NMtDS0=    0 NMtDT0=    0
 Symmetry not used in FoFCou.
 Inv3:  Mode=1 IEnd=    22342323.
 Iteration    1 A*A^-1 deviation from unit magnitude is 3.44D-15 for    442.
 Iteration    1 A*A^-1 deviation from orthogonality  is 2.63D-15 for   1725    424.
 Iteration    1 A^-1*A deviation from unit magnitude is 3.11D-15 for    760.
 Iteration    1 A^-1*A deviation from orthogonality  is 2.73D-14 for   1915   1890.
 E= -532.213966426633    
 DIIS: error= 3.25D-01 at cycle   1 NSaved=   1.
 NSaved= 1 IEnMin= 1 EnMin= -532.213966426633     IErMin= 1 ErrMin= 3.25D-01
 ErrMax= 3.25D-01  0.00D+00 EMaxC= 1.00D-01 BMatC= 1.82D+02 BMatP= 1.82D+02
 IDIUse=3 WtCom= 0.00D+00 WtEn= 1.00D+00
 Coeff-Com:  0.100D+01
 Coeff-En:   0.100D+01
 Coeff:      0.100D+01
 Gap=    -1.395 Goal=   None    Shift=    0.000
 GapD=   -1.395 DampG=0.250 DampE=0.250 DampFc=0.2500 IDamp=-1.
 Damping current iteration by 2.50D-01
 RMSDP=1.09D-01 MaxDP=1.13D+01              OVMax= 9.98D-01

 Cycle   2  Pass 1  IDiag  1:
 RMSU=  1.45D-02    CP:  7.59D-01
 E= -698.442155345102     Delta-E=     -166.228188918469 Rises=F Damp=T
 DIIS: error= 2.43D-01 at cycle   2 NSaved=   2.
 NSaved= 2 IEnMin= 2 EnMin= -698.442155345102     IErMin= 2 ErrMin= 2.43D-01
 ErrMax= 2.43D-01  0.00D+00 EMaxC= 1.00D-01 BMatC= 5.85D+01 BMatP= 1.82D+02
 IDIUse=3 WtCom= 0.00D+00 WtEn= 1.00D+00
 Coeff-Com: -0.115D+01 0.215D+01
 Coeff-En:   0.000D+00 0.100D+01
 Coeff:      0.000D+00 0.100D+01
 Gap=     0.514 Goal=   None    Shift=    0.000
 RMSDP=1.06D-01 MaxDP=7.92D+00 DE=-1.66D+02 OVMax= 9.99D-01

 Cycle   3  Pass 1  IDiag  1:
 RMSU=  8.53D-02    CP:  1.12D-01  1.51D+00
 E= -738.985806555258     Delta-E=      -40.543651210156 Rises=F Damp=F
 DIIS: error= 1.60D-01 at cycle   3 NSaved=   3.
 NSaved= 3 IEnMin= 3 EnMin= -738.985806555258     IErMin= 3 ErrMin= 1.60D-01
 ErrMax= 1.60D-01  0.00D+00 EMaxC= 1.00D-01 BMatC= 4.45D+01 BMatP= 5.85D+01
 IDIUse=3 WtCom= 0.00D+00 WtEn= 1.00D+00
 EnCoef did   100 forward-backward iterations
 Coeff-Com: -0.984D+00 0.185D+01 0.134D+00
 Coeff-En:   0.328D+00 0.199D-01 0.652D+00
 Coeff:      0.328D+00 0.199D-01 0.652D+00
 Gap=    -0.496 Goal=   None    Shift=    0.000
 RMSDP=9.05D-02 MaxDP=7.18D+00 DE=-4.05D+01 OVMax= 9.98D-01

 Cycle   4  Pass 1  IDiag  1:
 RMSU=  3.73D-02    CP:  1.25D-01  2.91D-01  5.57D-02
 E= -830.232301975220     Delta-E=      -91.246495419962 Rises=F Damp=F
 DIIS: error= 1.13D-01 at cycle   4 NSaved=   4.
 NSaved= 4 IEnMin= 4 EnMin= -830.232301975220     IErMin= 4 ErrMin= 1.13D-01
 ErrMax= 1.13D-01  0.00D+00 EMaxC= 1.00D-01 BMatC= 2.69D+01 BMatP= 4.45D+01
 IDIUse=3 WtCom= 0.00D+00 WtEn= 1.00D+00
 Coeff-Com: -0.747D+00 0.139D+01 0.128D+00 0.231D+00
 Coeff-En:   0.000D+00 0.000D+00 0.291D+00 0.709D+00
 Coeff:      0.000D+00 0.000D+00 0.291D+00 0.709D+00
 Gap=     0.003 Goal=   None    Shift=    0.000
 RMSDP=5.87D-02 MaxDP=3.63D+00 DE=-9.12D+01 OVMax= 9.72D-01

 Cycle   5  Pass 1  IDiag  1:
 RMSU=  4.76D-02    CP:  1.75D-01  2.78D-01  1.21D-01  1.02D-01
 E= -681.378998895625     Delta-E=      148.853303079595 Rises=F Damp=F
 DIIS: error= 3.27D-01 at cycle   5 NSaved=   5.
 NSaved= 5 IEnMin= 4 EnMin= -830.232301975220     IErMin= 4 ErrMin= 1.13D-01
 ErrMax= 3.27D-01  0.00D+00 EMaxC= 1.00D-01 BMatC= 1.12D+02 BMatP= 2.69D+01
 IDIUse=2 WtCom= 0.00D+00 WtEn= 1.00D+00
 EnCoef did     5 forward-backward iterations
 Coeff-En:   0.000D+00 0.000D+00 0.198D+00 0.625D+00 0.177D+00
 Coeff:      0.000D+00 0.000D+00 0.198D+00 0.625D+00 0.177D+00
 Gap=    -0.278 Goal=   None    Shift=    0.000
 RMSDP=4.83D-02 MaxDP=3.45D+00 DE= 1.49D+02 OVMax= 9.97D-01

 Cycle   6  Pass 1  IDiag  1:
 RMSU=  1.44D-02    CP:  3.84D-02  2.30D-01  3.33D-02  1.20D-01  8.55D-02
 E= -871.806985579980     Delta-E=     -190.427986684355 Rises=F Damp=F
 DIIS: error= 7.85D-02 at cycle   6 NSaved=   6.
 NSaved= 6 IEnMin= 6 EnMin= -871.806985579980     IErMin= 6 ErrMin= 7.85D-02
 ErrMax= 7.85D-02  0.00D+00 EMaxC= 1.00D-01 BMatC= 6.81D+00 BMatP= 2.69D+01
 IDIUse=3 WtCom= 2.15D-01 WtEn= 7.85D-01
 Coeff-Com: -0.314D+00 0.585D+00 0.184D-01 0.192D+00 0.494D-03 0.518D+00
 Coeff-En:   0.000D+00 0.000D+00 0.000D+00 0.195D+00 0.000D+00 0.805D+00
 Coeff:     -0.675D-01 0.126D+00 0.395D-02 0.194D+00 0.106D-03 0.744D+00
 Gap=    -0.516 Goal=   None    Shift=    0.000
 RMSDP=2.84D-02 MaxDP=2.06D+00 DE=-1.90D+02 OVMax= 9.86D-01

 Cycle   7  Pass 1  IDiag  1:
 RMSU=  2.46D-02    CP:  7.06D-02  2.07D-01  5.27D-02  4.29D-01  2.35D-02
                    CP:  5.21D-01
 E= -855.993299613736     Delta-E=       15.813685966244 Rises=F Damp=F
 DIIS: error= 1.07D-01 at cycle   7 NSaved=   7.
 NSaved= 7 IEnMin= 6 EnMin= -871.806985579980     IErMin= 6 ErrMin= 7.85D-02
 ErrMax= 1.07D-01  0.00D+00 EMaxC= 1.00D-01 BMatC= 1.59D+01 BMatP= 6.81D+00
 IDIUse=2 WtCom= 0.00D+00 WtEn= 1.00D+00
 EnCoef did     7 forward-backward iterations
 Coeff-En:   0.000D+00 0.000D+00 0.000D+00 0.795D-01 0.000D+00 0.674D+00
 Coeff-En:   0.247D+00
 Coeff:      0.000D+00 0.000D+00 0.000D+00 0.795D-01 0.000D+00 0.674D+00
 Coeff:      0.247D+00
 Gap=    -0.242 Goal=   None    Shift=    0.000
 RMSDP=2.73D-02 MaxDP=2.00D+00 DE= 1.58D+01 OVMax= 9.79D-01

 Cycle   8  Pass 1  IDiag  1:
 RMSU=  9.19D-03    CP:  3.73D-02  2.03D-01  2.20D-02  1.69D-01  4.16D-02
                    CP:  7.42D-01  5.58D-02
 E= -872.964426020062     Delta-E=      -16.971126406326 Rises=F Damp=F
 DIIS: error= 7.77D-02 at cycle   8 NSaved=   8.
 NSaved= 8 IEnMin= 8 EnMin= -872.964426020062     IErMin= 8 ErrMin= 7.77D-02
 ErrMax= 7.77D-02  0.00D+00 EMaxC= 1.00D-01 BMatC= 5.39D+00 BMatP= 6.81D+00
 IDIUse=3 WtCom= 2.23D-01 WtEn= 7.77D-01
 EnCoef did     1 forward-backward iterations
 Coeff-Com: -0.118D+00 0.214D+00-0.141D-02-0.671D-02 0.171D-02 0.388D+00
 Coeff-Com:  0.119D+00 0.403D+00
 Coeff-En:   0.000D+00 0.000D+00 0.000D+00 0.000D+00 0.000D+00 0.454D+00
 Coeff-En:   0.114D+00 0.432D+00
 Coeff:     -0.263D-01 0.478D-01-0.315D-03-0.150D-02 0.382D-03 0.439D+00
 Coeff:      0.115D+00 0.425D+00
 Gap=     0.247 Goal=   None    Shift=    0.000
 RMSDP=8.11D-03 MaxDP=5.04D-01 DE=-1.70D+01 OVMax= 9.85D-01

 Cycle   9  Pass 1  IDiag  1:
 RMSU=  6.13D-03    CP:  3.55D-02  1.86D-01  2.31D-02  1.34D-01  5.33D-02
                    CP:  8.02D-01  6.14D-02  4.53D-01
 E= -877.860961258281     Delta-E=       -4.896535238219 Rises=F Damp=F
 DIIS: error= 4.55D-02 at cycle   9 NSaved=   9.
 NSaved= 9 IEnMin= 9 EnMin= -877.860961258281     IErMin= 9 ErrMin= 4.55D-02
 ErrMax= 4.55D-02  0.00D+00 EMaxC= 1.00D-01 BMatC= 1.92D+00 BMatP= 5.39D+00
 IDIUse=3 WtCom= 5.45D-01 WtEn= 4.55D-01
 EnCoef did     4 forward-backward iterations
 Coeff-Com: -0.637D-01 0.115D+00-0.958D-03-0.649D-02-0.723D-02 0.237D+00
 Coeff-Com: -0.948D-02 0.288D+00 0.448D+00
 Coeff-En:   0.000D+00 0.000D+00 0.000D+00 0.000D+00 0.000D+00 0.208D+00
 Coeff-En:   0.000D+00 0.298D+00 0.494D+00
 Coeff:     -0.347D-01 0.625D-01-0.522D-03-0.354D-02-0.394D-02 0.224D+00
 Coeff:     -0.517D-02 0.293D+00 0.469D+00
 Gap=     0.134 Goal=   None    Shift=    0.000
 RMSDP=5.33D-03 MaxDP=2.60D-01 DE=-4.90D+00 OVMax= 9.67D-01

 Cycle  10  Pass 1  IDiag  1:
 RMSU=  4.01D-03    CP:  3.38D-02  1.97D-01  2.00D-02  1.33D-01  5.05D-02
                    CP:  8.26D-01  3.40D-02  4.52D-01  4.44D-01
 E= -881.144740886676     Delta-E=       -3.283779628395 Rises=F Damp=F
 DIIS: error= 3.23D-02 at cycle  10 NSaved=  10.
 NSaved=10 IEnMin=10 EnMin= -881.144740886676     IErMin=10 ErrMin= 3.23D-02
 ErrMax= 3.23D-02  0.00D+00 EMaxC= 1.00D-01 BMatC= 5.04D-01 BMatP= 1.92D+00
 IDIUse=3 WtCom= 6.77D-01 WtEn= 3.23D-01
 Coeff-Com: -0.219D-01 0.403D-01 0.948D-02 0.192D-02-0.261D-02 0.663D-01
 Coeff-Com: -0.326D-01 0.122D+00 0.277D+00 0.540D+00
 Coeff-En:   0.000D+00 0.000D+00 0.000D+00 0.000D+00 0.000D+00 0.000D+00
 Coeff-En:   0.000D+00 0.000D+00 0.674D-01 0.933D+00
 Coeff:     -0.148D-01 0.273D-01 0.641D-02 0.130D-02-0.177D-02 0.449D-01
 Coeff:     -0.221D-01 0.827D-01 0.209D+00 0.667D+00
 Gap=     0.090 Goal=   None    Shift=    0.000
 RMSDP=3.01D-03 MaxDP=1.92D-01 DE=-3.28D+00 OVMax= 4.28D-01

 Cycle  11  Pass 1  IDiag  1:
 RMSU=  2.46D-03    CP:  3.38D-02  1.95D-01  2.00D-02  1.31D-01  4.92D-02
                    CP:  8.10D-01  3.82D-02  4.95D-01  5.49D-01  6.13D-01
 E= -881.552315015839     Delta-E=       -0.407574129162 Rises=F Damp=F
 DIIS: error= 2.30D-02 at cycle  11 NSaved=  11.
 NSaved=11 IEnMin=11 EnMin= -881.552315015839     IErMin=11 ErrMin= 2.30D-02
 ErrMax= 2.30D-02  0.00D+00 EMaxC= 1.00D-01 BMatC= 2.28D-01 BMatP= 5.04D-01
 IDIUse=3 WtCom= 7.70D-01 WtEn= 2.30D-01
 Coeff-Com: -0.457D-02 0.804D-02-0.161D-03-0.811D-03-0.634D-03 0.152D-01
 Coeff-Com: -0.345D-02 0.316D-02 0.430D-01 0.379D+00 0.562D+00
 Coeff-En:   0.000D+00 0.000D+00 0.000D+00 0.000D+00 0.000D+00 0.000D+00
 Coeff-En:   0.000D+00 0.000D+00 0.000D+00 0.264D+00 0.736D+00
 Coeff:     -0.352D-02 0.619D-02-0.124D-03-0.624D-03-0.488D-03 0.117D-01
 Coeff:     -0.265D-02 0.243D-02 0.331D-01 0.352D+00 0.602D+00
 Gap=     0.190 Goal=   None    Shift=    0.000
 RMSDP=1.24D-03 MaxDP=8.79D-02 DE=-4.08D-01 OVMax= 9.07D-02

 Cycle  12  Pass 1  IDiag  1:
 RMSU=  8.65D-04    CP:  3.35D-02  1.94D-01  2.03D-02  1.32D-01  5.06D-02
                    CP:  8.20D-01  3.61D-02  4.64D-01  5.27D-01  7.18D-01
                    CP:  7.15D-01
 E= -881.741445405907     Delta-E=       -0.189130390068 Rises=F Damp=F
 DIIS: error= 4.93D-03 at cycle  12 NSaved=  12.
 NSaved=12 IEnMin=12 EnMin= -881.741445405907     IErMin=12 ErrMin= 4.93D-03
 ErrMax= 4.93D-03  0.00D+00 EMaxC= 1.00D-01 BMatC= 1.98D-02 BMatP= 2.28D-01
 IDIUse=3 WtCom= 9.51D-01 WtEn= 4.93D-02
 Coeff-Com: -0.246D-02 0.533D-02-0.102D-02-0.331D-03 0.627D-04 0.122D-02
 Coeff-Com:  0.824D-03-0.352D-02 0.393D-02 0.137D+00 0.283D+00 0.576D+00
 Coeff-En:   0.000D+00 0.000D+00 0.000D+00 0.000D+00 0.000D+00 0.000D+00
 Coeff-En:   0.000D+00 0.000D+00 0.000D+00 0.000D+00 0.000D+00 0.100D+01
 Coeff:     -0.234D-02 0.506D-02-0.970D-03-0.315D-03 0.596D-04 0.116D-02
 Coeff:      0.783D-03-0.335D-02 0.374D-02 0.131D+00 0.269D+00 0.597D+00
 Gap=     0.183 Goal=   None    Shift=    0.000
 RMSDP=5.21D-04 MaxDP=4.64D-02 DE=-1.89D-01 OVMax= 4.16D-02

 Cycle  13  Pass 1  IDiag  1:
 RMSU=  4.08D-04    CP:  3.36D-02  1.94D-01  1.99D-02  1.31D-01  5.05D-02
                    CP:  8.17D-01  3.80D-02  4.69D-01  5.34D-01  7.15D-01
                    CP:  7.81D-01  7.00D-01
 E= -881.752358764978     Delta-E=       -0.010913359072 Rises=F Damp=F
 DIIS: error= 3.48D-03 at cycle  13 NSaved=  13.
 NSaved=13 IEnMin=13 EnMin= -881.752358764978     IErMin=13 ErrMin= 3.48D-03
 ErrMax= 3.48D-03  0.00D+00 EMaxC= 1.00D-01 BMatC= 8.11D-03 BMatP= 1.98D-02
 IDIUse=3 WtCom= 9.65D-01 WtEn= 3.48D-02
 Coeff-Com: -0.353D-03 0.114D-02-0.871D-03-0.420D-03 0.479D-03 0.136D-02
 Coeff-Com:  0.942D-03 0.177D-02-0.262D-02 0.197D-01 0.699D-01 0.395D+00
 Coeff-Com:  0.514D+00
 Coeff-En:   0.000D+00 0.000D+00 0.000D+00 0.000D+00 0.000D+00 0.000D+00
 Coeff-En:   0.000D+00 0.000D+00 0.000D+00 0.000D+00 0.000D+00 0.290D+00
 Coeff-En:   0.710D+00
 Coeff:     -0.340D-03 0.110D-02-0.841D-03-0.406D-03 0.462D-03 0.131D-02
 Coeff:      0.909D-03 0.171D-02-0.253D-02 0.190D-01 0.674D-01 0.391D+00
 Coeff:      0.521D+00
 Gap=     0.166 Goal=   None    Shift=    0.000
 RMSDP=2.43D-04 MaxDP=2.46D-02 DE=-1.09D-02 OVMax= 2.29D-02

 Cycle  14  Pass 1  IDiag  1:
 RMSU=  1.44D-04    CP:  3.36D-02  1.94D-01  1.99D-02  1.31D-01  5.06D-02
                    CP:  8.18D-01  3.69D-02  4.68D-01  5.31D-01  7.15D-01
                    CP:  7.60D-01  8.13D-01  6.15D-01
 E= -881.758224325614     Delta-E=       -0.005865560636 Rises=F Damp=F
 DIIS: error= 8.83D-04 at cycle  14 NSaved=  14.
 NSaved=14 IEnMin=14 EnMin= -881.758224325614     IErMin=14 ErrMin= 8.83D-04
 ErrMax= 8.83D-04  0.00D+00 EMaxC= 1.00D-01 BMatC= 6.08D-04 BMatP= 8.11D-03
 IDIUse=3 WtCom= 9.91D-01 WtEn= 8.83D-03
 Coeff-Com:  0.127D-03-0.121D-03-0.230D-03 0.341D-03 0.416D-04-0.137D-03
 Coeff-Com: -0.273D-03-0.323D-03-0.213D-03-0.125D-02 0.408D-02 0.112D+00
 Coeff-Com:  0.268D+00 0.618D+00
 Coeff-En:   0.000D+00 0.000D+00 0.000D+00 0.000D+00 0.000D+00 0.000D+00
 Coeff-En:   0.000D+00 0.000D+00 0.000D+00 0.000D+00 0.000D+00 0.000D+00
 Coeff-En:   0.267D-01 0.973D+00
 Coeff:      0.126D-03-0.120D-03-0.228D-03 0.338D-03 0.413D-04-0.136D-03
 Coeff:     -0.271D-03-0.320D-03-0.211D-03-0.124D-02 0.404D-02 0.111D+00
 Coeff:      0.266D+00 0.621D+00
 Gap=     0.164 Goal=   None    Shift=    0.000
 RMSDP=7.19D-05 MaxDP=5.11D-03 DE=-5.87D-03 OVMax= 6.02D-03

 Cycle  15  Pass 1  IDiag  1:
 RMSU=  4.39D-05    CP:  3.35D-02  1.94D-01  1.99D-02  1.31D-01  5.06D-02
                    CP:  8.18D-01  3.71D-02  4.67D-01  5.32D-01  7.16D-01
                    CP:  7.62D-01  8.20D-01  6.99D-01  6.98D-01
 E= -881.758604479721     Delta-E=       -0.000380154106 Rises=F Damp=F
 DIIS: error= 3.49D-04 at cycle  15 NSaved=  15.
 NSaved=15 IEnMin=15 EnMin= -881.758604479721     IErMin=15 ErrMin= 3.49D-04
 ErrMax= 3.49D-04  0.00D+00 EMaxC= 1.00D-01 BMatC= 1.16D-04 BMatP= 6.08D-04
 IDIUse=3 WtCom= 9.97D-01 WtEn= 3.49D-03
 Coeff-Com:  0.623D-04-0.125D-03-0.468D-04 0.825D-05-0.131D-04-0.399D-03
 Coeff-Com: -0.801D-04 0.417D-03 0.737D-03-0.553D-03-0.143D-02 0.900D-02
 Coeff-Com:  0.883D-01 0.364D+00 0.540D+00
 Coeff-En:   0.000D+00 0.000D+00 0.000D+00 0.000D+00 0.000D+00 0.000D+00
 Coeff-En:   0.000D+00 0.000D+00 0.000D+00 0.000D+00 0.000D+00 0.000D+00
 Coeff-En:   0.000D+00 0.153D+00 0.847D+00
 Coeff:      0.621D-04-0.124D-03-0.467D-04 0.822D-05-0.131D-04-0.398D-03
 Coeff:     -0.798D-04 0.416D-03 0.734D-03-0.551D-03-0.143D-02 0.897D-02
 Coeff:      0.880D-01 0.364D+00 0.541D+00
 Gap=     0.165 Goal=   None    Shift=    0.000
 RMSDP=2.36D-05 MaxDP=1.61D-03 DE=-3.80D-04 OVMax= 2.04D-03

 Cycle  16  Pass 1  IDiag  1:
 RMSU=  1.33D-05    CP:  3.35D-02  1.94D-01  1.99D-02  1.31D-01  5.06D-02
                    CP:  8.18D-01  3.71D-02  4.68D-01  5.32D-01  7.15D-01
                    CP:  7.63D-01  8.14D-01  7.04D-01  7.65D-01  6.90D-01
 E= -881.758706171334     Delta-E=       -0.000101691614 Rises=F Damp=F
 DIIS: error= 7.85D-05 at cycle  16 NSaved=  16.
 NSaved=16 IEnMin=16 EnMin= -881.758706171334     IErMin=16 ErrMin= 7.85D-05
 ErrMax= 7.85D-05  0.00D+00 EMaxC= 1.00D-01 BMatC= 4.86D-06 BMatP= 1.16D-04
 IDIUse=1 WtCom= 1.00D+00 WtEn= 0.00D+00
 Coeff-Com:  0.148D-04-0.342D-04-0.341D-05 0.467D-06-0.772D-05-0.280D-03
 Coeff-Com:  0.861D-04 0.986D-04 0.125D-03 0.603D-04 0.973D-04-0.524D-02
 Coeff-Com:  0.214D-01 0.138D+00 0.209D+00 0.637D+00
 Coeff:      0.148D-04-0.342D-04-0.341D-05 0.467D-06-0.772D-05-0.280D-03
 Coeff:      0.861D-04 0.986D-04 0.125D-03 0.603D-04 0.973D-04-0.524D-02
 Coeff:      0.214D-01 0.138D+00 0.209D+00 0.637D+00
 Gap=     0.165 Goal=   None    Shift=    0.000
 RMSDP=6.91D-06 MaxDP=2.97D-04 DE=-1.02D-04 OVMax= 6.45D-04

 Cycle  17  Pass 1  IDiag  1:
 RMSU=  5.07D-06    CP:  3.35D-02  1.94D-01  1.99D-02  1.31D-01  5.06D-02
                    CP:  8.17D-01  3.71D-02  4.68D-01  5.32D-01  7.15D-01
                    CP:  7.63D-01  8.12D-01  7.04D-01  7.77D-01  6.78D-01
                    CP:  7.28D-01
 E= -881.758710372697     Delta-E=       -0.000004201363 Rises=F Damp=F
 DIIS: error= 5.30D-05 at cycle  17 NSaved=  17.
 NSaved=17 IEnMin=17 EnMin= -881.758710372697     IErMin=17 ErrMin= 5.30D-05
 ErrMax= 5.30D-05  0.00D+00 EMaxC= 1.00D-01 BMatC= 1.45D-06 BMatP= 4.86D-06
 IDIUse=1 WtCom= 1.00D+00 WtEn= 0.00D+00
 Coeff-Com: -0.273D-05 0.630D-05 0.509D-05 0.249D-05-0.570D-05-0.993D-04
 Coeff-Com:  0.389D-04 0.101D-03 0.208D-03-0.217D-04 0.990D-04-0.269D-02
 Coeff-Com:  0.189D-02 0.348D-01 0.170D-01 0.315D+00 0.634D+00
 Coeff:     -0.273D-05 0.630D-05 0.509D-05 0.249D-05-0.570D-05-0.993D-04
 Coeff:      0.389D-04 0.101D-03 0.208D-03-0.217D-04 0.990D-04-0.269D-02
 Coeff:      0.189D-02 0.348D-01 0.170D-01 0.315D+00 0.634D+00
 Gap=     0.165 Goal=   None    Shift=    0.000
 RMSDP=3.44D-06 MaxDP=2.58D-04 DE=-4.20D-06 OVMax= 2.72D-04

 Cycle  18  Pass 1  IDiag  1:
 RMSU=  2.66D-06    CP:  3.35D-02  1.94D-01  1.99D-02  1.31D-01  5.06D-02
                    CP:  8.17D-01  3.71D-02  4.68D-01  5.32D-01  7.15D-01
                    CP:  7.63D-01  8.12D-01  7.04D-01  7.83D-01  6.70D-01
                    CP:  8.28D-01  8.33D-01
 E= -881.758711371240     Delta-E=       -0.000000998543 Rises=F Damp=F
 DIIS: error= 2.45D-05 at cycle  18 NSaved=  18.
 NSaved=18 IEnMin=18 EnMin= -881.758711371240     IErMin=18 ErrMin= 2.45D-05
 ErrMax= 2.45D-05  0.00D+00 EMaxC= 1.00D-01 BMatC= 2.49D-07 BMatP= 1.45D-06
 IDIUse=1 WtCom= 1.00D+00 WtEn= 0.00D+00
 Coeff-Com:  0.110D-05-0.518D-06 0.959D-06 0.236D-05 0.267D-06-0.390D-04
 Coeff-Com:  0.224D-05 0.187D-05 0.952D-04-0.238D-04 0.162D-03-0.473D-03
 Coeff-Com: -0.383D-02-0.624D-02-0.415D-01 0.223D-01 0.350D+00 0.679D+00
 Coeff:      0.110D-05-0.518D-06 0.959D-06 0.236D-05 0.267D-06-0.390D-04
 Coeff:      0.224D-05 0.187D-05 0.952D-04-0.238D-04 0.162D-03-0.473D-03
 Coeff:     -0.383D-02-0.624D-02-0.415D-01 0.223D-01 0.350D+00 0.679D+00
 Gap=     0.165 Goal=   None    Shift=    0.000
 RMSDP=1.37D-06 MaxDP=6.84D-05 DE=-9.99D-07 OVMax= 1.39D-04

 Cycle  19  Pass 1  IDiag  1:
 RMSU=  6.76D-07    CP:  3.35D-02  1.94D-01  1.99D-02  1.31D-01  5.06D-02
                    CP:  8.17D-01  3.71D-02  4.68D-01  5.32D-01  7.15D-01
                    CP:  7.63D-01  8.12D-01  7.03D-01  7.86D-01  6.62D-01
                    CP:  8.30D-01  9.40D-01  7.19D-01
 E= -881.758711619665     Delta-E=       -0.000000248425 Rises=F Damp=F
 DIIS: error= 4.95D-06 at cycle  19 NSaved=  19.
 NSaved=19 IEnMin=19 EnMin= -881.758711619665     IErMin=19 ErrMin= 4.95D-06
 ErrMax= 4.95D-06  0.00D+00 EMaxC= 1.00D-01 BMatC= 2.19D-08 BMatP= 2.49D-07
 IDIUse=1 WtCom= 1.00D+00 WtEn= 0.00D+00
 Coeff-Com:  0.118D-06 0.181D-06-0.205D-06 0.806D-06-0.145D-06-0.420D-05
 Coeff-Com: -0.843D-06-0.649D-05 0.520D-04 0.175D-05 0.102D-03 0.255D-03
 Coeff-Com: -0.113D-02-0.363D-02-0.183D-01-0.215D-01 0.715D-01 0.285D+00
 Coeff-Com:  0.688D+00
 Coeff:      0.118D-06 0.181D-06-0.205D-06 0.806D-06-0.145D-06-0.420D-05
 Coeff:     -0.843D-06-0.649D-05 0.520D-04 0.175D-05 0.102D-03 0.255D-03
 Coeff:     -0.113D-02-0.363D-02-0.183D-01-0.215D-01 0.715D-01 0.285D+00
 Coeff:      0.688D+00
 Gap=     0.165 Goal=   None    Shift=    0.000
 RMSDP=4.38D-07 MaxDP=2.98D-05 DE=-2.48D-07 OVMax= 3.65D-05

 Cycle  20  Pass 1  IDiag  1:
 RMSU=  2.96D-07    CP:  3.35D-02  1.94D-01  1.99D-02  1.31D-01  5.06D-02
                    CP:  8.17D-01  3.71D-02  4.68D-01  5.32D-01  7.15D-01
                    CP:  7.63D-01  8.11D-01  7.03D-01  7.86D-01  6.61D-01
                    CP:  8.31D-01  9.58D-01  8.03D-01  8.18D-01
 E= -881.758711636670     Delta-E=       -0.000000017005 Rises=F Damp=F
 DIIS: error= 2.08D-06 at cycle  20 NSaved=  20.
 NSaved=20 IEnMin=20 EnMin= -881.758711636670     IErMin=20 ErrMin= 2.08D-06
 ErrMax= 2.08D-06  0.00D+00 EMaxC= 1.00D-01 BMatC= 3.82D-09 BMatP= 2.19D-08
 IDIUse=1 WtCom= 1.00D+00 WtEn= 0.00D+00
 Coeff-Com: -0.224D-06 0.334D-06-0.274D-06 0.289D-07-0.264D-07-0.420D-06
 Coeff-Com:  0.896D-06-0.775D-05 0.239D-04-0.413D-05 0.478D-04 0.162D-03
 Coeff-Com: -0.145D-03-0.773D-03-0.491D-02-0.126D-01 0.286D-02 0.926D-01
 Coeff-Com:  0.384D+00 0.538D+00
 Coeff:     -0.224D-06 0.334D-06-0.274D-06 0.289D-07-0.264D-07-0.420D-06
 Coeff:      0.896D-06-0.775D-05 0.239D-04-0.413D-05 0.478D-04 0.162D-03
 Coeff:     -0.145D-03-0.773D-03-0.491D-02-0.126D-01 0.286D-02 0.926D-01
 Coeff:      0.384D+00 0.538D+00
 Gap=     0.165 Goal=   None    Shift=    0.000
 RMSDP=1.76D-07 MaxDP=1.15D-05 DE=-1.70D-08 OVMax= 2.02D-05

 Cycle  21  Pass 1  IDiag  1:
 Restarting incremental Fock formation.
 E= -881.758711640272     Delta-E=       -0.000000003602 Rises=F Damp=F
 DIIS: error= 1.05D-06 at cycle  21 NSaved=  20.
 NSaved=20 IEnMin=20 EnMin= -881.758711640272     IErMin=20 ErrMin= 1.05D-06
 ErrMax= 1.05D-06  0.00D+00 EMaxC= 1.00D-01 BMatC= 6.68D-10 BMatP= 3.82D-09
 IDIUse=1 WtCom= 1.00D+00 WtEn= 0.00D+00
 Coeff-Com: -0.994D-07 0.125D-07-0.195D-06-0.249D-07 0.475D-06 0.365D-06
 Coeff-Com: -0.244D-05 0.799D-05-0.393D-05 0.547D-05-0.792D-05 0.193D-03
 Coeff-Com:  0.748D-03 0.305D-02 0.139D-02-0.124D-01-0.269D-01-0.303D-01
 Coeff-Com:  0.181D+00 0.883D+00
 Coeff:     -0.994D-07 0.125D-07-0.195D-06-0.249D-07 0.475D-06 0.365D-06
 Coeff:     -0.244D-05 0.799D-05-0.393D-05 0.547D-05-0.792D-05 0.193D-03
 Coeff:      0.748D-03 0.305D-02 0.139D-02-0.124D-01-0.269D-01-0.303D-01
 Coeff:      0.181D+00 0.883D+00
 Gap=     0.165 Goal=   None    Shift=    0.000
 RMSDP=8.03D-08 MaxDP=3.92D-06 DE=-3.60D-09 OVMax= 6.82D-06

 Cycle  22  Pass 1  IDiag  1:
 RMSU=  8.03D-08    CP:  1.00D+00
 E= -881.758711640968     Delta-E=       -0.000000000696 Rises=F Damp=F
 DIIS: error= 3.99D-07 at cycle  22 NSaved=  20.
 NSaved=20 IEnMin=20 EnMin= -881.758711640968     IErMin=20 ErrMin= 3.99D-07
 ErrMax= 3.99D-07  0.00D+00 EMaxC= 1.00D-01 BMatC= 1.21D-10 BMatP= 6.68D-10
 IDIUse=1 WtCom= 1.00D+00 WtEn= 0.00D+00
 Coeff-Com: -0.384D-07 0.404D-07-0.522D-07-0.542D-07 0.127D-06-0.878D-06
 Coeff-Com:  0.227D-05-0.151D-05 0.588D-06-0.165D-04 0.117D-03 0.513D-03
 Coeff-Com:  0.233D-02 0.279D-02-0.523D-02-0.246D-01-0.822D-01 0.123D-02
 Coeff-Com:  0.434D+00 0.671D+00
 Coeff:     -0.384D-07 0.404D-07-0.522D-07-0.542D-07 0.127D-06-0.878D-06
 Coeff:      0.227D-05-0.151D-05 0.588D-06-0.165D-04 0.117D-03 0.513D-03
 Coeff:      0.233D-02 0.279D-02-0.523D-02-0.246D-01-0.822D-01 0.123D-02
 Coeff:      0.434D+00 0.671D+00
 Gap=     0.165 Goal=   None    Shift=    0.000
 RMSDP=3.45D-08 MaxDP=1.30D-06 DE=-6.96D-10 OVMax= 3.33D-06

 Cycle  23  Pass 1  IDiag  1:
 RMSU=  3.31D-08    CP:  1.00D+00  1.12D+00
 E= -881.758711641107     Delta-E=       -0.000000000139 Rises=F Damp=F
 DIIS: error= 1.28D-07 at cycle  23 NSaved=  20.
 NSaved=20 IEnMin=20 EnMin= -881.758711641107     IErMin=20 ErrMin= 1.28D-07
 ErrMax= 1.28D-07  0.00D+00 EMaxC= 1.00D-01 BMatC= 1.63D-11 BMatP= 1.21D-10
 IDIUse=1 WtCom= 1.00D+00 WtEn= 0.00D+00
 Coeff-Com:  0.271D-07-0.478D-07 0.284D-07 0.330D-07-0.310D-07 0.329D-06
 Coeff-Com: -0.961D-06 0.411D-07 0.154D-05 0.168D-04 0.677D-04 0.502D-03
 Coeff-Com:  0.664D-03-0.565D-03-0.584D-02-0.351D-01-0.293D-01 0.509D-01
 Coeff-Com:  0.322D+00 0.696D+00
 Coeff:      0.271D-07-0.478D-07 0.284D-07 0.330D-07-0.310D-07 0.329D-06
 Coeff:     -0.961D-06 0.411D-07 0.154D-05 0.168D-04 0.677D-04 0.502D-03
 Coeff:      0.664D-03-0.565D-03-0.584D-02-0.351D-01-0.293D-01 0.509D-01
 Coeff:      0.322D+00 0.696D+00
 Gap=     0.165 Goal=   None    Shift=    0.000
 RMSDP=1.43D-08 MaxDP=5.12D-07 DE=-1.39D-10 OVMax= 1.09D-06

 Cycle  24  Pass 1  IDiag  1:
 RMSU=  1.19D-08    CP:  1.00D+00  1.22D+00  9.56D-01
 E= -881.758711641120     Delta-E=       -0.000000000013 Rises=F Damp=F
 DIIS: error= 4.88D-08 at cycle  24 NSaved=  20.
 NSaved=20 IEnMin=20 EnMin= -881.758711641120     IErMin=20 ErrMin= 4.88D-08
 ErrMax= 4.88D-08  0.00D+00 EMaxC= 1.00D-01 BMatC= 1.49D-12 BMatP= 1.63D-11
 IDIUse=1 WtCom= 1.00D+00 WtEn= 0.00D+00
 Coeff-Com: -0.118D-07-0.136D-08 0.165D-07 0.107D-08-0.142D-07-0.120D-06
 Coeff-Com:  0.716D-06 0.377D-05-0.281D-05-0.115D-04 0.265D-04 0.674D-04
 Coeff-Com:  0.255D-03-0.440D-03-0.102D-01-0.137D-01-0.144D-01 0.897D-01
 Coeff-Com:  0.340D+00 0.609D+00
 Coeff:     -0.118D-07-0.136D-08 0.165D-07 0.107D-08-0.142D-07-0.120D-06
 Coeff:      0.716D-06 0.377D-05-0.281D-05-0.115D-04 0.265D-04 0.674D-04
 Coeff:      0.255D-03-0.440D-03-0.102D-01-0.137D-01-0.144D-01 0.897D-01
 Coeff:      0.340D+00 0.609D+00
 Gap=     0.165 Goal=   None    Shift=    0.000
 RMSDP=3.95D-09 MaxDP=2.15D-07 DE=-1.27D-11 OVMax= 3.90D-07

 Error on total polarization charges =  0.00980
 SCF Done:  E(RB3LYP) =  -881.758711641     A.U. after   24 cycles
            NFock= 24  Conv=0.39D-08     -V/T= 2.0096
 KE= 8.733729535442D+02 PE=-5.190425727729D+03 EE= 1.864790009027D+03
 Leave Link  502 at Sun Jun 30 17:08:51 2019, MaxMem=  1073741824 cpu:            1782.0 elap:              45.8
 (Enter /project/6004141/group/g16/g16/l801.exe)
 DoSCS=F DFT=T ScalE2(SS,OS)=  1.000000  1.000000
 ExpMin= 1.61D-01 ExpMax= 5.48D+03 ExpMxC= 8.25D+02 IAcc=3 IRadAn=         5 AccDes= 0.00D+00
 HarFok:  IExCor=  205 AccDes= 0.00D+00 IRadAn=         5 IDoV=-2 UseB2=F ITyADJ=14
 ICtDFT= 12500011 ScaDFX=  1.000000  1.000000  1.000000  1.000000
 Largest valence mixing into a core orbital is  5.78D-05
 Largest core mixing into a valence orbital is  1.44D-05
 Range of M.O.s used for correlation:    21   400
 NBasis=   400 NAE=    73 NBE=    73 NFC=    20 NFV=     0
 NROrb=    380 NOA=    53 NOB=    53 NVA=   327 NVB=   327
 Leave Link  801 at Sun Jun 30 17:08:52 2019, MaxMem=  1073741824 cpu:              10.3 elap:               0.3
 (Enter /project/6004141/group/g16/g16/l914.exe)
 RHF ground state
 Two-electron integrals replicated using symmetry.
 MDV=  1073741824 DFT=T DoStab=F Mixed=T DoRPA=T DoScal=F NonHer=T
 NEqPCM:  Using non-equilibrium solvation (IEInf=1, Eps=  35.6880, EpsInf=   1.8069)
 Inv3:  Mode=1 IEnd=    22342323.
 Iteration    1 A*A^-1 deviation from unit magnitude is 3.22D-15 for    618.
 Iteration    1 A*A^-1 deviation from orthogonality  is 1.76D-15 for   1786    970.
 Iteration    1 A^-1*A deviation from unit magnitude is 3.22D-15 for   2025.
 Iteration    1 A^-1*A deviation from orthogonality  is 2.94D-14 for   1749   1725.
 Making orbital integer symmetry assigments:
 Orbital symmetries:
       Occupied  (A) (A) (A) (A) (A) (A) (A) (A) (A) (A) (A) (A)
                 (A) (A) (A) (A) (A) (A) (A) (A) (A) (A) (A) (A)
                 (A) (A) (A) (A) (A) (A) (A) (A) (A) (A) (A) (A)
                 (A) (A) (A) (A) (A) (A) (A) (A) (A) (A) (A) (A)
                 (A) (A) (A) (A) (A) (A) (A) (A) (A) (A) (A) (A)
                 (A) (A) (A) (A) (A) (A) (A) (A) (A) (A) (A) (A)
                 (A)
       Virtual   (A) (A) (A) (A) (A) (A) (A) (A) (A) (A) (A) (A)
                 (A) (A) (A) (A) (A) (A) (A) (A) (A) (A) (A) (A)
                 (A) (A) (A) (A) (A) (A) (A) (A) (A) (A) (A) (A)
                 (A) (A) (A) (A) (A) (A) (A) (A) (A) (A) (A) (A)
                 (A) (A) (A) (A) (A) (A) (A) (A) (A) (A) (A) (A)
                 (A) (A) (A) (A) (A) (A) (A) (A) (A) (A) (A) (A)
                 (A) (A) (A) (A) (A) (A) (A) (A) (A) (A) (A) (A)
                 (A) (A) (A) (A) (A) (A) (A) (A) (A) (A) (A) (A)
                 (A) (A) (A) (A) (A) (A) (A) (A) (A) (A) (A) (A)
                 (A) (A) (A) (A) (A) (A) (A) (A) (A) (A) (A) (A)
                 (A) (A) (A) (A) (A) (A) (A) (A) (A) (A) (A) (A)
                 (A) (A) (A) (A) (A) (A) (A) (A) (A) (A) (A) (A)
                 (A) (A) (A) (A) (A) (A) (A) (A) (A) (A) (A) (A)
                 (A) (A) (A) (A) (A) (A) (A) (A) (A) (A) (A) (A)
                 (A) (A) (A) (A) (A) (A) (A) (A) (A) (A) (A) (A)
                 (A) (A) (A) (A) (A) (A) (A) (A) (A) (A) (A) (A)
                 (A) (A) (A) (A) (A) (A) (A) (A) (A) (A) (A) (A)
                 (A) (A) (A) (A) (A) (A) (A) (A) (A) (A) (A) (A)
                 (A) (A) (A) (A) (A) (A) (A) (A) (A) (A) (A) (A)
                 (A) (A) (A) (A) (A) (A) (A) (A) (A) (A) (A) (A)
                 (A) (A) (A) (A) (A) (A) (A) (A) (A) (A) (A) (A)
                 (A) (A) (A) (A) (A) (A) (A) (A) (A) (A) (A) (A)
                 (A) (A) (A) (A) (A) (A) (A) (A) (A) (A) (A) (A)
                 (A) (A) (A) (A) (A) (A) (A) (A) (A) (A) (A) (A)
                 (A) (A) (A) (A) (A) (A) (A) (A) (A) (A) (A) (A)
                 (A) (A) (A) (A) (A) (A) (A) (A) (A) (A) (A) (A)
                 (A) (A) (A) (A) (A) (A) (A) (A) (A) (A) (A) (A)
                 (A) (A) (A)
   800 initial guesses have been made.
 Convergence on wavefunction:    0.001000000000000
 Davidson Disk Diagonalization:  ConvIn= 1.00D-03 SkipCon=T Conv= 1.00D-03.
 Max sub-space: 12000 roots to seek:   800 dimension of matrix:        34662
 Iteration     1 Dimension   800 NMult     0 NNew    800
 CISAX will form    35 AO SS matrices at one time.
 NMat=    35 NSing=    35 JSym2X= 0.
 FoFJK:  IHMeth= 1 ICntrl=       0 DoSepK=F KAlg= 0 I1Cent=           0 FoldK=F
 IRaf= 800000000 NMat=      70 IRICut=      87 DoRegI=T DoRafI=T ISym2E= 0 IDoP0=0 IntGTp=1.
 NMat=    35 NSing=    35 JSym2X= 0.
 NMat=    35 NSing=    35 JSym2X= 0.
 NMat=    35 NSing=    35 JSym2X= 0.
 NMat=    35 NSing=    35 JSym2X= 0.
 NMat=    35 NSing=    35 JSym2X= 0.
 NMat=    35 NSing=    35 JSym2X= 0.
 NMat=    35 NSing=    35 JSym2X= 0.
 NMat=    35 NSing=    35 JSym2X= 0.
 NMat=    35 NSing=    35 JSym2X= 0.
 NMat=    35 NSing=    35 JSym2X= 0.
 NMat=    35 NSing=    15 JSym2X= 0.
 NMat=    35 NSing=     0 JSym2X= 0.
 NMat=    35 NSing=     0 JSym2X= 0.
 NMat=    35 NSing=     0 JSym2X= 0.
 NMat=    35 NSing=     0 JSym2X= 0.
 NMat=    35 NSing=     0 JSym2X= 0.
 NMat=    35 NSing=     0 JSym2X= 0.
 NMat=    35 NSing=     0 JSym2X= 0.
 NMat=    35 NSing=     0 JSym2X= 0.
 NMat=    35 NSing=     0 JSym2X= 0.
 NMat=    35 NSing=     0 JSym2X= 0.
 NMat=    30 NSing=     0 JSym2X= 0.
 New state      1 was old state     22
 New state      2 was old state     16
 New state      3 was old state     12
 New state      4 was old state     18
 New state      5 was old state      1
 New state      6 was old state     10
 New state      7 was old state      3
 New state      8 was old state     14
 New state      9 was old state      2
 New state     10 was old state     23
 New state     11 was old state      4
 New state     12 was old state      5
 New state     13 was old state      6
 New state     14 was old state     15
 New state     15 was old state      9
 New state     16 was old state      8
 New state     17 was old state      7
 New state     18 was old state     42
 New state     19 was old state     46
 New state     20 was old state     11
 New state     21 was old state     20
 New state     22 was old state     13
 New state     23 was old state     26
 New state     25 was old state     17
 New state     26 was old state     21
 New state     27 was old state     28
 New state     28 was old state     30
 New state     30 was old state     32
 New state     31 was old state     25
 New state     32 was old state     31
 New state     33 was old state     44
 New state     34 was old state     50
 New state     35 was old state     33
 New state     36 was old state     34
 New state     37 was old state     27
 New state     38 was old state     19
 New state     39 was old state     36
 New state     40 was old state     92
 New state     41 was old state     35
 New state     42 was old state     88
 New state     43 was old state     38
 New state     44 was old state     37
 New state     45 was old state     48
 New state     46 was old state     47
 New state     47 was old state     39
 New state     48 was old state     40
 New state     49 was old state     41
 New state     50 was old state     54
 New state     51 was old state     43
 New state     53 was old state     58
 New state     54 was old state     53
 New state     55 was old state     49
 New state     56 was old state     60
 New state     57 was old state     45
 New state     58 was old state     64
 New state     59 was old state     56
 New state     60 was old state     55
 New state     61 was old state     62
 New state     62 was old state     61
 New state     63 was old state     74
 New state     64 was old state     76
 New state     65 was old state     80
 New state     66 was old state     79
 New state     67 was old state     66
 New state     68 was old state     59
 New state     69 was old state     68
 New state     70 was old state    106
 New state     71 was old state     82
 New state     72 was old state     73
 New state     73 was old state     75
 New state     74 was old state     94
 New state     75 was old state     65
 New state     76 was old state     67
 New state     77 was old state     98
 New state     78 was old state     96
 New state     79 was old state     78
 New state     80 was old state    102
 New state     81 was old state     95
 New state     82 was old state     97
 New state     83 was old state    130
 New state     84 was old state    110
 New state     85 was old state     69
 New state     86 was old state     72
 New state     87 was old state    101
 New state     88 was old state    122
 New state     89 was old state     71
 New state     90 was old state     70
 New state     91 was old state     86
 New state     92 was old state     85
 New state     93 was old state    109
 New state     94 was old state     77
 New state     95 was old state     84
 New state     96 was old state     83
 New state     97 was old state     87
 New state     98 was old state    128
 New state     99 was old state     89
 New state    100 was old state    104
 New state    101 was old state     90
 New state    102 was old state    121
 New state    103 was old state    119
 New state    104 was old state    124
 New state    105 was old state     93
 New state    106 was old state    117
 New state    107 was old state    112
 New state    108 was old state    118
 New state    109 was old state    120
 New state    110 was old state    111
 New state    111 was old state    107
 New state    112 was old state    108
 New state    113 was old state    115
 New state    114 was old state    116
 New state    115 was old state    105
 New state    116 was old state    100
 New state    117 was old state     99
 New state    118 was old state    114
 New state    119 was old state    113
 New state    120 was old state    152
 New state    121 was old state    162
 New state    122 was old state     91
 New state    123 was old state    103
 New state    124 was old state    134
 New state    125 was old state    156
 New state    126 was old state    132
 New state    128 was old state    174
 New state    129 was old state    164
 New state    130 was old state    133
 New state    132 was old state    151
 New state    133 was old state    126
 New state    134 was old state    161
 New state    135 was old state    192
 New state    136 was old state    125
 New state    137 was old state    178
 New state    138 was old state    198
 New state    139 was old state    123
 New state    140 was old state    136
 New state    141 was old state    188
 New state    142 was old state    163
 New state    143 was old state    196
 New state    144 was old state    138
 New state    145 was old state    137
 New state    146 was old state    177
 New state    147 was old state    179
 New state    148 was old state    140
 New state    149 was old state    197
 New state    150 was old state    154
 New state    151 was old state    135
 New state    152 was old state    146
 New state    153 was old state    139
 New state    154 was old state    148
 New state    155 was old state    145
 New state    156 was old state    147
 New state    157 was old state    144
 New state    158 was old state    143
 New state    159 was old state    153
 New state    160 was old state    158
 New state    161 was old state    187
 New state    162 was old state    170
 New state    163 was old state    184
 New state    164 was old state    169
 New state    165 was old state    221
 New state    166 was old state    195
 New state    167 was old state    157
 New state    168 was old state    150
 New state    169 was old state    142
 New state    170 was old state    149
 New state    171 was old state    166
 New state    172 was old state    183
 New state    173 was old state    165
 New state    174 was old state    191
 New state    175 was old state    171
 New state    176 was old state    240
 New state    177 was old state    160
 New state    178 was old state    141
 New state    179 was old state    216
 New state    180 was old state    159
 New state    181 was old state    155
 New state    182 was old state    172
 New state    183 was old state    220
 New state    184 was old state    238
 New state    185 was old state    182
 New state    186 was old state    181
 New state    187 was old state    215
 New state    188 was old state    200
 New state    189 was old state    211
 New state    190 was old state    219
 New state    191 was old state    168
 New state    192 was old state    173
 New state    193 was old state    186
 New state    194 was old state    176
 New state    195 was old state    199
 New state    196 was old state    180
 New state    197 was old state    175
 New state    198 was old state    190
 New state    199 was old state    204
 New state    200 was old state    193
 New state    201 was old state    194
 No map to state    202
 New state    203 was old state    185
 New state    204 was old state    230
 New state    205 was old state    201
 New state    207 was old state    167
 New state    208 was old state    189
 New state    209 was old state    208
 New state    210 was old state    203
 New state    211 was old state    210
 New state    212 was old state    209
 New state    213 was old state    254
 New state    214 was old state    226
 New state    215 was old state    205
 New state    216 was old state    259
 New state    217 was old state    222
 New state    218 was old state    207
 New state    219 was old state    250
 New state    220 was old state    218
 New state    221 was old state    276
 New state    222 was old state    249
 New state    223 was old state    346
 New state    224 was old state    214
 New state    225 was old state    223
 New state    226 was old state    224
 New state    227 was old state    202
 New state    228 was old state    213
 New state    229 was old state    290
 New state    230 was old state    225
 New state    231 was old state    286
 New state    232 was old state    217
 New state    233 was old state    294
 New state    234 was old state    232
 New state    235 was old state    231
 New state    236 was old state    262
 No map to state    237
 New state    238 was old state    212
 New state    239 was old state    244
 New state    240 was old state    280
 New state    241 was old state    228
 New state    242 was old state    243
 New state    243 was old state    264
 New state    244 was old state    229
 New state    246 was old state    285
 New state    247 was old state    287
 New state    248 was old state    246
 New state    249 was old state    248
 New state    250 was old state    227
 New state    251 was old state    275
 New state    252 was old state    279
 New state    253 was old state    293
 New state    254 was old state    236
 New state    255 was old state    234
 New state    256 was old state    268
 New state    257 was old state    242
 New state    258 was old state    252
 New state    259 was old state    233
 New state    260 was old state    237
 New state    261 was old state    235
 New state    262 was old state    266
 New state    263 was old state    350
 New state    264 was old state    247
 New state    265 was old state    256
 New state    266 was old state    239
 New state    267 was old state    251
 New state    268 was old state    364
 New state    269 was old state    263
 New state    270 was old state    336
 New state    271 was old state    255
 New state    272 was old state    241
 New state    273 was old state    362
 New state    274 was old state    298
 New state    275 was old state    265
 New state    276 was old state    260
 New state    277 was old state    258
 New state    278 was old state    253
 New state    279 was old state    302
 New state    280 was old state    283
 New state    281 was old state    272
 New state    282 was old state    291
 New state    283 was old state    257
 New state    284 was old state    282
 New state    285 was old state    274
 New state    286 was old state    269
 New state    287 was old state    358
 New state    288 was old state    343
 New state    289 was old state    337
 New state    290 was old state    314
 New state    291 was old state    273
 New state    292 was old state    261
 New state    293 was old state    270
 New state    294 was old state    267
 New state    295 was old state    328
 New state    296 was old state    281
 New state    297 was old state    332
 New state    298 was old state    313
 New state    299 was old state    277
 New state    300 was old state    278
 New state    301 was old state    296
 New state    302 was old state    335
 New state    303 was old state    320
 New state    304 was old state    349
 New state    305 was old state    304
 New state    306 was old state    299
 New state    307 was old state    297
 New state    308 was old state    344
 New state    309 was old state    300
 New state    310 was old state    301
 New state    311 was old state    428
 New state    312 was old state    288
 New state    313 was old state    289
 New state    314 was old state    424
 New state    315 was old state    386
 New state    316 was old state    303
 New state    317 was old state    418
 New state    318 was old state    311
 New state    319 was old state    310
 New state    320 was old state    309
 New state    321 was old state    315
 New state    322 was old state    312
 New state    324 was old state    404
 New state    325 was old state    292
 New state    326 was old state    330
 New state    327 was old state    295
 New state    328 was old state    284
 No map to state    329
 New state    330 was old state    325
 New state    331 was old state    333
 New state    332 was old state    356
 New state    333 was old state    341
 New state    334 was old state    402
 New state    335 was old state    326
 New state    336 was old state    357
 New state    337 was old state    305
 New state    338 was old state    324
 New state    339 was old state    378
 New state    340 was old state    327
 New state    341 was old state    361
 New state    342 was old state    316
 New state    343 was old state    363
 New state    344 was old state    382
 New state    345 was old state    329
 New state    346 was old state    306
 New state    347 was old state    318
 New state    348 was old state    373
 New state    349 was old state    482
 New state    350 was old state    469
 New state    352 was old state    427
 New state    353 was old state    331
 New state    354 was old state    308
 New state    355 was old state    307
 New state    356 was old state    321
 New state    357 was old state    355
 New state    358 was old state    338
 New state    359 was old state    345
 New state    360 was old state    374
 New state    361 was old state    377
 New state    362 was old state    322
 New state    363 was old state    317
 New state    364 was old state    352
 New state    365 was old state    381
 New state    366 was old state    348
 New state    367 was old state    347
 New state    369 was old state    367
 New state    370 was old state    393
 New state    371 was old state    370
 New state    372 was old state    353
 New state    373 was old state    342
 New state    374 was old state    340
 New state    375 was old state    369
 New state    376 was old state    426
 New state    377 was old state    375
 New state    378 was old state    334
 New state    379 was old state    372
 New state    380 was old state    385
 New state    381 was old state    376
 New state    382 was old state    339
 New state    383 was old state    388
 New state    384 was old state    416
 New state    385 was old state    371
 New state    386 was old state    405
 New state    387 was old state    403
 New state    388 was old state    387
 New state    389 was old state    414
 New state    390 was old state    400
 New state    391 was old state    354
 New state    392 was old state    415
 New state    393 was old state    390
 New state    394 was old state    360
 New state    395 was old state    389
 New state    396 was old state    365
 New state    397 was old state    446
 New state    398 was old state    413
 New state    399 was old state    396
 New state    400 was old state    359
 Excitation Energies [eV] at current iteration:
 Root      1 :     3.407739499027557
 Root      2 :     3.435535943838391
 Root      3 :     3.528417124194678
 Root      4 :     3.558867218202479
[...]
     12   0.000000D+00  0.467061D-01 -0.401665D-01 -0.343585D-01  0.418210D-01
     13   0.000000D+00 -0.161780D-01  0.109177D+00 -0.789060D-01  0.113647D+00
     14   0.000000D+00  0.725413D+00 -0.214534D+00  0.572547D-01 -0.624873D+00
     15   0.000000D+00 -0.131441D+01 -0.393151D+00 -0.296257D+00 -0.868033D+00
     16   0.000000D+00 -0.439300D+00  0.550847D-01  0.126035D+00  0.549419D+00
               136           137           138           139           140 
      1  -0.881471D+03 -0.881471D+03 -0.881471D+03 -0.881470D+03 -0.881469D+03
      2   0.000000D+00  0.161759D+00  0.000000D+00 -0.210308D-01  0.683949D+00
      3   0.000000D+00 -0.212263D+00  0.000000D+00 -0.104364D+00 -0.127958D+00
      4   0.000000D+00  0.450558D+00  0.000000D+00  0.254802D-01  0.187632D+00
      5   0.000000D+00 -0.478182D-01  0.000000D+00  0.538495D-02 -0.197152D+00
      6   0.000000D+00  0.530568D-01  0.000000D+00  0.192607D-01  0.333670D-01
      7   0.000000D+00 -0.130678D+00  0.000000D+00 -0.904682D-02 -0.508255D-01
      8   0.000000D+00 -0.264769D+00  0.000000D+00 -0.459381D-01 -0.127441D+00
      9   0.000000D+00 -0.560557D+00  0.000000D+00 -0.507615D-01  0.725484D-01
     10   0.000000D+00 -0.497023D+00  0.000000D+00 -0.183467D+00  0.357509D+00
     11   0.000000D+00  0.744217D+00  0.000000D+00  0.186662D-01  0.136334D+01
     12   0.000000D+00  0.139032D+00  0.000000D+00 -0.131151D+00  0.573602D-01
     13   0.000000D+00 -0.115336D+00  0.000000D+00 -0.427866D-02 -0.359316D+00
     14   0.000000D+00  0.196166D+00  0.000000D+00 -0.576990D-01 -0.643162D+00
     15   0.000000D+00  0.585081D+00  0.000000D+00  0.376960D-01  0.503553D-01
     16   0.000000D+00 -0.208363D+00  0.000000D+00 -0.304079D-01 -0.380245D-01
               141           142           143           144           145 
      1  -0.881468D+03 -0.881467D+03 -0.881466D+03 -0.881466D+03 -0.881464D+03
      2   0.000000D+00  0.000000D+00 -0.893838D+00  0.000000D+00  0.000000D+00
      3   0.000000D+00  0.000000D+00  0.120249D+00  0.000000D+00  0.000000D+00
      4   0.000000D+00  0.000000D+00 -0.110708D+00  0.000000D+00  0.000000D+00
      5   0.000000D+00  0.000000D+00  0.261185D+00  0.000000D+00  0.000000D+00
      6   0.000000D+00  0.000000D+00 -0.361293D-01  0.000000D+00  0.000000D+00
      7   0.000000D+00  0.000000D+00  0.326224D-01  0.000000D+00  0.000000D+00
      8   0.000000D+00  0.000000D+00 -0.336177D+00  0.000000D+00  0.000000D+00
      9   0.000000D+00  0.000000D+00  0.244044D+00  0.000000D+00  0.000000D+00
     10   0.000000D+00  0.000000D+00  0.259549D-02  0.000000D+00  0.000000D+00
     11   0.000000D+00  0.000000D+00 -0.211096D+01  0.000000D+00  0.000000D+00
     12   0.000000D+00  0.000000D+00 -0.565590D-01  0.000000D+00  0.000000D+00
     13   0.000000D+00  0.000000D+00  0.212507D+00  0.000000D+00  0.000000D+00
     14   0.000000D+00  0.000000D+00  0.184315D+00  0.000000D+00  0.000000D+00
     15   0.000000D+00  0.000000D+00 -0.224047D+00  0.000000D+00  0.000000D+00
     16   0.000000D+00  0.000000D+00 -0.226514D+00  0.000000D+00  0.000000D+00
               146           147           148           149           150 
      1  -0.881464D+03 -0.881463D+03 -0.881462D+03 -0.881461D+03 -0.881459D+03
      2  -0.130357D+00 -0.221125D+00  0.000000D+00 -0.448174D+00 -0.364846D-01
      3  -0.166374D+00  0.960768D-01  0.000000D+00  0.351749D-01 -0.276093D-01
      4   0.145127D+01  0.123646D+00  0.000000D+00 -0.149052D+00  0.259803D-01
      5   0.344884D-01  0.803375D-01  0.000000D+00  0.130100D+00  0.115688D-01
      6   0.403568D-01 -0.348322D-01  0.000000D+00 -0.852569D-02  0.120142D-01
      7  -0.405419D+00 -0.339693D-01  0.000000D+00  0.407108D-01 -0.810597D-02
      8   0.136645D+00 -0.202023D+00  0.000000D+00  0.624501D+00  0.154874D+00
      9  -0.427915D+00  0.833817D-01  0.000000D+00 -0.431653D+00 -0.366856D-01
     10  -0.114453D+00 -0.114737D+00  0.000000D+00  0.554283D-01  0.170499D+00
     11  -0.117401D+01  0.121353D+01  0.000000D+00 -0.206443D+01 -0.205418D+00
     12   0.155811D+00  0.127863D+00  0.000000D+00 -0.141672D+00  0.149725D-01
     13   0.143256D+00  0.122534D-01  0.000000D+00  0.534947D+00  0.280564D-01
     14  -0.464196D+00 -0.525104D+00  0.000000D+00  0.266510D+00 -0.236063D-01
     15   0.483046D+00 -0.878333D-01  0.000000D+00  0.472195D+00  0.109131D+00
     16   0.763982D-01 -0.171002D+00  0.000000D+00  0.730928D+00 -0.502681D-01
               151           152           153           154           155 
      1  -0.881458D+03 -0.881458D+03 -0.881458D+03 -0.881458D+03 -0.881457D+03
      2   0.272801D-01  0.000000D+00  0.134217D+00 -0.835718D-01  0.000000D+00
      3  -0.156974D-01  0.000000D+00 -0.128367D+00 -0.494129D-01  0.000000D+00
      4  -0.152331D-01  0.000000D+00  0.120381D+00 -0.302704D-01  0.000000D+00
      5  -0.751465D-02  0.000000D+00 -0.405735D-01  0.269232D-01  0.000000D+00
      6   0.933480D-02  0.000000D+00  0.377768D-01  0.190362D-01  0.000000D+00
      7   0.472139D-02  0.000000D+00 -0.362609D-01  0.102483D-01  0.000000D+00
      8  -0.132614D+00  0.000000D+00 -0.103489D+00  0.487146D+00  0.000000D+00
      9   0.399041D-01  0.000000D+00 -0.322160D-01 -0.604754D-01  0.000000D+00
     10   0.186260D+00  0.000000D+00  0.321229D+00 -0.380134D-01  0.000000D+00
     11   0.134300D+00  0.000000D+00  0.232220D+00 -0.199674D+00  0.000000D+00
     12   0.268846D-02  0.000000D+00  0.141025D+00  0.212405D-01  0.000000D+00
     13  -0.451362D-01  0.000000D+00 -0.132289D+00  0.406133D-02  0.000000D+00
     14  -0.432478D-01  0.000000D+00 -0.398174D+00  0.138136D+00  0.000000D+00
     15   0.250036D-02  0.000000D+00  0.262634D+00 -0.258499D-01  0.000000D+00
     16  -0.325094D-01  0.000000D+00 -0.371825D+00 -0.577291D-01  0.000000D+00
               156           157           158           159           160 
      1  -0.881456D+03 -0.881455D+03 -0.881455D+03 -0.881454D+03 -0.881454D+03
      2   0.000000D+00  0.000000D+00  0.631785D-01 -0.521892D-01  0.000000D+00
      3   0.000000D+00  0.000000D+00  0.217384D+00 -0.303031D-01  0.000000D+00
      4   0.000000D+00  0.000000D+00 -0.106191D+00 -0.473704D-02  0.000000D+00
      5   0.000000D+00  0.000000D+00 -0.236216D-01  0.170847D-01  0.000000D+00
      6   0.000000D+00  0.000000D+00 -0.833585D-01  0.747500D-02  0.000000D+00
      7   0.000000D+00  0.000000D+00  0.280454D-01  0.199700D-02  0.000000D+00
      8   0.000000D+00  0.000000D+00  0.159936D+00  0.280802D-01  0.000000D+00
      9   0.000000D+00  0.000000D+00  0.928097D-01 -0.129258D+00  0.000000D+00
     10   0.000000D+00  0.000000D+00 -0.100257D+01  0.168855D+00  0.000000D+00
     11   0.000000D+00  0.000000D+00 -0.191456D+00  0.269101D+00  0.000000D+00
     12   0.000000D+00  0.000000D+00  0.226976D+00  0.585268D-01  0.000000D+00
     13   0.000000D+00  0.000000D+00 -0.472561D-02 -0.121812D+00  0.000000D+00
     14   0.000000D+00  0.000000D+00 -0.329565D+00 -0.101652D+00  0.000000D+00
     15   0.000000D+00  0.000000D+00 -0.170348D+00 -0.451456D-01  0.000000D+00
     16   0.000000D+00  0.000000D+00  0.434144D-01 -0.141642D+00  0.000000D+00
               161           162           163           164           165 
      1  -0.881454D+03 -0.881453D+03 -0.881452D+03 -0.881452D+03 -0.881451D+03
      2   0.149609D-01 -0.266654D+00  0.000000D+00  0.328745D+00  0.244049D+00
      3   0.217587D-01  0.747150D-01  0.000000D+00 -0.455342D-01 -0.110167D+00
      4  -0.112748D+00 -0.568091D-01  0.000000D+00 -0.791377D-03  0.627687D-01
      5  -0.501864D-02  0.854282D-01  0.000000D+00 -0.104910D+00 -0.758722D-01
      6  -0.817561D-02 -0.152356D-01  0.000000D+00  0.193519D-01  0.387315D-01
      7   0.322941D-01  0.220320D-01  0.000000D+00  0.246364D-02 -0.170631D-01
      8   0.590407D-01  0.922276D-01  0.000000D+00 -0.533227D+00  0.163845D+00
      9  -0.636333D-01 -0.301872D+00  0.000000D+00  0.144975D+00  0.251488D-01
     10  -0.168719D+00 -0.105905D+00  0.000000D+00 -0.798805D-01  0.325270D+00
     11   0.299263D-01  0.875078D+00  0.000000D+00 -0.785211D+00 -0.728242D+00
     12   0.816890D-01 -0.755240D-01  0.000000D+00  0.325026D-01  0.488815D-01
     13  -0.329832D-01 -0.428707D-01  0.000000D+00  0.599463D-01  0.245314D-02
     14  -0.117555D+00 -0.162294D+00  0.000000D+00  0.512504D-01  0.297933D+00
     15   0.378938D-01  0.787330D-01  0.000000D+00 -0.907822D-01 -0.948130D-01
     16  -0.102101D+00  0.226107D+00  0.000000D+00 -0.427234D-01 -0.332714D+00
               166           167           168           169           170 
      1  -0.881451D+03 -0.881450D+03 -0.881450D+03 -0.881449D+03 -0.881447D+03
      2   0.000000D+00 -0.910989D-02  0.000000D+00  0.211040D+00 -0.115503D+00
      3   0.000000D+00 -0.311944D-01  0.000000D+00  0.278182D+00 -0.713712D-01
      4   0.000000D+00 -0.371497D-02  0.000000D+00  0.221007D+00 -0.308580D-02
      5   0.000000D+00  0.367351D-02  0.000000D+00 -0.793562D-01  0.390929D-01
      6   0.000000D+00  0.154343D-01  0.000000D+00 -0.111543D+00  0.273824D-01
      7   0.000000D+00  0.208218D-02  0.000000D+00 -0.751095D-01  0.291180D-04
      8   0.000000D+00 -0.156304D+00  0.000000D+00  0.129953D+00 -0.830506D-01
      9   0.000000D+00 -0.529436D-01  0.000000D+00  0.723231D+00  0.362175D-01
     10   0.000000D+00  0.503822D+00  0.000000D+00 -0.137373D+01  0.163598D+00
     11   0.000000D+00  0.139690D+00  0.000000D+00 -0.119629D+01  0.765917D-01
     12   0.000000D+00 -0.292689D-01  0.000000D+00  0.438354D+00 -0.142835D+00
     13   0.000000D+00  0.202118D-02  0.000000D+00  0.820881D-01  0.447907D-01
     14   0.000000D+00  0.122206D+00  0.000000D+00 -0.659266D+00  0.126884D-01
     15   0.000000D+00 -0.534020D-01  0.000000D+00 -0.540114D+00  0.613943D-01
     16   0.000000D+00  0.552156D-01  0.000000D+00  0.170669D+00  0.583012D-01
               171           172           173           174           175 
      1  -0.881447D+03 -0.881446D+03 -0.881446D+03 -0.881446D+03 -0.881446D+03
      2   0.000000D+00  0.000000D+00  0.134913D+00  0.000000D+00  0.129582D-01
      3   0.000000D+00  0.000000D+00  0.479632D-01  0.000000D+00 -0.455097D-01
      4   0.000000D+00  0.000000D+00 -0.286551D+00  0.000000D+00 -0.150492D-01
      5   0.000000D+00  0.000000D+00 -0.420022D-01  0.000000D+00 -0.424413D-02
      6   0.000000D+00  0.000000D+00 -0.126925D-01  0.000000D+00  0.138911D-01
      7   0.000000D+00  0.000000D+00  0.921512D-01  0.000000D+00  0.193635D-02
      8   0.000000D+00  0.000000D+00 -0.632731D-01  0.000000D+00  0.991667D-01
      9   0.000000D+00  0.000000D+00 -0.545720D+00  0.000000D+00  0.119358D+00
     10   0.000000D+00  0.000000D+00 -0.360052D+00  0.000000D+00  0.381748D-01
     11   0.000000D+00  0.000000D+00  0.218420D-01  0.000000D+00  0.126925D+00
     12   0.000000D+00  0.000000D+00 -0.175557D+00  0.000000D+00 -0.270502D-01
     13   0.000000D+00  0.000000D+00  0.440757D-01  0.000000D+00 -0.352740D-01
     14   0.000000D+00  0.000000D+00  0.347964D+00  0.000000D+00 -0.370758D-01
     15   0.000000D+00  0.000000D+00  0.511841D-01  0.000000D+00 -0.878153D-01
     16   0.000000D+00  0.000000D+00 -0.569475D-01  0.000000D+00  0.186875D-01
               176           177           178           179           180 
      1  -0.881445D+03 -0.881445D+03 -0.881445D+03 -0.881444D+03 -0.881443D+03
      2   0.164665D+00  0.000000D+00 -0.729905D-01  0.247550D-02  0.000000D+00
      3   0.794486D-02  0.000000D+00 -0.932598D-01 -0.630159D-01  0.000000D+00
      4  -0.804938D-01  0.000000D+00  0.527093D-01  0.904280D-01  0.000000D+00
      5  -0.538809D-01  0.000000D+00  0.315278D-01  0.480604D-02  0.000000D+00
      6   0.627195D-03  0.000000D+00  0.236794D-01  0.156218D-01  0.000000D+00
      7   0.268523D-01  0.000000D+00 -0.168895D-01 -0.258873D-01  0.000000D+00
      8   0.160696D-01  0.000000D+00 -0.456804D+00 -0.278735D-02  0.000000D+00
      9  -0.121454D+00  0.000000D+00  0.121458D+00  0.174871D-01  0.000000D+00
     10   0.117460D-01  0.000000D+00 -0.717133D-01  0.313124D-01  0.000000D+00
     11  -0.297397D+00  0.000000D+00 -0.545417D+00 -0.247863D+00  0.000000D+00
     12   0.951889D-01  0.000000D+00  0.121602D+00  0.113289D+00  0.000000D+00
     13   0.157963D-02  0.000000D+00  0.196138D+00  0.144179D+00  0.000000D+00
     14   0.177828D+00  0.000000D+00 -0.606748D-01 -0.395617D-02  0.000000D+00
     15  -0.786914D-01  0.000000D+00  0.112949D-01  0.100895D+00  0.000000D+00
     16  -0.770914D-01  0.000000D+00 -0.328054D+00 -0.300006D+00  0.000000D+00
               181           182           183           184           185 
      1  -0.881443D+03 -0.881443D+03 -0.881442D+03 -0.881441D+03 -0.881441D+03
      2   0.000000D+00  0.142835D+00  0.000000D+00  0.000000D+00  0.766504D-01
      3   0.000000D+00 -0.444435D-01  0.000000D+00  0.000000D+00  0.269643D-01
      4   0.000000D+00 -0.562969D-02  0.000000D+00  0.000000D+00  0.272292D-01
      5   0.000000D+00 -0.604190D-01  0.000000D+00  0.000000D+00 -0.230211D-01
      6   0.000000D+00  0.237983D-01  0.000000D+00  0.000000D+00 -0.150371D-01
      7   0.000000D+00  0.393739D-02  0.000000D+00  0.000000D+00 -0.136855D-01
      8   0.000000D+00  0.706224D-01  0.000000D+00  0.000000D+00  0.414058D+00
      9   0.000000D+00 -0.138311D+00  0.000000D+00  0.000000D+00  0.375062D-01
     10   0.000000D+00 -0.355057D-02  0.000000D+00  0.000000D+00 -0.303372D+00
     11   0.000000D+00 -0.473543D+00  0.000000D+00  0.000000D+00 -0.191219D+00
     12   0.000000D+00 -0.797538D-01  0.000000D+00  0.000000D+00  0.141472D+00
     13   0.000000D+00  0.303551D-01  0.000000D+00  0.000000D+00 -0.190704D+00
     14   0.000000D+00  0.168802D+00  0.000000D+00  0.000000D+00 -0.637701D-01
     15   0.000000D+00  0.395474D-01  0.000000D+00  0.000000D+00 -0.200345D+00
     16   0.000000D+00 -0.597757D-01  0.000000D+00  0.000000D+00  0.765522D-03
               186           187           188           189           190 
      1  -0.881440D+03 -0.881440D+03 -0.881439D+03 -0.881437D+03 -0.881437D+03
      2  -0.281523D-01  0.000000D+00  0.000000D+00 -0.210279D-01  0.000000D+00
      3   0.317984D-03  0.000000D+00  0.000000D+00 -0.104817D+00  0.000000D+00
      4  -0.468208D+00  0.000000D+00  0.000000D+00  0.220974D+00  0.000000D+00
      5   0.105465D-01  0.000000D+00  0.000000D+00  0.743948D-02  0.000000D+00
      6   0.236186D-02  0.000000D+00  0.000000D+00  0.323398D-01  0.000000D+00
      7   0.137800D+00  0.000000D+00  0.000000D+00 -0.683593D-01  0.000000D+00
      8   0.239996D+00  0.000000D+00  0.000000D+00  0.383225D+00  0.000000D+00
      9   0.377788D+00  0.000000D+00  0.000000D+00 -0.132692D+00  0.000000D+00
     10   0.135503D+00  0.000000D+00  0.000000D+00 -0.764303D-01  0.000000D+00
     11  -0.147881D+00  0.000000D+00  0.000000D+00 -0.100554D+00  0.000000D+00
     12  -0.104977D+00  0.000000D+00  0.000000D+00 -0.837851D-01  0.000000D+00
     13   0.550673D-01  0.000000D+00  0.000000D+00 -0.346733D-01  0.000000D+00
     14   0.128977D+00  0.000000D+00  0.000000D+00 -0.162043D+00  0.000000D+00
     15  -0.818745D+00  0.000000D+00  0.000000D+00  0.665810D+00  0.000000D+00
     16   0.876493D-01  0.000000D+00  0.000000D+00  0.160114D+00  0.000000D+00
               191           192           193           194           195 
      1  -0.881437D+03 -0.881436D+03 -0.881436D+03 -0.881435D+03 -0.881435D+03
      2  -0.153068D-01  0.000000D+00 -0.462651D-02  0.233726D-02  0.000000D+00
      3  -0.624106D-01  0.000000D+00 -0.223104D-01  0.296294D-01  0.000000D+00
      4   0.390201D-01  0.000000D+00  0.253977D-01  0.926863D-02  0.000000D+00
      5   0.544672D-02  0.000000D+00  0.249302D-02 -0.102190D-02  0.000000D+00
      6   0.186204D-01  0.000000D+00  0.723262D-02 -0.905574D-02  0.000000D+00
      7  -0.128523D-01  0.000000D+00 -0.792631D-02 -0.320807D-02  0.000000D+00
      8  -0.102712D+01  0.000000D+00  0.813179D+00 -0.651093D+00  0.000000D+00
      9   0.149520D-01  0.000000D+00 -0.950835D-01  0.138501D+00  0.000000D+00
     10   0.190125D+00  0.000000D+00  0.517500D-01 -0.285528D+00  0.000000D+00
     11  -0.129504D+00  0.000000D+00 -0.683732D-01  0.559154D-02  0.000000D+00
     12  -0.123658D+00  0.000000D+00  0.257957D-01 -0.287591D-01  0.000000D+00
     13   0.885266D-01  0.000000D+00 -0.154852D-01  0.341707D-01  0.000000D+00
     14   0.717131D-01  0.000000D+00  0.573242D-01 -0.116296D+00  0.000000D+00
     15   0.198122D+00  0.000000D+00  0.643101D-01  0.209428D-01  0.000000D+00
     16   0.231067D+00  0.000000D+00 -0.841039D-01  0.836653D-01  0.000000D+00
               196           197           198           199           200 
      1  -0.881434D+03 -0.881433D+03 -0.881433D+03 -0.881432D+03 -0.881431D+03
      2   0.434379D-01 -0.359407D-02 -0.353304D-01  0.155674D-01  0.244217D-01
      3   0.423122D-01 -0.106681D+00 -0.332568D-01 -0.896304D-02  0.394521D-01
      4   0.346405D-01  0.162487D-01  0.701885D-01  0.173343D-01  0.156873D-01
      5  -0.137450D-01 -0.132305D-01  0.647566D-02 -0.391929D-02 -0.102651D-01
      6  -0.856487D-02  0.315914D-01  0.997288D-02  0.174315D-02 -0.104825D-01
      7  -0.609975D-02 -0.738987D-02 -0.172888D-01 -0.527480D-02 -0.470319D-02
      8  -0.377137D-01  0.410606D+00  0.169358D+00 -0.687023D-01 -0.653962D-01
      9  -0.547630D-02 -0.122734D+00 -0.649270D-01  0.102228D-01 -0.914348D-01
     10   0.597879D+00 -0.590764D-01 -0.834957D-01 -0.178218D-02  0.182033D+00
     11   0.884033D-01  0.293638D+00  0.207685D+00  0.707834D-01  0.128137D+00
     12  -0.802025D-01 -0.990909D-01 -0.741800D-01 -0.685867D-02 -0.517216D-01
     13  -0.160846D-01 -0.120201D+00 -0.533863D-01 -0.129985D-01 -0.124170D-01
     14   0.122324D+00 -0.447383D-01 -0.112777D+00 -0.312429D-01  0.555387D-01
     15  -0.666105D-01  0.181933D+00  0.189136D+00  0.430397D-01  0.128768D-01
     16   0.210018D-01  0.141423D+00  0.180666D+00  0.239663D-01  0.145215D-01
 1\1\GINC-BLG9613\SP\RB3LYP TD-FC\6-31G(d,p)\C16H20N2O2\RZK\30-Jun-2019
 \0\\#p td=(50-50,nstates=100) rb3lyp/6-31g(d,p) scrf=(iefpcm,solvent=a
 cetonitrile) guess=(core,mix,always) empiricaldispersion=gd3\\After th
 e closed shell GS is optimized, find out which excited state we need\\
 0,1\C,0,0.354292,-1.479367,-0.300682\H,0,4.618022,-1.283283,1.298049\C
 ,0,1.78959,1.486036,0.313703\O,0,2.516551,1.44709,-0.678564\O,0,1.0873
 93,-1.591673,0.682724\N,0,4.641778,-0.832169,-0.640352\H,0,4.542537,-1
 .382863,-1.490021\N,0,4.216729,-1.684188,0.453524\H,0,3.201097,-1.6408
 52,0.567673\H,0,4.015195,-0.029334,-0.735132\C,0,0.944413,-1.344207,-1
 .686276\H,0,0.59689,-2.155483,-2.333883\H,0,0.629864,-0.39991,-2.13980
 6\H,0,2.031853,-1.359962,-1.621332\C,0,2.34462,1.203121,1.691376\H,0,2
 .133242,2.030138,2.376266\H,0,1.877621,0.300528,2.095869\H,0,3.421182,
 1.048234,1.619719\C,0,-1.127817,-1.466906,-0.133755\C,0,-1.661066,-1.6
 65472,1.151099\C,0,-2.000025,-1.243915,-1.210097\C,0,-3.036203,-1.6450
 7,1.355511\H,0,-0.976966,-1.82964,1.976279\C,0,-3.378972,-1.217805,-1.
 003288\H,0,-1.611,-1.079441,-2.208397\C,0,-3.89843,-1.419016,0.276932\
 H,0,-3.439469,-1.800289,2.351458\H,0,-4.046348,-1.037619,-1.840128\H,0
 ,-4.972479,-1.398392,0.435704\C,0,0.335793,1.789979,0.163553\C,0,-0.15
 1912,2.12626,-1.111322\C,0,-0.562152,1.703684,1.238513\C,0,-1.508064,2
 .360762,-1.308906\H,0,0.551512,2.192584,-1.934174\C,0,-1.922581,1.9333
 8,1.038083\H,0,-0.210412,1.435119,2.228133\C,0,-2.397359,2.258132,-0.2
 33613\H,0,-1.876758,2.614901,-2.297804\H,0,-2.612881,1.843333,1.870299
 \H,0,-3.45857,2.425814,-0.389234\\Version=ES64L-G16RevA.03\State=1-A\H
 F=-881.7587116\RMSD=3.946e-09\PG=C01 [X(C16H20N2O2)]\\@


 "THE TIME HAS COME", THE WALRUS SAID,
 "TO TALK OF MANY THINGS,
 OF SHOES AND SHIPS AND SEALING WAX,
 OF CABBAGES AND KINGS,
 AND WHY THE SEA IS BOILING HOT,
 AND WHETHER PIGS HAVE WINGS."
 Job cpu time:       0 days 17 hours 45 minutes 51.7 seconds.
 Elapsed time:       0 days  0 hours 26 minutes 48.0 seconds.
 File lengths (MBytes):  RWF=  17357 Int=      0 D2E=      0 Chk=   1048 Scr=      2
 Normal termination of Gaussian 16 at Sun Jun 30 17:34:54 2019.
