 Entering Gaussian System, Link 0=g16
 Initial command:
 /Applications/G16/g16/l1.exe "/Users/rustam/G16-scratch/Gau-29791.inp" -scrdir="/Users/rustam/G16-scratch/"
 Entering Link 1 = /Applications/G16/g16/l1.exe PID=     29792.
  
 Copyright (c) 1988,1990,1992,1993,1995,1998,2003,2009,2016,
            Gaussian, Inc.  All Rights Reserved.
  
 This is part of the Gaussian(R) 16 program.  It is based on
 the Gaussian(R) 09 system (copyright 2009, Gaussian, Inc.),
 the Gaussian(R) 03 system (copyright 2003, Gaussian, Inc.),
 the Gaussian(R) 98 system (copyright 1998, Gaussian, Inc.),
 the Gaussian(R) 94 system (copyright 1995, Gaussian, Inc.),
 the Gaussian 92(TM) system (copyright 1992, Gaussian, Inc.),
 the Gaussian 90(TM) system (copyright 1990, Gaussian, Inc.),
 the Gaussian 88(TM) system (copyright 1988, Gaussian, Inc.),
 the Gaussian 86(TM) system (copyright 1986, Carnegie Mellon
 University), and the Gaussian 82(TM) system (copyright 1983,
 Carnegie Mellon University). Gaussian is a federally registered
 trademark of Gaussian, Inc.
  
 This software contains proprietary and confidential information,
 including trade secrets, belonging to Gaussian, Inc.
  
 This software is provided under written license and may be
 used, copied, transmitted, or stored only in accord with that
 written license.
  
 The following legend is applicable only to US Government
 contracts under FAR:
  
                    RESTRICTED RIGHTS LEGEND
  
 Use, reproduction and disclosure by the US Government is
 subject to restrictions as set forth in subparagraphs (a)
 and (c) of the Commercial Computer Software - Restricted
 Rights clause in FAR 52.227-19.
  
 Gaussian, Inc.
 340 Quinnipiac St., Bldg. 40, Wallingford CT 06492
  
  
 ---------------------------------------------------------------
 Warning -- This program may not be used in any manner that
 competes with the business of Gaussian, Inc. or will provide
 assistance to any competitor of Gaussian, Inc.  The licensee
 of this program is prohibited from giving any competitor of
 Gaussian, Inc. access to this program.  By using this program,
 the user acknowledges that Gaussian, Inc. is engaged in the
 business of creating and licensing software in the field of
 computational chemistry and represents and warrants to the
 licensee that it is not a competitor of Gaussian, Inc. and that
 it will not use this program in any manner prohibited above.
 ---------------------------------------------------------------
  

 Cite this work as:
 Gaussian 16, Revision A.03,
 M. J. Frisch, G. W. Trucks, H. B. Schlegel, G. E. Scuseria, 
 M. A. Robb, J. R. Cheeseman, G. Scalmani, V. Barone, 
 G. A. Petersson, H. Nakatsuji, X. Li, M. Caricato, A. V. Marenich, 
 J. Bloino, B. G. Janesko, R. Gomperts, B. Mennucci, H. P. Hratchian, 
 J. V. Ortiz, A. F. Izmaylov, J. L. Sonnenberg, D. Williams-Young, 
 F. Ding, F. Lipparini, F. Egidi, J. Goings, B. Peng, A. Petrone, 
 T. Henderson, D. Ranasinghe, V. G. Zakrzewski, J. Gao, N. Rega, 
 G. Zheng, W. Liang, M. Hada, M. Ehara, K. Toyota, R. Fukuda, 
 J. Hasegawa, M. Ishida, T. Nakajima, Y. Honda, O. Kitao, H. Nakai, 
 T. Vreven, K. Throssell, J. A. Montgomery, Jr., J. E. Peralta, 
 F. Ogliaro, M. J. Bearpark, J. J. Heyd, E. N. Brothers, K. N. Kudin, 
 V. N. Staroverov, T. A. Keith, R. Kobayashi, J. Normand, 
 K. Raghavachari, A. P. Rendell, J. C. Burant, S. S. Iyengar, 
 J. Tomasi, M. Cossi, J. M. Millam, M. Klene, C. Adamo, R. Cammi, 
 J. W. Ochterski, R. L. Martin, K. Morokuma, O. Farkas, 
 J. B. Foresman, and D. J. Fox, Gaussian, Inc., Wallingford CT, 2016.
 
 ******************************************
 Gaussian 16:  EM64M-G16RevA.03 25-Dec-2016
                20-Jun-2019 
 ******************************************
 %chk=N2.chk
 ----------------------------------------------------------------------
 #p opt freq b3lyp/6-31g(d,p) scrf=(iefpcm,solvent=acetonitrile) empiri
 caldispersion=gd3
 ----------------------------------------------------------------------
 1/18=20,19=15,26=3,38=1/1,3;
 2/9=110,12=2,17=6,18=5,40=1/2;
 3/5=1,6=6,7=101,11=2,25=1,30=1,70=2201,71=1,72=2,74=-5,124=31/1,2,3;
 4//1;
 5/5=2,38=5,53=2/2;
 6/7=2,8=2,9=2,10=2,28=1/1;
 7//1,2,3,16;
 1/18=20,19=15,26=3/3(2);
 2/9=110/2;
 99//99;
 2/9=110/2;
 3/5=1,6=6,7=101,11=2,25=1,30=1,70=2205,71=1,72=2,74=-5,124=31/1,2,3;
 4/5=5,16=3,69=1/1;
 5/5=2,38=5,53=2/2;
 7//1,2,3,16;
 1/18=20,19=15,26=3/3(-5);
 2/9=110/2;
 6/7=2,8=2,9=2,10=2,19=2,28=1/1;
 99/9=1/99;
 Leave Link    1 at Thu Jun 20 17:20:25 2019, MaxMem=           0 cpu:               0.1 elap:               5.1
 (Enter /Applications/G16/g16/l101.exe)
 -------------------
 Title Card Required
 -------------------
 Symbolic Z-matrix:
 Charge =  0 Multiplicity = 1
 N                     0.14937  -0.89623   0. 
 N                     0.61605  -0.23627   1.1431 
 
 ITRead=  0  0
 MicOpt= -1 -1
 NAtoms=      2 NQM=        2 NQMF=       0 NMMI=      0 NMMIF=      0
                NMic=       0 NMicF=      0.
                    Isotopes and Nuclear Properties:
 (Nuclear quadrupole moments (NQMom) in fm**2, nuclear magnetic moments (NMagM)
  in nuclear magnetons)

  Atom         1           2
 IAtWgt=          14          14
 AtmWgt=  14.0030740  14.0030740
 NucSpn=           2           2
 AtZEff=  -0.0000000  -0.0000000
 NQMom=    2.0440000   2.0440000
 NMagM=    0.4037610   0.4037610
 AtZNuc=   7.0000000   7.0000000
 Leave Link  101 at Thu Jun 20 17:20:25 2019, MaxMem=   104857600 cpu:               0.2 elap:               0.3
 (Enter /Applications/G16/g16/l103.exe)

 GradGradGradGradGradGradGradGradGradGradGradGradGradGradGradGradGradGrad
 Berny optimization.
 Initialization pass.
                           ----------------------------
                           !    Initial Parameters    !
                           ! (Angstroms and Degrees)  !
 --------------------------                            --------------------------
 ! Name  Definition              Value          Derivative Info.                !
 --------------------------------------------------------------------------------
 ! R1    R(1,2)                  1.4            estimate D2E/DX2                !
 --------------------------------------------------------------------------------
 Trust Radius=3.00D-01 FncErr=1.00D-07 GrdErr=1.00D-06 EigMax=2.50D+02 EigMin=1.00D-04
 Number of steps in this run=     20 maximum allowed number of steps=    100.
 GradGradGradGradGradGradGradGradGradGradGradGradGradGradGradGradGradGrad

 Leave Link  103 at Thu Jun 20 17:20:25 2019, MaxMem=   104857600 cpu:               0.0 elap:               0.0
 (Enter /Applications/G16/g16/l202.exe)
                          Input orientation:                          
 ---------------------------------------------------------------------
 Center     Atomic      Atomic             Coordinates (Angstroms)
 Number     Number       Type             X           Y           Z
 ---------------------------------------------------------------------
      1          7           0        0.149371   -0.896226    0.000000
      2          7           0        0.616046   -0.236266    1.143095
 ---------------------------------------------------------------------
 Stoichiometry    N2
 Framework group  D*H[C*(N.N)]
 Deg. of freedom     1
 Full point group                 D*H     NOp   8
 Largest Abelian subgroup         D2H     NOp   8
 Largest concise Abelian subgroup C2      NOp   2
                         Standard orientation:                         
 ---------------------------------------------------------------------
 Center     Atomic      Atomic             Coordinates (Angstroms)
 Number     Number       Type             X           Y           Z
 ---------------------------------------------------------------------
      1          7           0        0.000000    0.000000    0.700000
      2          7           0        0.000000   -0.000000   -0.700000
 ---------------------------------------------------------------------
 Rotational constants (GHZ):           0.0000000          36.8271184          36.8271184
 Leave Link  202 at Thu Jun 20 17:20:25 2019, MaxMem=   104857600 cpu:               0.0 elap:               0.0
 (Enter /Applications/G16/g16/l301.exe)
 Standard basis: 6-31G(d,p) (6D, 7F)
 Ernie: Thresh=  0.10000D-02 Tol=  0.10000D-05 Strict=F.
 There are     8 symmetry adapted cartesian basis functions of AG  symmetry.
 There are     1 symmetry adapted cartesian basis functions of B1G symmetry.
 There are     3 symmetry adapted cartesian basis functions of B2G symmetry.
 There are     3 symmetry adapted cartesian basis functions of B3G symmetry.
 There are     1 symmetry adapted cartesian basis functions of AU  symmetry.
 There are     8 symmetry adapted cartesian basis functions of B1U symmetry.
 There are     3 symmetry adapted cartesian basis functions of B2U symmetry.
 There are     3 symmetry adapted cartesian basis functions of B3U symmetry.
 There are     8 symmetry adapted basis functions of AG  symmetry.
 There are     1 symmetry adapted basis functions of B1G symmetry.
 There are     3 symmetry adapted basis functions of B2G symmetry.
 There are     3 symmetry adapted basis functions of B3G symmetry.
 There are     1 symmetry adapted basis functions of AU  symmetry.
 There are     8 symmetry adapted basis functions of B1U symmetry.
 There are     3 symmetry adapted basis functions of B2U symmetry.
 There are     3 symmetry adapted basis functions of B3U symmetry.
    30 basis functions,    56 primitive gaussians,    30 cartesian basis functions
     7 alpha electrons        7 beta electrons
       nuclear repulsion energy        18.5212023509 Hartrees.
 IExCor=  402 DFT=T Ex+Corr=B3LYP ExCW=0 ScaHFX=  0.200000
 ScaDFX=  0.800000  0.720000  1.000000  0.810000 ScalE2=  1.000000  1.000000
 IRadAn=      5 IRanWt=     -1 IRanGd=            0 ICorTp=0 IEmpDi=131
 NAtoms=    2 NActive=    2 NUniq=    1 SFac= 4.00D+00 NAtFMM=   60 NAOKFM=F Big=F
 Integral buffers will be    131072 words long.
 Raffenetti 2 integral format.
 Two-electron integral symmetry is turned on.
 R6Disp:  Grimme-D3 Dispersion energy=       -0.0000025772 Hartrees.
 Nuclear repulsion after empirical dispersion term =       18.5211997737 Hartrees.
 ------------------------------------------------------------------------------
 Polarizable Continuum Model (PCM)
 =================================
 Model                : PCM.
 Atomic radii         : UFF (Universal Force Field).
 Polarization charges : Total charges.
 Charge compensation  : None.
 Solution method      : On-the-fly selection.
 Cavity type          : Scaled VdW (van der Waals Surface) (Alpha=1.100).
 Cavity algorithm     : GePol (No added spheres)
                        Default sphere list used, NSphG=    2.
                        Lebedev-Laikov grids with approx.  5.0 points / Ang**2.
                        Smoothing algorithm: York/Karplus (Gamma=1.0000).
                        Polarization charges: spherical gaussians, with
                                              point-specific exponents (IZeta= 3).
                        Self-potential: point-specific (ISelfS= 7).
                        Self-field    : sphere-specific E.n sum rule (ISelfD= 2).
 1st derivatives      : Analytical E(r).r(x)/FMM algorithm (CHGder, D1EAlg=3).
                        Cavity 1st derivative terms included.
 Solvent              : Acetonitrile, Eps=  35.688000 Eps(inf)=   1.806874
 ------------------------------------------------------------------------------
 Spheres list:
 ISph  on   Nord     Re0    Alpha      Xe            Ye            Ze
    1   N      1    1.8300  1.100     -0.000000      0.000000      0.700000
    2   N      2    1.8300  1.100      0.000000      0.000000     -0.700000
 ------------------------------------------------------------------------------
 GePol: Number of generator spheres                  =       2
 GePol: Total number of spheres                      =       2
 GePol: Number of exposed spheres                    =       2 (100.00%)
 GePol: Number of points                             =     442
 GePol: Average weight of points                     =       0.15
 GePol: Minimum weight of points                     =   0.69D-02
 GePol: Maximum weight of points                     =    0.18586
 GePol: Number of points with low weight             =       0
 GePol: Fraction of low-weight points (<1% of avg)   =       0.00%
 GePol: Cavity surface area                          =     68.453 Ang**2
 GePol: Cavity volume                                =     51.160 Ang**3
 Leave Link  301 at Thu Jun 20 17:20:25 2019, MaxMem=   104857600 cpu:               0.1 elap:               0.1
 (Enter /Applications/G16/g16/l302.exe)
 NPDir=0 NMtPBC=     1 NCelOv=     1 NCel=       1 NClECP=     1 NCelD=      1
         NCelK=      1 NCelE2=     1 NClLst=     1 CellRange=     0.0.
 One-electron integrals computed using PRISM.
 One-electron integral symmetry used in STVInt
 NBasis=    30 RedAO= T EigKep=  1.28D-02  NBF=     8     1     3     3     1     8     3     3
 NBsUse=    30 1.00D-06 EigRej= -1.00D+00 NBFU=     8     1     3     3     1     8     3     3
 Precomputing XC quadrature grid using
 IXCGrd= 4 IRadAn=           5 IRanWt=          -1 IRanGd=           0 AccXCQ= 0.00D+00.
 Generated NRdTot=       0 NPtTot=           0 NUsed=           0 NTot=          32
 NSgBfM=    30    30    30    30    30 MxSgAt=     2 MxSgA2=     2.
 Leave Link  302 at Thu Jun 20 17:20:26 2019, MaxMem=   104857600 cpu:               0.1 elap:               0.2
 (Enter /Applications/G16/g16/l303.exe)
 DipDrv:  MaxL=1.
 Leave Link  303 at Thu Jun 20 17:20:26 2019, MaxMem=   104857600 cpu:               0.0 elap:               0.1
 (Enter /Applications/G16/g16/l401.exe)
 ExpMin= 2.12D-01 ExpMax= 4.17D+03 ExpMxC= 6.27D+02 IAcc=3 IRadAn=         5 AccDes= 0.00D+00
 Harris functional with IExCor=  402 and IRadAn=       5 diagonalized for initial guess.
 HarFok:  IExCor=  402 AccDes= 0.00D+00 IRadAn=         5 IDoV= 1 UseB2=F ITyADJ=14
 ICtDFT=  3500011 ScaDFX=  1.000000  1.000000  1.000000  1.000000
 FoFCou: FMM=F IPFlag=           0 FMFlag=      100000 FMFlg1=           0
         NFxFlg=           0 DoJE=T BraDBF=F KetDBF=T FulRan=T
         wScrn=  0.000000 ICntrl=       500 IOpCl=  0 I1Cent=   200000004 NGrid=           0
         NMat0=    1 NMatS0=      1 NMatT0=    0 NMatD0=    1 NMtDS0=    0 NMtDT0=    0
 Petite list used in FoFCou.
 Harris En= -109.386126517305    
 JPrj=0 DoOrth=F DoCkMO=F.
 Initial guess orbital symmetries:
       Occupied  (SGG) (SGU) (SGG) (SGU) (SGG) (PIU) (PIU)
       Virtual   (PIG) (PIG) (SGU) (SGU) (SGG) (PIU) (PIU) (SGG)
                 (PIG) (PIG) (SGU) (PIU) (PIU) (DLTG) (DLTG) (DLTU)
                 (DLTU) (SGG) (PIG) (PIG) (SGU) (SGG) (SGU)
 The electronic state of the initial guess is 1-SGG.
 Leave Link  401 at Thu Jun 20 17:20:26 2019, MaxMem=   104857600 cpu:               0.2 elap:               0.3
 (Enter /Applications/G16/g16/l502.exe)
 Keep R1 ints in memory in symmetry-blocked form, NReq=1550294.
 FoFCou: FMM=F IPFlag=           0 FMFlag=           0 FMFlg1=           0
         NFxFlg=           0 DoJE=F BraDBF=F KetDBF=F FulRan=T
         wScrn=  0.000000 ICntrl=       600 IOpCl=  0 I1Cent=           0 NGrid=           0
         NMat0=    1 NMatS0=    465 NMatT0=    0 NMatD0=    1 NMtDS0=    0 NMtDT0=    0
 Petite list used in FoFCou.
 Closed shell SCF:
 Using DIIS extrapolation, IDIIS=  1040.
 NGot=   104857600 LenX=   104836629 LenY=   104835288
 Requested convergence on RMS density matrix=1.00D-08 within 128 cycles.
 Requested convergence on MAX density matrix=1.00D-06.
 Requested convergence on             energy=1.00D-06.
 No special actions if energy rises.

 Cycle   1  Pass 1  IDiag  1:
 Inv3:  Mode=1 IEnd=      586092.
 Iteration    1 A*A^-1 deviation from unit magnitude is 2.44D-15 for    422.
 Iteration    1 A*A^-1 deviation from orthogonality  is 1.10D-15 for    437    346.
 Iteration    1 A^-1*A deviation from unit magnitude is 2.44D-15 for    422.
 Iteration    1 A^-1*A deviation from orthogonality  is 1.23D-15 for    441    317.
 E= -109.390193299838    
 DIIS: error= 1.55D-02 at cycle   1 NSaved=   1.
 NSaved= 1 IEnMin= 1 EnMin= -109.390193299838     IErMin= 1 ErrMin= 1.55D-02
 ErrMax= 1.55D-02  0.00D+00 EMaxC= 1.00D-01 BMatC= 7.55D-03 BMatP= 7.55D-03
 IDIUse=3 WtCom= 8.45D-01 WtEn= 1.55D-01
 Coeff-Com:  0.100D+01
 Coeff-En:   0.100D+01
 Coeff:      0.100D+01
 Gap=     0.261 Goal=   None    Shift=    0.000
 GapD=    0.261 DampG=1.000 DampE=0.500 DampFc=0.5000 IDamp=-1.
 Damping current iteration by 5.00D-01
 RMSDP=2.95D-03 MaxDP=2.66D-02              OVMax= 3.00D-02

 Cycle   2  Pass 1  IDiag  1:
 E= -109.392634564624     Delta-E=       -0.002441264786 Rises=F Damp=T
 DIIS: error= 6.37D-03 at cycle   2 NSaved=   2.
 NSaved= 2 IEnMin= 2 EnMin= -109.392634564624     IErMin= 2 ErrMin= 6.37D-03
 ErrMax= 6.37D-03  0.00D+00 EMaxC= 1.00D-01 BMatC= 1.00D-03 BMatP= 7.55D-03
 IDIUse=3 WtCom= 9.36D-01 WtEn= 6.37D-02
 Coeff-Com: -0.450D+00 0.145D+01
 Coeff-En:   0.000D+00 0.100D+01
 Coeff:     -0.421D+00 0.142D+01
 Gap=     0.261 Goal=   None    Shift=    0.000
 RMSDP=7.06D-04 MaxDP=1.02D-02 DE=-2.44D-03 OVMax= 1.05D-02

 Cycle   3  Pass 1  IDiag  1:
 E= -109.394654473298     Delta-E=       -0.002019908673 Rises=F Damp=F
 DIIS: error= 1.17D-03 at cycle   3 NSaved=   3.
 NSaved= 3 IEnMin= 3 EnMin= -109.394654473298     IErMin= 3 ErrMin= 1.17D-03
 ErrMax= 1.17D-03  0.00D+00 EMaxC= 1.00D-01 BMatC= 3.39D-05 BMatP= 1.00D-03
 IDIUse=3 WtCom= 9.88D-01 WtEn= 1.17D-02
 Coeff-Com: -0.134D+00 0.273D+00 0.861D+00
 Coeff-En:   0.000D+00 0.000D+00 0.100D+01
 Coeff:     -0.133D+00 0.270D+00 0.863D+00
 Gap=     0.260 Goal=   None    Shift=    0.000
 RMSDP=1.86D-04 MaxDP=1.66D-03 DE=-2.02D-03 OVMax= 1.52D-03

 Cycle   4  Pass 1  IDiag  1:
 E= -109.394686143545     Delta-E=       -0.000031670247 Rises=F Damp=F
 DIIS: error= 1.07D-04 at cycle   4 NSaved=   4.
 NSaved= 4 IEnMin= 4 EnMin= -109.394686143545     IErMin= 4 ErrMin= 1.07D-04
 ErrMax= 1.07D-04  0.00D+00 EMaxC= 1.00D-01 BMatC= 3.06D-07 BMatP= 3.39D-05
 IDIUse=3 WtCom= 9.99D-01 WtEn= 1.07D-03
 Coeff-Com: -0.334D-01 0.646D-01 0.234D+00 0.735D+00
 Coeff-En:   0.000D+00 0.000D+00 0.000D+00 0.100D+01
 Coeff:     -0.334D-01 0.645D-01 0.233D+00 0.735D+00
 Gap=     0.261 Goal=   None    Shift=    0.000
 RMSDP=1.61D-05 MaxDP=1.80D-04 DE=-3.17D-05 OVMax= 1.46D-04

 Cycle   5  Pass 1  IDiag  1:
 E= -109.394686404922     Delta-E=       -0.000000261377 Rises=F Damp=F
 DIIS: error= 2.37D-06 at cycle   5 NSaved=   5.
 NSaved= 5 IEnMin= 5 EnMin= -109.394686404922     IErMin= 5 ErrMin= 2.37D-06
 ErrMax= 2.37D-06  0.00D+00 EMaxC= 1.00D-01 BMatC= 1.59D-10 BMatP= 3.06D-07
 IDIUse=1 WtCom= 1.00D+00 WtEn= 0.00D+00
 Coeff-Com:  0.168D-02-0.344D-02-0.124D-01-0.311D-01 0.105D+01
 Coeff:      0.168D-02-0.344D-02-0.124D-01-0.311D-01 0.105D+01
 Gap=     0.261 Goal=   None    Shift=    0.000
 RMSDP=6.03D-07 MaxDP=5.49D-06 DE=-2.61D-07 OVMax= 4.83D-06

 Cycle   6  Pass 1  IDiag  1:
 E= -109.394686405095     Delta-E=       -0.000000000173 Rises=F Damp=F
 DIIS: error= 2.66D-07 at cycle   6 NSaved=   6.
 NSaved= 6 IEnMin= 6 EnMin= -109.394686405095     IErMin= 6 ErrMin= 2.66D-07
 ErrMax= 2.66D-07  0.00D+00 EMaxC= 1.00D-01 BMatC= 9.73D-13 BMatP= 1.59D-10
 IDIUse=1 WtCom= 1.00D+00 WtEn= 0.00D+00
 Coeff-Com: -0.263D-04 0.628D-04 0.517D-04 0.980D-03-0.303D-01 0.103D+01
 Coeff:     -0.263D-04 0.628D-04 0.517D-04 0.980D-03-0.303D-01 0.103D+01
 Gap=     0.261 Goal=   None    Shift=    0.000
 RMSDP=3.68D-08 MaxDP=2.79D-07 DE=-1.73D-10 OVMax= 3.84D-07

 Cycle   7  Pass 1  IDiag  1:
 E= -109.394686405096     Delta-E=       -0.000000000001 Rises=F Damp=F
 DIIS: error= 6.00D-09 at cycle   7 NSaved=   7.
 NSaved= 7 IEnMin= 7 EnMin= -109.394686405096     IErMin= 7 ErrMin= 6.00D-09
 ErrMax= 6.00D-09  0.00D+00 EMaxC= 1.00D-01 BMatC= 8.29D-16 BMatP= 9.73D-13
 IDIUse=1 WtCom= 1.00D+00 WtEn= 0.00D+00
 Coeff-Com:  0.862D-06-0.237D-05 0.933D-05-0.243D-04 0.873D-03-0.707D-01
 Coeff-Com:  0.107D+01
 Coeff:      0.862D-06-0.237D-05 0.933D-05-0.243D-04 0.873D-03-0.707D-01
 Coeff:      0.107D+01
 Gap=     0.261 Goal=   None    Shift=    0.000
 RMSDP=9.48D-10 MaxDP=7.05D-09 DE=-1.04D-12 OVMax= 9.77D-09

 Error on total polarization charges =  0.00229
 SCF Done:  E(RB3LYP) =  -109.394686405     A.U. after    7 cycles
            NFock=  7  Conv=0.95D-09     -V/T= 2.0171
 KE= 1.075595124138D+02 PE=-2.920052470465D+02 EE= 5.652984845395D+01
 Leave Link  502 at Thu Jun 20 17:20:27 2019, MaxMem=   104857600 cpu:               1.0 elap:               1.2
 (Enter /Applications/G16/g16/l601.exe)
 Copying SCF densities to generalized density rwf, IOpCl= 0 IROHF=0.

 **********************************************************************

            Population analysis using the SCF density.

 **********************************************************************

 Orbital symmetries:
       Occupied  (SGG) (SGU) (SGG) (SGU) (SGG) (PIU) (PIU)
       Virtual   (PIG) (PIG) (SGU) (SGU) (SGG) (PIU) (PIU) (SGG)
                 (PIG) (PIG) (SGU) (PIU) (PIU) (DLTG) (DLTG) (DLTU)
                 (DLTU) (SGG) (PIG) (PIG) (SGU) (SGG) (SGU)
 The electronic state is 1-SGG.
 Alpha  occ. eigenvalues --  -14.49872 -14.49846  -0.96596  -0.62494  -0.41131
 Alpha  occ. eigenvalues --   -0.38850  -0.38850
 Alpha virt. eigenvalues --   -0.12793  -0.12793   0.17755   0.60855   0.62399
 Alpha virt. eigenvalues --    0.63521   0.63521   0.68552   0.72311   0.72311
 Alpha virt. eigenvalues --    1.07038   1.40591   1.40591   1.55017   1.55017
 Alpha virt. eigenvalues --    1.79711   1.79711   2.00124   2.29031   2.29031
 Alpha virt. eigenvalues --    2.64455   3.19208   3.49901
          Condensed to atoms (all electrons):
               1          2
     1  N    6.605956   0.394044
     2  N    0.394044   6.605956
 Mulliken charges:
               1
     1  N    0.000000
     2  N    0.000000
 Sum of Mulliken charges =   0.00000
 Mulliken charges with hydrogens summed into heavy atoms:
               1
     1  N    0.000000
     2  N    0.000000
 Electronic spatial extent (au):  <R**2>=             49.0661
 Charge=              0.0000 electrons
 Dipole moment (field-independent basis, Debye):
    X=             -0.0000    Y=              0.0000    Z=              0.0000  Tot=              0.0000
 Quadrupole moment (field-independent basis, Debye-Ang):
   XX=            -10.7353   YY=            -10.7353   ZZ=            -11.5749
   XY=              0.0000   XZ=             -0.0000   YZ=             -0.0000
 Traceless Quadrupole moment (field-independent basis, Debye-Ang):
   XX=              0.2799   YY=              0.2799   ZZ=             -0.5597
   XY=              0.0000   XZ=             -0.0000   YZ=             -0.0000
 Octapole moment (field-independent basis, Debye-Ang**2):
  XXX=              0.0000  YYY=             -0.0000  ZZZ=              0.0000  XYY=              0.0000
  XXY=             -0.0000  XXZ=              0.0000  XZZ=              0.0000  YZZ=             -0.0000
  YYZ=              0.0000  XYZ=             -0.0000
 Hexadecapole moment (field-independent basis, Debye-Ang**3):
 XXXX=             -9.0578 YYYY=             -9.0578 ZZZZ=            -42.7731 XXXY=              0.0000
 XXXZ=              0.0000 YYYX=              0.0000 YYYZ=              0.0000 ZZZX=              0.0000
 ZZZY=              0.0000 XXYY=             -3.0193 XXZZ=             -8.2644 YYZZ=             -8.2644
 XXYZ=              0.0000 YYXZ=              0.0000 ZZXY=              0.0000
 N-N= 1.852119977371D+01 E-N=-2.920052468934D+02  KE= 1.075595124138D+02
 Symmetry AG   KE= 5.215866551149D+01
 Symmetry B1G  KE= 1.887784109686D-32
 Symmetry B2G  KE= 2.222282069636D-31
 Symmetry B3G  KE= 1.382512497539D-31
 Symmetry AU   KE= 2.203563537635D-32
 Symmetry B1U  KE= 4.890145310264D+01
 Symmetry B2U  KE= 3.249696899819D+00
 Symmetry B3U  KE= 3.249696899819D+00
 No NMR shielding tensors so no spin-rotation constants.
 Leave Link  601 at Thu Jun 20 17:20:27 2019, MaxMem=   104857600 cpu:               0.1 elap:               0.2
 (Enter /Applications/G16/g16/l701.exe)
 ... and contract with generalized density number  0.
 Compute integral first derivatives.
 R6Disp: Adding Grimme-D3 dispersion energy 1st derivatives to the gradient.
 D1PCM: PCM CHGder 1st derivatives, ID1Alg=3 FixD1E=F DoIter=F DoCFld=F I1PDM=0.
 GePol: Maximum number of non-zero 1st derivatives   =     253
 Leave Link  701 at Thu Jun 20 17:20:28 2019, MaxMem=   104857600 cpu:               0.4 elap:               0.5
 (Enter /Applications/G16/g16/l702.exe)
 L702 exits ... SP integral derivatives will be done elsewhere.
 Leave Link  702 at Thu Jun 20 17:20:28 2019, MaxMem=   104857600 cpu:               0.0 elap:               0.0
 (Enter /Applications/G16/g16/l703.exe)
 Integral derivatives from FoFJK, PRISM(SPDF).
 Compute integral first derivatives, UseDBF=F ICtDFT=           0.
 Calling FoFJK, ICntrl=      2127 FMM=F ISym2X=1 I1Cent= 0 IOpClX= 0 NMat=1 NMatS=1 NMatT=0.
 FoFJK:  IHMeth= 1 ICntrl=    2127 DoSepK=F KAlg= 0 I1Cent=           0 FoldK=F
 IRaf=         0 NMat=       1 IRICut=       1 DoRegI=T DoRafI=F ISym2E= 1 IDoP0=0 IntGTp=1.
 FoFCou: FMM=F IPFlag=           0 FMFlag=      100000 FMFlg1=         800
         NFxFlg=           0 DoJE=F BraDBF=F KetDBF=F FulRan=T
         wScrn=  0.000000 ICntrl=      2127 IOpCl=  0 I1Cent=           0 NGrid=           0
         NMat0=    1 NMatS0=      1 NMatT0=    0 NMatD0=    1 NMtDS0=    0 NMtDT0=    0
 Petite list used in FoFCou.
 Leave Link  703 at Thu Jun 20 17:20:28 2019, MaxMem=   104857600 cpu:               0.2 elap:               0.3
 (Enter /Applications/G16/g16/l716.exe)
 Dipole        =-3.45126646D-31 2.95822839D-31 0.00000000D+00
 ***** Axes restored to original set *****
 -------------------------------------------------------------------
 Center     Atomic                   Forces (Hartrees/Bohr)
 Number     Number              X              Y              Z
 -------------------------------------------------------------------
      1        7           0.109307313    0.154579786    0.267742561
      2        7          -0.109307313   -0.154579786   -0.267742561
 -------------------------------------------------------------------
 Cartesian Forces:  Max     0.267742561 RMS     0.189322545
 Leave Link  716 at Thu Jun 20 17:20:29 2019, MaxMem=   104857600 cpu:               0.0 elap:               0.1
 (Enter /Applications/G16/g16/l103.exe)

 GradGradGradGradGradGradGradGradGradGradGradGradGradGradGradGradGradGrad
 Berny optimization.
 FormGI is forming the generalized inverse of G from B-inverse, IUseBI=4.
 Internal  Forces:  Max     0.327916267 RMS     0.327916267
 Search for a local minimum.
 Step number   1 out of a maximum of   20
 All quantities printed in internal units (Hartrees-Bohrs-Radians)
 RMS Force = .32792D+00 SwitMx=.10000D-02 MixMth= 1
 Mixed Optimization -- RFO/linear search
 Second derivative matrix not updated -- first step.
 The second derivative matrix:
                          R1
           R1           0.45621
 ITU=  0
     Eigenvalues ---    0.45621
 RFO step:  Lambda=-1.71346816D-01 EMin= 4.56205424D-01
 Linear search not attempted -- first point.
 Maximum step size (   0.300) exceeded in Quadratic search.
    -- Step size scaled by   0.574
 Iteration  1 RMS(Cart)=  0.14142136 RMS(Int)=  0.10000000
 Iteration  2 RMS(Cart)=  0.07071068 RMS(Int)=  0.00000000
 Iteration  3 RMS(Cart)=  0.00000000 RMS(Int)=  0.00000000
 ITry= 1 IFail=0 DXMaxC= 1.22D-01 DCOld= 1.00D+10 DXMaxT= 3.00D-01 DXLimC= 3.00D+00 Rises=F
 ClnCor:  largest displacement from symmetrization is 5.09D-16 for atom     2.
 Variable       Old X    -DE/DX   Delta X   Delta X   Delta X     New X
                                 (Linear)    (Quad)   (Total)
    R1        2.64562  -0.32792   0.00000  -0.30000  -0.30000   2.34562
         Item               Value     Threshold  Converged?
 Maximum Force            0.327916     0.000450     NO 
 RMS     Force            0.327916     0.000300     NO 
 Maximum Displacement     0.122475     0.001800     NO 
 RMS     Displacement     0.212132     0.001200     NO 
 Predicted change in Energy=-7.784564D-02
 Lowest energy point so far.  Saving SCF results.
 GradGradGradGradGradGradGradGradGradGradGradGradGradGradGradGradGradGrad

 Leave Link  103 at Thu Jun 20 17:20:29 2019, MaxMem=   104857600 cpu:               0.0 elap:               0.0
 (Enter /Applications/G16/g16/l202.exe)
                          Input orientation:                          
 ---------------------------------------------------------------------
 Center     Atomic      Atomic             Coordinates (Angstroms)
 Number     Number       Type             X           Y           Z
 ---------------------------------------------------------------------
      1          7           0        0.175830   -0.858808    0.064811
      2          7           0        0.589587   -0.273684    1.078285
 ---------------------------------------------------------------------
 Stoichiometry    N2
 Framework group  D*H[C*(N.N)]
 Deg. of freedom     1
 Full point group                 D*H     NOp   8
 RotChk:  IX=0 Diff= 5.38D-16
 Largest Abelian subgroup         D2H     NOp   8
 Largest concise Abelian subgroup C2      NOp   2
                         Standard orientation:                         
 ---------------------------------------------------------------------
 Center     Atomic      Atomic             Coordinates (Angstroms)
 Number     Number       Type             X           Y           Z
 ---------------------------------------------------------------------
      1          7           0        0.000000    0.000000    0.620623
      2          7           0       -0.000000    0.000000   -0.620623
 ---------------------------------------------------------------------
 Rotational constants (GHZ):           0.0000000          46.8497740          46.8497740
 Leave Link  202 at Thu Jun 20 17:20:29 2019, MaxMem=   104857600 cpu:               0.0 elap:               0.0
 (Enter /Applications/G16/g16/l301.exe)
 Standard basis: 6-31G(d,p) (6D, 7F)
 Ernie: Thresh=  0.10000D-02 Tol=  0.10000D-05 Strict=F.
 There are     8 symmetry adapted cartesian basis functions of AG  symmetry.
 There are     1 symmetry adapted cartesian basis functions of B1G symmetry.
 There are     3 symmetry adapted cartesian basis functions of B2G symmetry.
 There are     3 symmetry adapted cartesian basis functions of B3G symmetry.
 There are     1 symmetry adapted cartesian basis functions of AU  symmetry.
 There are     8 symmetry adapted cartesian basis functions of B1U symmetry.
 There are     3 symmetry adapted cartesian basis functions of B2U symmetry.
 There are     3 symmetry adapted cartesian basis functions of B3U symmetry.
 There are     8 symmetry adapted basis functions of AG  symmetry.
 There are     1 symmetry adapted basis functions of B1G symmetry.
 There are     3 symmetry adapted basis functions of B2G symmetry.
 There are     3 symmetry adapted basis functions of B3G symmetry.
 There are     1 symmetry adapted basis functions of AU  symmetry.
 There are     8 symmetry adapted basis functions of B1U symmetry.
 There are     3 symmetry adapted basis functions of B2U symmetry.
 There are     3 symmetry adapted basis functions of B3U symmetry.
    30 basis functions,    56 primitive gaussians,    30 cartesian basis functions
     7 alpha electrons        7 beta electrons
       nuclear repulsion energy        20.8900297012 Hartrees.
 IExCor=  402 DFT=T Ex+Corr=B3LYP ExCW=0 ScaHFX=  0.200000
 ScaDFX=  0.800000  0.720000  1.000000  0.810000 ScalE2=  1.000000  1.000000
 IRadAn=      5 IRanWt=     -1 IRanGd=            0 ICorTp=0 IEmpDi=131
 NAtoms=    2 NActive=    2 NUniq=    1 SFac= 4.00D+00 NAtFMM=   60 NAOKFM=F Big=F
 Integral buffers will be    131072 words long.
 Raffenetti 2 integral format.
 Two-electron integral symmetry is turned on.
 R6Disp:  Grimme-D3 Dispersion energy=       -0.0000009839 Hartrees.
 Nuclear repulsion after empirical dispersion term =       20.8900287173 Hartrees.
 ------------------------------------------------------------------------------
 Polarizable Continuum Model (PCM)
 =================================
 Model                : PCM.
 Atomic radii         : UFF (Universal Force Field).
 Polarization charges : Total charges.
 Charge compensation  : None.
 Solution method      : On-the-fly selection.
 Cavity type          : Scaled VdW (van der Waals Surface) (Alpha=1.100).
 Cavity algorithm     : GePol (No added spheres)
                        Default sphere list used, NSphG=    2.
                        Lebedev-Laikov grids with approx.  5.0 points / Ang**2.
                        Smoothing algorithm: York/Karplus (Gamma=1.0000).
                        Polarization charges: spherical gaussians, with
                                              point-specific exponents (IZeta= 3).
                        Self-potential: point-specific (ISelfS= 7).
                        Self-field    : sphere-specific E.n sum rule (ISelfD= 2).
 1st derivatives      : Analytical E(r).r(x)/FMM algorithm (CHGder, D1EAlg=3).
                        Cavity 1st derivative terms included.
 Solvent              : Acetonitrile, Eps=  35.688000 Eps(inf)=   1.806874
 ------------------------------------------------------------------------------
 Spheres list:
 ISph  on   Nord     Re0    Alpha      Xe            Ye            Ze
    1   N      1    1.8300  1.100      0.000000      0.000000      0.620623
    2   N      2    1.8300  1.100      0.000000      0.000000     -0.620623
 ------------------------------------------------------------------------------
 GePol: Number of generator spheres                  =       2
 GePol: Total number of spheres                      =       2
 GePol: Number of exposed spheres                    =       2 (100.00%)
 GePol: Number of points                             =     442
 GePol: Average weight of points                     =       0.15
 GePol: Minimum weight of points                     =   0.44D-04
 GePol: Maximum weight of points                     =    0.18586
 GePol: Number of points with low weight             =      16
 GePol: Fraction of low-weight points (<1% of avg)   =       3.62%
 GePol: Cavity surface area                          =     66.654 Ang**2
 GePol: Cavity volume                                =     49.483 Ang**3
 Leave Link  301 at Thu Jun 20 17:20:29 2019, MaxMem=   104857600 cpu:               0.0 elap:               0.0
 (Enter /Applications/G16/g16/l302.exe)
 NPDir=0 NMtPBC=     1 NCelOv=     1 NCel=       1 NClECP=     1 NCelD=      1
         NCelK=      1 NCelE2=     1 NClLst=     1 CellRange=     0.0.
 One-electron integrals computed using PRISM.
 One-electron integral symmetry used in STVInt
 NBasis=    30 RedAO= T EigKep=  7.63D-03  NBF=     8     1     3     3     1     8     3     3
 NBsUse=    30 1.00D-06 EigRej= -1.00D+00 NBFU=     8     1     3     3     1     8     3     3
 Precomputing XC quadrature grid using
 IXCGrd= 4 IRadAn=           5 IRanWt=          -1 IRanGd=           0 AccXCQ= 0.00D+00.
 Generated NRdTot=       0 NPtTot=           0 NUsed=           0 NTot=          32
 NSgBfM=    30    30    30    30    30 MxSgAt=     2 MxSgA2=     2.
 Leave Link  302 at Thu Jun 20 17:20:29 2019, MaxMem=   104857600 cpu:               0.1 elap:               0.1
 (Enter /Applications/G16/g16/l303.exe)
 DipDrv:  MaxL=1.
 Leave Link  303 at Thu Jun 20 17:20:29 2019, MaxMem=   104857600 cpu:               0.0 elap:               0.0
 (Enter /Applications/G16/g16/l401.exe)
 Initial guess from the checkpoint file:  "N2.chk"
 B after Tr=     0.000000    0.000000    0.000000
         Rot=    1.000000    0.000000   -0.000000    0.000000 Ang=   0.00 deg.
 Guess basis will be translated and rotated to current coordinates.
 JPrj=2 DoOrth=T DoCkMO=T.
 Initial guess orbital symmetries:
       Occupied  (SGG) (SGU) (SGG) (SGU) (SGG) (PIU) (PIU)
       Virtual   (PIG) (PIG) (SGU) (SGU) (SGG) (PIU) (PIU) (SGG)
                 (PIG) (PIG) (SGU) (PIU) (PIU) (DLTG) (DLTG) (DLTU)
                 (DLTU) (SGG) (PIG) (PIG) (SGU) (SGG) (SGU)
 The electronic state of the initial guess is 1-SGG.
 Generating alternative initial guess.
 ExpMin= 2.12D-01 ExpMax= 4.17D+03 ExpMxC= 6.27D+02 IAcc=2 IRadAn=         4 AccDes= 0.00D+00
 Harris functional with IExCor=  402 and IRadAn=       4 diagonalized for initial guess.
 HarFok:  IExCor=  402 AccDes= 0.00D+00 IRadAn=         4 IDoV= 1 UseB2=F ITyADJ=14
 ICtDFT=  3500011 ScaDFX=  1.000000  1.000000  1.000000  1.000000
 FoFCou: FMM=F IPFlag=           0 FMFlag=      100000 FMFlg1=           0
         NFxFlg=           0 DoJE=T BraDBF=F KetDBF=T FulRan=T
         wScrn=  0.000000 ICntrl=       500 IOpCl=  0 I1Cent=   200000004 NGrid=           0
         NMat0=    1 NMatS0=      1 NMatT0=    0 NMatD0=    1 NMtDS0=    0 NMtDT0=    0
 Petite list used in FoFCou.
 Harris En= -109.461358849327    
 Leave Link  401 at Thu Jun 20 17:20:29 2019, MaxMem=   104857600 cpu:               0.2 elap:               0.2
 (Enter /Applications/G16/g16/l502.exe)
 Keep R1 ints in memory in symmetry-blocked form, NReq=1550355.
 FoFCou: FMM=F IPFlag=           0 FMFlag=           0 FMFlg1=           0
         NFxFlg=           0 DoJE=F BraDBF=F KetDBF=F FulRan=T
         wScrn=  0.000000 ICntrl=       600 IOpCl=  0 I1Cent=           0 NGrid=           0
         NMat0=    1 NMatS0=    465 NMatT0=    0 NMatD0=    1 NMtDS0=    0 NMtDT0=    0
 Petite list used in FoFCou.
 Closed shell SCF:
 Using DIIS extrapolation, IDIIS=  1040.
 NGot=   104857600 LenX=   104836629 LenY=   104835288
 Requested convergence on RMS density matrix=1.00D-08 within 128 cycles.
 Requested convergence on MAX density matrix=1.00D-06.
 Requested convergence on             energy=1.00D-06.
 No special actions if energy rises.

 Cycle   1  Pass 1  IDiag  1:
 Inv3:  Mode=1 IEnd=      586092.
 Iteration    1 A*A^-1 deviation from unit magnitude is 2.00D-15 for    409.
 Iteration    1 A*A^-1 deviation from orthogonality  is 1.07D-15 for    440    392.
 Iteration    1 A^-1*A deviation from unit magnitude is 2.11D-15 for    413.
 Iteration    1 A^-1*A deviation from orthogonality  is 7.86D-16 for    417    370.
 E= -109.473742669788    
 DIIS: error= 1.85D-02 at cycle   1 NSaved=   1.
 NSaved= 1 IEnMin= 1 EnMin= -109.473742669788     IErMin= 1 ErrMin= 1.85D-02
 ErrMax= 1.85D-02  0.00D+00 EMaxC= 1.00D-01 BMatC= 9.12D-03 BMatP= 9.12D-03
 IDIUse=3 WtCom= 8.15D-01 WtEn= 1.85D-01
 Coeff-Com:  0.100D+01
 Coeff-En:   0.100D+01
 Coeff:      0.100D+01
 Recover alternate guess density for next cycle.
 RMSDP=5.26D-03 MaxDP=3.29D-02              OVMax= 0.00D+00

 Cycle   2  Pass 1  IDiag  1:
 E= -109.484096992763     Delta-E=       -0.010354322975 Rises=F Damp=F
 DIIS: error= 1.29D-02 at cycle   2 NSaved=   2.
 NSaved= 2 IEnMin= 2 EnMin= -109.484096992763     IErMin= 2 ErrMin= 1.29D-02
 ErrMax= 1.29D-02  0.00D+00 EMaxC= 1.00D-01 BMatC= 4.37D-03 BMatP= 9.12D-03
 IDIUse=3 WtCom= 8.71D-01 WtEn= 1.29D-01
 Coeff-Com:  0.324D+00 0.676D+00
 Coeff-En:   0.000D+00 0.100D+01
 Coeff:      0.282D+00 0.718D+00
 Gap=     0.356 Goal=   None    Shift=    0.000
 RMSDP=1.62D-03 MaxDP=1.04D-02 DE=-1.04D-02 OVMax= 4.46D-02

 Cycle   3  Pass 1  IDiag  1:
 E= -109.485629851607     Delta-E=       -0.001532858844 Rises=F Damp=F
 DIIS: error= 3.13D-03 at cycle   3 NSaved=   3.
 NSaved= 3 IEnMin= 3 EnMin= -109.485629851607     IErMin= 3 ErrMin= 3.13D-03
 ErrMax= 3.13D-03  0.00D+00 EMaxC= 1.00D-01 BMatC= 2.55D-04 BMatP= 4.37D-03
 IDIUse=3 WtCom= 9.69D-01 WtEn= 3.13D-02
 Coeff-Com:  0.708D-01 0.107D+00 0.822D+00
 Coeff-En:   0.000D+00 0.000D+00 0.100D+01
 Coeff:      0.686D-01 0.104D+00 0.828D+00
 Gap=     0.341 Goal=   None    Shift=    0.000
 RMSDP=6.25D-04 MaxDP=4.18D-03 DE=-1.53D-03 OVMax= 4.99D-03

 Cycle   4  Pass 1  IDiag  1:
 E= -109.485841865209     Delta-E=       -0.000212013602 Rises=F Damp=F
 DIIS: error= 9.34D-04 at cycle   4 NSaved=   4.
 NSaved= 4 IEnMin= 4 EnMin= -109.485841865209     IErMin= 4 ErrMin= 9.34D-04
 ErrMax= 9.34D-04  0.00D+00 EMaxC= 1.00D-01 BMatC= 2.53D-05 BMatP= 2.55D-04
 IDIUse=3 WtCom= 9.91D-01 WtEn= 9.34D-03
 Coeff-Com: -0.718D-02-0.107D-02 0.222D+00 0.786D+00
 Coeff-En:   0.000D+00 0.000D+00 0.000D+00 0.100D+01
 Coeff:     -0.711D-02-0.106D-02 0.220D+00 0.788D+00
 Gap=     0.341 Goal=   None    Shift=    0.000
 RMSDP=1.43D-04 MaxDP=9.53D-04 DE=-2.12D-04 OVMax= 1.34D-03

 Cycle   5  Pass 1  IDiag  1:
 E= -109.485865234111     Delta-E=       -0.000023368902 Rises=F Damp=F
 DIIS: error= 5.66D-05 at cycle   5 NSaved=   5.
 NSaved= 5 IEnMin= 5 EnMin= -109.485865234111     IErMin= 5 ErrMin= 5.66D-05
 ErrMax= 5.66D-05  0.00D+00 EMaxC= 1.00D-01 BMatC= 7.33D-08 BMatP= 2.53D-05
 IDIUse=1 WtCom= 1.00D+00 WtEn= 0.00D+00
 Coeff-Com: -0.164D-02-0.121D-02 0.478D-01 0.188D+00 0.767D+00
 Coeff:     -0.164D-02-0.121D-02 0.478D-01 0.188D+00 0.767D+00
 Gap=     0.341 Goal=   None    Shift=    0.000
 RMSDP=7.89D-06 MaxDP=8.19D-05 DE=-2.34D-05 OVMax= 6.07D-05

 Cycle   6  Pass 1  IDiag  1:
 E= -109.485865294837     Delta-E=       -0.000000060725 Rises=F Damp=F
 DIIS: error= 1.61D-06 at cycle   6 NSaved=   6.
 NSaved= 6 IEnMin= 6 EnMin= -109.485865294837     IErMin= 6 ErrMin= 1.61D-06
 ErrMax= 1.61D-06  0.00D+00 EMaxC= 1.00D-01 BMatC= 6.03D-11 BMatP= 7.33D-08
 IDIUse=1 WtCom= 1.00D+00 WtEn= 0.00D+00
 Coeff-Com:  0.595D-04-0.151D-05-0.249D-02-0.925D-02-0.147D-01 0.103D+01
 Coeff:      0.595D-04-0.151D-05-0.249D-02-0.925D-02-0.147D-01 0.103D+01
 Gap=     0.341 Goal=   None    Shift=    0.000
 RMSDP=4.50D-07 MaxDP=5.23D-06 DE=-6.07D-08 OVMax= 4.52D-06

 Cycle   7  Pass 1  IDiag  1:
 E= -109.485865294912     Delta-E=       -0.000000000075 Rises=F Damp=F
 DIIS: error= 1.79D-07 at cycle   7 NSaved=   7.
 NSaved= 7 IEnMin= 7 EnMin= -109.485865294912     IErMin= 7 ErrMin= 1.79D-07
 ErrMax= 1.79D-07  0.00D+00 EMaxC= 1.00D-01 BMatC= 3.69D-13 BMatP= 6.03D-11
 IDIUse=1 WtCom= 1.00D+00 WtEn= 0.00D+00
 Coeff-Com:  0.356D-06 0.199D-05 0.257D-04-0.533D-04-0.127D-02-0.243D-01
 Coeff-Com:  0.103D+01
 Coeff:      0.356D-06 0.199D-05 0.257D-04-0.533D-04-0.127D-02-0.243D-01
 Coeff:      0.103D+01
 Gap=     0.341 Goal=   None    Shift=    0.000
 RMSDP=1.85D-08 MaxDP=1.12D-07 DE=-7.53D-11 OVMax= 2.32D-07

 Cycle   8  Pass 1  IDiag  1:
 E= -109.485865294912     Delta-E=       -0.000000000000 Rises=F Damp=F
 DIIS: error= 2.54D-09 at cycle   8 NSaved=   8.
 NSaved= 8 IEnMin= 8 EnMin= -109.485865294912     IErMin= 8 ErrMin= 2.54D-09
 ErrMax= 2.54D-09  0.00D+00 EMaxC= 1.00D-01 BMatC= 1.27D-16 BMatP= 3.69D-13
 IDIUse=1 WtCom= 1.00D+00 WtEn= 0.00D+00
 Coeff-Com: -0.553D-07-0.132D-06-0.618D-06 0.102D-04 0.111D-03 0.927D-03
 Coeff-Com: -0.718D-01 0.107D+01
 Coeff:     -0.553D-07-0.132D-06-0.618D-06 0.102D-04 0.111D-03 0.927D-03
 Coeff:     -0.718D-01 0.107D+01
 Gap=     0.341 Goal=   None    Shift=    0.000
 RMSDP=6.38D-10 MaxDP=6.41D-09 DE=-3.98D-13 OVMax= 4.10D-09

 Error on total polarization charges =  0.00212
 SCF Done:  E(RB3LYP) =  -109.485865295     A.U. after    8 cycles
            NFock=  8  Conv=0.64D-09     -V/T= 2.0148
 KE= 1.078907127641D+02 PE=-2.970471744347D+02 EE= 5.878056765831D+01
 Leave Link  502 at Thu Jun 20 17:20:30 2019, MaxMem=   104857600 cpu:               1.0 elap:               1.0
 (Enter /Applications/G16/g16/l701.exe)
 ... and contract with generalized density number  0.
 Compute integral first derivatives.
 R6Disp: Adding Grimme-D3 dispersion energy 1st derivatives to the gradient.
 D1PCM: PCM CHGder 1st derivatives, ID1Alg=3 FixD1E=F DoIter=F DoCFld=F I1PDM=0.
 GePol: Maximum number of non-zero 1st derivatives   =     261
 Leave Link  701 at Thu Jun 20 17:20:31 2019, MaxMem=   104857600 cpu:               0.4 elap:               0.4
 (Enter /Applications/G16/g16/l702.exe)
 L702 exits ... SP integral derivatives will be done elsewhere.
 Leave Link  702 at Thu Jun 20 17:20:31 2019, MaxMem=   104857600 cpu:               0.0 elap:               0.0
 (Enter /Applications/G16/g16/l703.exe)
 Integral derivatives from FoFJK, PRISM(SPDF).
 Compute integral first derivatives, UseDBF=F ICtDFT=           0.
 Calling FoFJK, ICntrl=      2127 FMM=F ISym2X=1 I1Cent= 0 IOpClX= 0 NMat=1 NMatS=1 NMatT=0.
 FoFJK:  IHMeth= 1 ICntrl=    2127 DoSepK=F KAlg= 0 I1Cent=           0 FoldK=F
 IRaf=         0 NMat=       1 IRICut=       1 DoRegI=T DoRafI=F ISym2E= 1 IDoP0=0 IntGTp=1.
 FoFCou: FMM=F IPFlag=           0 FMFlag=      100000 FMFlg1=         800
         NFxFlg=           0 DoJE=F BraDBF=F KetDBF=F FulRan=T
         wScrn=  0.000000 ICntrl=      2127 IOpCl=  0 I1Cent=           0 NGrid=           0
         NMat0=    1 NMatS0=      1 NMatT0=    0 NMatD0=    1 NMtDS0=    0 NMtDT0=    0
 Petite list used in FoFCou.
 Leave Link  703 at Thu Jun 20 17:20:31 2019, MaxMem=   104857600 cpu:               0.2 elap:               0.2
 (Enter /Applications/G16/g16/l716.exe)
 Dipole        = 7.88860905D-31 2.76101317D-30 0.00000000D+00
 ***** Axes restored to original set *****
 -------------------------------------------------------------------
 Center     Atomic                   Forces (Hartrees/Bohr)
 Number     Number              X              Y              Z
 -------------------------------------------------------------------
      1        7           0.085194367    0.120479835    0.208679157
      2        7          -0.085194367   -0.120479835   -0.208679157
 -------------------------------------------------------------------
 Cartesian Forces:  Max     0.208679157 RMS     0.147558419
 Leave Link  716 at Thu Jun 20 17:20:31 2019, MaxMem=   104857600 cpu:               0.0 elap:               0.0
 (Enter /Applications/G16/g16/l103.exe)

 GradGradGradGradGradGradGradGradGradGradGradGradGradGradGradGradGradGrad
 Berny optimization.
 Using GEDIIS/GDIIS optimizer.
 Red2BG is reusing G-inverse.
 Internal  Forces:  Max     0.255578680 RMS     0.255578680
 Search for a local minimum.
 Step number   2 out of a maximum of   20
 All quantities printed in internal units (Hartrees-Bohrs-Radians)
 RMS Force = .25558D+00 SwitMx=.10000D-02 MixMth= 1
 Mixed Optimization -- RFO/linear search
 Update second derivatives using D2CorX and points    1    2
 DE= -9.12D-02 DEPred=-7.78D-02 R= 1.17D+00
 TightC=F SS=  1.41D+00  RLast= 3.00D-01 DXNew= 5.0454D-01 9.0000D-01
 Trust test= 1.17D+00 RLast= 3.00D-01 DXMaxT set to 5.05D-01
 The second derivative matrix:
                          R1
           R1           0.24113
 ITU=  1  0
 Use linear search instead of GDIIS.
     Eigenvalues ---    0.24113
 RFO step:  Lambda= 0.00000000D+00 EMin= 2.41125291D-01
 Quartic linear search produced a step of  0.90102.
 Iteration  1 RMS(Cart)=  0.14142136 RMS(Int)=  0.07030750
 Iteration  2 RMS(Cart)=  0.04971491 RMS(Int)=  0.00000000
 Iteration  3 RMS(Cart)=  0.00000000 RMS(Int)=  0.00000000
 ITry= 1 IFail=0 DXMaxC= 1.10D-01 DCOld= 1.00D+10 DXMaxT= 5.05D-01 DXLimC= 3.00D+00 Rises=F
 ClnCor:  largest displacement from symmetrization is 4.97D-16 for atom     2.
 Variable       Old X    -DE/DX   Delta X   Delta X   Delta X     New X
                                 (Linear)    (Quad)   (Total)
    R1        2.34562  -0.25558  -0.27031   0.00000  -0.27031   2.07531
         Item               Value     Threshold  Converged?
 Maximum Force            0.255579     0.000450     NO 
 RMS     Force            0.255579     0.000300     NO 
 Maximum Displacement     0.110353     0.001800     NO 
 RMS     Displacement     0.191136     0.001200     NO 
 Predicted change in Energy=-6.027579D-02
 Lowest energy point so far.  Saving SCF results.
 GradGradGradGradGradGradGradGradGradGradGradGradGradGradGradGradGradGrad

 Leave Link  103 at Thu Jun 20 17:20:31 2019, MaxMem=   104857600 cpu:               0.0 elap:               0.0
 (Enter /Applications/G16/g16/l202.exe)
                          Input orientation:                          
 ---------------------------------------------------------------------
 Center     Atomic      Atomic             Coordinates (Angstroms)
 Number     Number       Type             X           Y           Z
 ---------------------------------------------------------------------
      1          7           0        0.199671   -0.825094    0.123207
      2          7           0        0.565746   -0.307399    1.019889
 ---------------------------------------------------------------------
 Stoichiometry    N2
 Framework group  D*H[C*(N.N)]
 Deg. of freedom     1
 Full point group                 D*H     NOp   8
 RotChk:  IX=0 Diff= 6.74D-16
 Largest Abelian subgroup         D2H     NOp   8
 Largest concise Abelian subgroup C2      NOp   2
                         Standard orientation:                         
 ---------------------------------------------------------------------
 Center     Atomic      Atomic             Coordinates (Angstroms)
 Number     Number       Type             X           Y           Z
 ---------------------------------------------------------------------
      1          7           0        0.000000   -0.000000    0.549103
      2          7           0        0.000000   -0.000000   -0.549103
 ---------------------------------------------------------------------
 Rotational constants (GHZ):           0.0000000          59.8488724          59.8488724
 Leave Link  202 at Thu Jun 20 17:20:31 2019, MaxMem=   104857600 cpu:               0.0 elap:               0.0
 (Enter /Applications/G16/g16/l301.exe)
 Standard basis: 6-31G(d,p) (6D, 7F)
 Ernie: Thresh=  0.10000D-02 Tol=  0.10000D-05 Strict=F.
 There are     8 symmetry adapted cartesian basis functions of AG  symmetry.
 There are     1 symmetry adapted cartesian basis functions of B1G symmetry.
 There are     3 symmetry adapted cartesian basis functions of B2G symmetry.
 There are     3 symmetry adapted cartesian basis functions of B3G symmetry.
 There are     1 symmetry adapted cartesian basis functions of AU  symmetry.
 There are     8 symmetry adapted cartesian basis functions of B1U symmetry.
 There are     3 symmetry adapted cartesian basis functions of B2U symmetry.
 There are     3 symmetry adapted cartesian basis functions of B3U symmetry.
 There are     8 symmetry adapted basis functions of AG  symmetry.
 There are     1 symmetry adapted basis functions of B1G symmetry.
 There are     3 symmetry adapted basis functions of B2G symmetry.
 There are     3 symmetry adapted basis functions of B3G symmetry.
 There are     1 symmetry adapted basis functions of AU  symmetry.
 There are     8 symmetry adapted basis functions of B1U symmetry.
 There are     3 symmetry adapted basis functions of B2U symmetry.
 There are     3 symmetry adapted basis functions of B3U symmetry.
    30 basis functions,    56 primitive gaussians,    30 cartesian basis functions
     7 alpha electrons        7 beta electrons
       nuclear repulsion energy        23.6109408793 Hartrees.
 IExCor=  402 DFT=T Ex+Corr=B3LYP ExCW=0 ScaHFX=  0.200000
 ScaDFX=  0.800000  0.720000  1.000000  0.810000 ScalE2=  1.000000  1.000000
 IRadAn=      5 IRanWt=     -1 IRanGd=            0 ICorTp=0 IEmpDi=131
 NAtoms=    2 NActive=    2 NUniq=    1 SFac= 4.00D+00 NAtFMM=   60 NAOKFM=F Big=F
 Integral buffers will be    131072 words long.
 Raffenetti 2 integral format.
 Two-electron integral symmetry is turned on.
 R6Disp:  Grimme-D3 Dispersion energy=       -0.0000003694 Hartrees.
 Nuclear repulsion after empirical dispersion term =       23.6109405099 Hartrees.
 ------------------------------------------------------------------------------
 Polarizable Continuum Model (PCM)
 =================================
 Model                : PCM.
 Atomic radii         : UFF (Universal Force Field).
 Polarization charges : Total charges.
 Charge compensation  : None.
 Solution method      : On-the-fly selection.
 Cavity type          : Scaled VdW (van der Waals Surface) (Alpha=1.100).
 Cavity algorithm     : GePol (No added spheres)
                        Default sphere list used, NSphG=    2.
                        Lebedev-Laikov grids with approx.  5.0 points / Ang**2.
                        Smoothing algorithm: York/Karplus (Gamma=1.0000).
                        Polarization charges: spherical gaussians, with
                                              point-specific exponents (IZeta= 3).
                        Self-potential: point-specific (ISelfS= 7).
                        Self-field    : sphere-specific E.n sum rule (ISelfD= 2).
 1st derivatives      : Analytical E(r).r(x)/FMM algorithm (CHGder, D1EAlg=3).
                        Cavity 1st derivative terms included.
 Solvent              : Acetonitrile, Eps=  35.688000 Eps(inf)=   1.806874
 ------------------------------------------------------------------------------
 Spheres list:
 ISph  on   Nord     Re0    Alpha      Xe            Ye            Ze
    1   N      1    1.8300  1.100     -0.000000     -0.000000      0.549103
    2   N      2    1.8300  1.100      0.000000     -0.000000     -0.549103
 ------------------------------------------------------------------------------
 GePol: Number of generator spheres                  =       2
 GePol: Total number of spheres                      =       2
 GePol: Number of exposed spheres                    =       2 (100.00%)
 GePol: Number of points                             =     426
 GePol: Average weight of points                     =       0.15
 GePol: Minimum weight of points                     =   0.21D-02
 GePol: Maximum weight of points                     =    0.18586
 GePol: Number of points with low weight             =       0
 GePol: Fraction of low-weight points (<1% of avg)   =       0.00%
 GePol: Cavity surface area                          =     64.816 Ang**2
 GePol: Cavity volume                                =     47.793 Ang**3
 Leave Link  301 at Thu Jun 20 17:20:31 2019, MaxMem=   104857600 cpu:               0.1 elap:               0.1
 (Enter /Applications/G16/g16/l302.exe)
 NPDir=0 NMtPBC=     1 NCelOv=     1 NCel=       1 NClECP=     1 NCelD=      1
         NCelK=      1 NCelE2=     1 NClLst=     1 CellRange=     0.0.
 One-electron integrals computed using PRISM.
 One-electron integral symmetry used in STVInt
 NBasis=    30 RedAO= T EigKep=  4.35D-03  NBF=     8     1     3     3     1     8     3     3
 NBsUse=    30 1.00D-06 EigRej= -1.00D+00 NBFU=     8     1     3     3     1     8     3     3
 Precomputing XC quadrature grid using
 IXCGrd= 4 IRadAn=           5 IRanWt=          -1 IRanGd=           0 AccXCQ= 0.00D+00.
 Generated NRdTot=       0 NPtTot=           0 NUsed=           0 NTot=          32
 NSgBfM=    30    30    30    30    30 MxSgAt=     2 MxSgA2=     2.
 Leave Link  302 at Thu Jun 20 17:20:31 2019, MaxMem=   104857600 cpu:               0.1 elap:               0.1
 (Enter /Applications/G16/g16/l303.exe)
 DipDrv:  MaxL=1.
 Leave Link  303 at Thu Jun 20 17:20:31 2019, MaxMem=   104857600 cpu:               0.0 elap:               0.0
 (Enter /Applications/G16/g16/l401.exe)
 Initial guess from the checkpoint file:  "N2.chk"
 B after Tr=     0.000000   -0.000000    0.000000
         Rot=    1.000000    0.000000    0.000000    0.000000 Ang=   0.00 deg.
 Guess basis will be translated and rotated to current coordinates.
 JPrj=2 DoOrth=T DoCkMO=T.
 Initial guess orbital symmetries:
       Occupied  (SGG) (SGU) (SGG) (SGU) (PIU) (PIU) (SGG)
       Virtual   (PIG) (PIG) (SGU) (SGG) (PIU) (PIU) (SGG) (SGU)
                 (PIG) (PIG) (SGU) (PIU) (PIU) (DLTG) (DLTG) (DLTU)
                 (DLTU) (SGG) (PIG) (PIG) (SGU) (SGG) (SGU)
 The electronic state of the initial guess is 1-SGG.
 Generating alternative initial guess.
 ExpMin= 2.12D-01 ExpMax= 4.17D+03 ExpMxC= 6.27D+02 IAcc=2 IRadAn=         4 AccDes= 0.00D+00
 Harris functional with IExCor=  402 and IRadAn=       4 diagonalized for initial guess.
 HarFok:  IExCor=  402 AccDes= 0.00D+00 IRadAn=         4 IDoV= 1 UseB2=F ITyADJ=14
 ICtDFT=  3500011 ScaDFX=  1.000000  1.000000  1.000000  1.000000
 FoFCou: FMM=F IPFlag=           0 FMFlag=      100000 FMFlg1=           0
         NFxFlg=           0 DoJE=T BraDBF=F KetDBF=T FulRan=T
         wScrn=  0.000000 ICntrl=       500 IOpCl=  0 I1Cent=   200000004 NGrid=           0
         NMat0=    1 NMatS0=      1 NMatT0=    0 NMatD0=    1 NMtDS0=    0 NMtDT0=    0
 Petite list used in FoFCou.
 Harris En= -109.492338123424    
 Leave Link  401 at Thu Jun 20 17:20:31 2019, MaxMem=   104857600 cpu:               0.1 elap:               0.2
 (Enter /Applications/G16/g16/l502.exe)
 Keep R1 ints in memory in symmetry-blocked form, NReq=1549219.
 FoFCou: FMM=F IPFlag=           0 FMFlag=           0 FMFlg1=           0
         NFxFlg=           0 DoJE=F BraDBF=F KetDBF=F FulRan=T
         wScrn=  0.000000 ICntrl=       600 IOpCl=  0 I1Cent=           0 NGrid=           0
         NMat0=    1 NMatS0=    465 NMatT0=    0 NMatD0=    1 NMtDS0=    0 NMtDT0=    0
 Petite list used in FoFCou.
 Closed shell SCF:
 Using DIIS extrapolation, IDIIS=  1040.
 NGot=   104857600 LenX=   104836629 LenY=   104835288
 Requested convergence on RMS density matrix=1.00D-08 within 128 cycles.
 Requested convergence on MAX density matrix=1.00D-06.
 Requested convergence on             energy=1.00D-06.
 No special actions if energy rises.

 Cycle   1  Pass 1  IDiag  1:
 Inv3:  Mode=1 IEnd=      544428.
 Iteration    1 A*A^-1 deviation from unit magnitude is 2.00D-15 for    122.
 Iteration    1 A*A^-1 deviation from orthogonality  is 9.92D-16 for    364    150.
 Iteration    1 A^-1*A deviation from unit magnitude is 1.67D-15 for    278.
 Iteration    1 A^-1*A deviation from orthogonality  is 7.77D-16 for    426    332.
 E= -109.511593707433    
 DIIS: error= 1.77D-02 at cycle   1 NSaved=   1.
 NSaved= 1 IEnMin= 1 EnMin= -109.511593707433     IErMin= 1 ErrMin= 1.77D-02
 ErrMax= 1.77D-02  0.00D+00 EMaxC= 1.00D-01 BMatC= 1.06D-02 BMatP= 1.06D-02
 IDIUse=3 WtCom= 8.23D-01 WtEn= 1.77D-01
 Coeff-Com:  0.100D+01
 Coeff-En:   0.100D+01
 Coeff:      0.100D+01
 Recover alternate guess density for next cycle.
 RMSDP=5.67D-03 MaxDP=3.29D-02              OVMax= 0.00D+00

 Cycle   2  Pass 1  IDiag  1:
 E= -109.520652236954     Delta-E=       -0.009058529521 Rises=F Damp=F
 DIIS: error= 1.42D-02 at cycle   2 NSaved=   2.
 NSaved= 2 IEnMin= 2 EnMin= -109.520652236954     IErMin= 2 ErrMin= 1.42D-02
 ErrMax= 1.42D-02  0.00D+00 EMaxC= 1.00D-01 BMatC= 5.84D-03 BMatP= 1.06D-02
 IDIUse=3 WtCom= 8.58D-01 WtEn= 1.42D-01
 Coeff-Com:  0.402D+00 0.598D+00
 Coeff-En:   0.000D+00 0.100D+01
 Coeff:      0.345D+00 0.655D+00
 Gap=     0.432 Goal=   None    Shift=    0.000
 RMSDP=1.99D-03 MaxDP=1.28D-02 DE=-9.06D-03 OVMax= 4.05D-02

 Cycle   3  Pass 1  IDiag  1:
 E= -109.524320726681     Delta-E=       -0.003668489727 Rises=F Damp=F
 DIIS: error= 1.75D-03 at cycle   3 NSaved=   3.
 NSaved= 3 IEnMin= 3 EnMin= -109.524320726681     IErMin= 3 ErrMin= 1.75D-03
 ErrMax= 1.75D-03  0.00D+00 EMaxC= 1.00D-01 BMatC= 6.73D-05 BMatP= 5.84D-03
 IDIUse=3 WtCom= 9.82D-01 WtEn= 1.75D-02
 Coeff-Com: -0.148D-01 0.530D-01 0.962D+00
 Coeff-En:   0.000D+00 0.000D+00 0.100D+01
 Coeff:     -0.146D-01 0.521D-01 0.962D+00
 Gap=     0.408 Goal=   None    Shift=    0.000
 RMSDP=3.31D-04 MaxDP=2.88D-03 DE=-3.67D-03 OVMax= 2.67D-03

 Cycle   4  Pass 1  IDiag  1:
 E= -109.524379288208     Delta-E=       -0.000058561527 Rises=F Damp=F
 DIIS: error= 5.31D-04 at cycle   4 NSaved=   4.
 NSaved= 4 IEnMin= 4 EnMin= -109.524379288208     IErMin= 4 ErrMin= 5.31D-04
 ErrMax= 5.31D-04  0.00D+00 EMaxC= 1.00D-01 BMatC= 5.86D-06 BMatP= 6.73D-05
 IDIUse=3 WtCom= 9.95D-01 WtEn= 5.31D-03
 Coeff-Com: -0.181D-02-0.261D-02 0.225D+00 0.780D+00
 Coeff-En:   0.000D+00 0.000D+00 0.000D+00 0.100D+01
 Coeff:     -0.181D-02-0.259D-02 0.224D+00 0.781D+00
 Gap=     0.407 Goal=   None    Shift=    0.000
 RMSDP=7.68D-05 MaxDP=5.27D-04 DE=-5.86D-05 OVMax= 6.35D-04

 Cycle   5  Pass 1  IDiag  1:
 E= -109.524384640923     Delta-E=       -0.000005352715 Rises=F Damp=F
 DIIS: error= 2.93D-05 at cycle   5 NSaved=   5.
 NSaved= 5 IEnMin= 5 EnMin= -109.524384640923     IErMin= 5 ErrMin= 2.93D-05
 ErrMax= 2.93D-05  0.00D+00 EMaxC= 1.00D-01 BMatC= 1.39D-08 BMatP= 5.86D-06
 IDIUse=1 WtCom= 1.00D+00 WtEn= 0.00D+00
 Coeff-Com: -0.863D-03-0.587D-03 0.402D-01 0.143D+00 0.818D+00
 Coeff:     -0.863D-03-0.587D-03 0.402D-01 0.143D+00 0.818D+00
 Gap=     0.407 Goal=   None    Shift=    0.000
 RMSDP=2.90D-06 MaxDP=1.90D-05 DE=-5.35D-06 OVMax= 2.83D-05

 Cycle   6  Pass 1  IDiag  1:
 E= -109.524384651547     Delta-E=       -0.000000010624 Rises=F Damp=F
 DIIS: error= 1.63D-06 at cycle   6 NSaved=   6.
 NSaved= 6 IEnMin= 6 EnMin= -109.524384651547     IErMin= 6 ErrMin= 1.63D-06
 ErrMax= 1.63D-06  0.00D+00 EMaxC= 1.00D-01 BMatC= 6.91D-11 BMatP= 1.39D-08
 IDIUse=1 WtCom= 1.00D+00 WtEn= 0.00D+00
 Coeff-Com:  0.281D-04 0.386D-05-0.199D-02-0.800D-02 0.234D-01 0.987D+00
 Coeff:      0.281D-04 0.386D-05-0.199D-02-0.800D-02 0.234D-01 0.987D+00
 Gap=     0.407 Goal=   None    Shift=    0.000
 RMSDP=3.25D-07 MaxDP=2.78D-06 DE=-1.06D-08 OVMax= 2.82D-06

 Cycle   7  Pass 1  IDiag  1:
 E= -109.524384651620     Delta-E=       -0.000000000073 Rises=F Damp=F
 DIIS: error= 1.06D-07 at cycle   7 NSaved=   7.
 NSaved= 7 IEnMin= 7 EnMin= -109.524384651620     IErMin= 7 ErrMin= 1.06D-07
 ErrMax= 1.06D-07  0.00D+00 EMaxC= 1.00D-01 BMatC= 1.63D-13 BMatP= 6.91D-11
 IDIUse=1 WtCom= 1.00D+00 WtEn= 0.00D+00
 Coeff-Com:  0.557D-06 0.114D-05 0.672D-05 0.659D-04-0.421D-02-0.201D-01
 Coeff-Com:  0.102D+01
 Coeff:      0.557D-06 0.114D-05 0.672D-05 0.659D-04-0.421D-02-0.201D-01
 Coeff:      0.102D+01
 Gap=     0.407 Goal=   None    Shift=    0.000
 RMSDP=1.44D-08 MaxDP=1.20D-07 DE=-7.27D-11 OVMax= 1.44D-07

 Cycle   8  Pass 1  IDiag  1:
 E= -109.524384651620     Delta-E=       -0.000000000000 Rises=F Damp=F
 DIIS: error= 1.53D-09 at cycle   8 NSaved=   8.
 NSaved= 8 IEnMin= 8 EnMin= -109.524384651620     IErMin= 8 ErrMin= 1.53D-09
 ErrMax= 1.53D-09  0.00D+00 EMaxC= 1.00D-01 BMatC= 4.44D-17 BMatP= 1.63D-13
 IDIUse=1 WtCom= 1.00D+00 WtEn= 0.00D+00
 Coeff-Com: -0.580D-07-0.862D-07 0.914D-06 0.120D-05 0.299D-03 0.383D-03
 Coeff-Com: -0.720D-01 0.107D+01
 Coeff:     -0.580D-07-0.862D-07 0.914D-06 0.120D-05 0.299D-03 0.383D-03
 Coeff:     -0.720D-01 0.107D+01
 Gap=     0.407 Goal=   None    Shift=    0.000
 RMSDP=6.60D-10 MaxDP=7.67D-09 DE=-1.71D-13 OVMax= 2.93D-09

 Error on total polarization charges =  0.00187
 SCF Done:  E(RB3LYP) =  -109.524384652     A.U. after    8 cycles
            NFock=  8  Conv=0.66D-09     -V/T= 2.0093
 KE= 1.085114585695D+02 PE=-3.029648831867D+02 EE= 6.131809945566D+01
 Leave Link  502 at Thu Jun 20 17:20:32 2019, MaxMem=   104857600 cpu:               1.0 elap:               1.0
 (Enter /Applications/G16/g16/l701.exe)
 ... and contract with generalized density number  0.
 Compute integral first derivatives.
 R6Disp: Adding Grimme-D3 dispersion energy 1st derivatives to the gradient.
 D1PCM: PCM CHGder 1st derivatives, ID1Alg=3 FixD1E=F DoIter=F DoCFld=F I1PDM=0.
 GePol: Maximum number of non-zero 1st derivatives   =     245
 Leave Link  701 at Thu Jun 20 17:20:33 2019, MaxMem=   104857600 cpu:               0.4 elap:               0.4
 (Enter /Applications/G16/g16/l702.exe)
 L702 exits ... SP integral derivatives will be done elsewhere.
 Leave Link  702 at Thu Jun 20 17:20:33 2019, MaxMem=   104857600 cpu:               0.0 elap:               0.0
 (Enter /Applications/G16/g16/l703.exe)
 Integral derivatives from FoFJK, PRISM(SPDF).
 Compute integral first derivatives, UseDBF=F ICtDFT=           0.
 Calling FoFJK, ICntrl=      2127 FMM=F ISym2X=1 I1Cent= 0 IOpClX= 0 NMat=1 NMatS=1 NMatT=0.
 FoFJK:  IHMeth= 1 ICntrl=    2127 DoSepK=F KAlg= 0 I1Cent=           0 FoldK=F
 IRaf=         0 NMat=       1 IRICut=       1 DoRegI=T DoRafI=F ISym2E= 1 IDoP0=0 IntGTp=1.
 FoFCou: FMM=F IPFlag=           0 FMFlag=      100000 FMFlg1=         800
         NFxFlg=           0 DoJE=F BraDBF=F KetDBF=F FulRan=T
         wScrn=  0.000000 ICntrl=      2127 IOpCl=  0 I1Cent=           0 NGrid=           0
         NMat0=    1 NMatS0=      1 NMatT0=    0 NMatD0=    1 NMtDS0=    0 NMtDT0=    0
 Petite list used in FoFCou.
 Leave Link  703 at Thu Jun 20 17:20:33 2019, MaxMem=   104857600 cpu:               0.2 elap:               0.2
 (Enter /Applications/G16/g16/l716.exe)
 Dipole        =-7.88860905D-31 6.90253292D-31-8.88178420D-16
 ***** Axes restored to original set *****
 -------------------------------------------------------------------
 Center     Atomic                   Forces (Hartrees/Bohr)
 Number     Number              X              Y              Z
 -------------------------------------------------------------------
      1        7          -0.007314202   -0.010343570   -0.017915757
      2        7           0.007314202    0.010343570    0.017915757
 -------------------------------------------------------------------
 Cartesian Forces:  Max     0.017915757 RMS     0.012668351
 Leave Link  716 at Thu Jun 20 17:20:33 2019, MaxMem=   104857600 cpu:               0.0 elap:               0.0
 (Enter /Applications/G16/g16/l103.exe)

 GradGradGradGradGradGradGradGradGradGradGradGradGradGradGradGradGradGrad
 Berny optimization.
 Using GEDIIS/GDIIS optimizer.
 Red2BG is reusing G-inverse.
 Internal  Forces:  Max     0.021942227 RMS     0.021942227
 Search for a local minimum.
 Step number   3 out of a maximum of   20
 All quantities printed in internal units (Hartrees-Bohrs-Radians)
 RMS Force = .21942D-01 SwitMx=.10000D-02 MixMth= 1
 Mixed Optimization -- RFO/linear search
 Update second derivatives using D2CorX and points    2    3
 DE= -3.85D-02 DEPred=-6.03D-02 R= 6.39D-01
 TightC=F SS=  1.41D+00  RLast= 2.70D-01 DXNew= 8.4853D-01 8.1092D-01
 Trust test= 6.39D-01 RLast= 2.70D-01 DXMaxT set to 8.11D-01
 The second derivative matrix:
                          R1
           R1           1.02669
 ITU=  1  1
 Use linear search instead of GDIIS.
     Eigenvalues ---    1.02669
 RFO step:  Lambda= 0.00000000D+00 EMin= 1.02668593D+00
 Quartic linear search produced a step of -0.05028.
 Iteration  1 RMS(Cart)=  0.00961062 RMS(Int)=  0.00000000
 Iteration  2 RMS(Cart)=  0.00000000 RMS(Int)=  0.00000000
 ITry= 1 IFail=0 DXMaxC= 5.55D-03 DCOld= 1.00D+10 DXMaxT= 8.11D-01 DXLimC= 3.00D+00 Rises=F
 ClnCor:  largest displacement from symmetrization is 3.33D-16 for atom     2.
 Variable       Old X    -DE/DX   Delta X   Delta X   Delta X     New X
                                 (Linear)    (Quad)   (Total)
    R1        2.07531   0.02194   0.01359   0.00000   0.01359   2.08890
         Item               Value     Threshold  Converged?
 Maximum Force            0.021942     0.000450     NO 
 RMS     Force            0.021942     0.000300     NO 
 Maximum Displacement     0.005549     0.001800     NO 
 RMS     Displacement     0.009611     0.001200     NO 
 Predicted change in Energy=-2.033982D-04
 Lowest energy point so far.  Saving SCF results.
 GradGradGradGradGradGradGradGradGradGradGradGradGradGradGradGradGradGrad

 Leave Link  103 at Thu Jun 20 17:20:33 2019, MaxMem=   104857600 cpu:               0.0 elap:               0.0
 (Enter /Applications/G16/g16/l202.exe)
                          Input orientation:                          
 ---------------------------------------------------------------------
 Center     Atomic      Atomic             Coordinates (Angstroms)
 Number     Number       Type             X           Y           Z
 ---------------------------------------------------------------------
      1          7           0        0.198472   -0.826789    0.120271
      2          7           0        0.566945   -0.305704    1.022825
 ---------------------------------------------------------------------
 Stoichiometry    N2
 Framework group  D*H[C*(N.N)]
 Deg. of freedom     1
 Full point group                 D*H     NOp   8
 RotChk:  IX=0 Diff= 5.62D-16
 Largest Abelian subgroup         D2H     NOp   8
 Largest concise Abelian subgroup C2      NOp   2
                         Standard orientation:                         
 ---------------------------------------------------------------------
 Center     Atomic      Atomic             Coordinates (Angstroms)
 Number     Number       Type             X           Y           Z
 ---------------------------------------------------------------------
      1          7           0       -0.000000   -0.000000    0.552699
      2          7           0        0.000000    0.000000   -0.552699
 ---------------------------------------------------------------------
 Rotational constants (GHZ):           0.0000000          59.0725909          59.0725909
 Leave Link  202 at Thu Jun 20 17:20:33 2019, MaxMem=   104857600 cpu:               0.0 elap:               0.0
 (Enter /Applications/G16/g16/l301.exe)
 Standard basis: 6-31G(d,p) (6D, 7F)
 Ernie: Thresh=  0.10000D-02 Tol=  0.10000D-05 Strict=F.
 There are     8 symmetry adapted cartesian basis functions of AG  symmetry.
 There are     1 symmetry adapted cartesian basis functions of B1G symmetry.
 There are     3 symmetry adapted cartesian basis functions of B2G symmetry.
 There are     3 symmetry adapted cartesian basis functions of B3G symmetry.
 There are     1 symmetry adapted cartesian basis functions of AU  symmetry.
 There are     8 symmetry adapted cartesian basis functions of B1U symmetry.
 There are     3 symmetry adapted cartesian basis functions of B2U symmetry.
 There are     3 symmetry adapted cartesian basis functions of B3U symmetry.
 There are     8 symmetry adapted basis functions of AG  symmetry.
 There are     1 symmetry adapted basis functions of B1G symmetry.
 There are     3 symmetry adapted basis functions of B2G symmetry.
 There are     3 symmetry adapted basis functions of B3G symmetry.
 There are     1 symmetry adapted basis functions of AU  symmetry.
 There are     8 symmetry adapted basis functions of B1U symmetry.
 There are     3 symmetry adapted basis functions of B2U symmetry.
 There are     3 symmetry adapted basis functions of B3U symmetry.
    30 basis functions,    56 primitive gaussians,    30 cartesian basis functions
     7 alpha electrons        7 beta electrons
       nuclear repulsion energy        23.4573159310 Hartrees.
 IExCor=  402 DFT=T Ex+Corr=B3LYP ExCW=0 ScaHFX=  0.200000
 ScaDFX=  0.800000  0.720000  1.000000  0.810000 ScalE2=  1.000000  1.000000
 IRadAn=      5 IRanWt=     -1 IRanGd=            0 ICorTp=0 IEmpDi=131
 NAtoms=    2 NActive=    2 NUniq=    1 SFac= 4.00D+00 NAtFMM=   60 NAOKFM=F Big=F
 Integral buffers will be    131072 words long.
 Raffenetti 2 integral format.
 Two-electron integral symmetry is turned on.
 R6Disp:  Grimme-D3 Dispersion energy=       -0.0000003892 Hartrees.
 Nuclear repulsion after empirical dispersion term =       23.4573155417 Hartrees.
 ------------------------------------------------------------------------------
 Polarizable Continuum Model (PCM)
 =================================
 Model                : PCM.
 Atomic radii         : UFF (Universal Force Field).
 Polarization charges : Total charges.
 Charge compensation  : None.
 Solution method      : On-the-fly selection.
 Cavity type          : Scaled VdW (van der Waals Surface) (Alpha=1.100).
 Cavity algorithm     : GePol (No added spheres)
                        Default sphere list used, NSphG=    2.
                        Lebedev-Laikov grids with approx.  5.0 points / Ang**2.
                        Smoothing algorithm: York/Karplus (Gamma=1.0000).
                        Polarization charges: spherical gaussians, with
                                              point-specific exponents (IZeta= 3).
                        Self-potential: point-specific (ISelfS= 7).
                        Self-field    : sphere-specific E.n sum rule (ISelfD= 2).
 1st derivatives      : Analytical E(r).r(x)/FMM algorithm (CHGder, D1EAlg=3).
                        Cavity 1st derivative terms included.
 Solvent              : Acetonitrile, Eps=  35.688000 Eps(inf)=   1.806874
 ------------------------------------------------------------------------------
 Spheres list:
 ISph  on   Nord     Re0    Alpha      Xe            Ye            Ze
    1   N      1    1.8300  1.100     -0.000000     -0.000000      0.552699
    2   N      2    1.8300  1.100      0.000000      0.000000     -0.552699
 ------------------------------------------------------------------------------
 GePol: Number of generator spheres                  =       2
 GePol: Total number of spheres                      =       2
 GePol: Number of exposed spheres                    =       2 (100.00%)
 GePol: Number of points                             =     426
 GePol: Average weight of points                     =       0.15
 GePol: Minimum weight of points                     =   0.24D-02
 GePol: Maximum weight of points                     =    0.18586
 GePol: Number of points with low weight             =       0
 GePol: Fraction of low-weight points (<1% of avg)   =       0.00%
 GePol: Cavity surface area                          =     64.909 Ang**2
 GePol: Cavity volume                                =     47.880 Ang**3
 Leave Link  301 at Thu Jun 20 17:20:33 2019, MaxMem=   104857600 cpu:               0.0 elap:               0.1
 (Enter /Applications/G16/g16/l302.exe)
 NPDir=0 NMtPBC=     1 NCelOv=     1 NCel=       1 NClECP=     1 NCelD=      1
         NCelK=      1 NCelE2=     1 NClLst=     1 CellRange=     0.0.
 One-electron integrals computed using PRISM.
 One-electron integral symmetry used in STVInt
 NBasis=    30 RedAO= T EigKep=  4.48D-03  NBF=     8     1     3     3     1     8     3     3
 NBsUse=    30 1.00D-06 EigRej= -1.00D+00 NBFU=     8     1     3     3     1     8     3     3
 Precomputing XC quadrature grid using
 IXCGrd= 4 IRadAn=           5 IRanWt=          -1 IRanGd=           0 AccXCQ= 0.00D+00.
 Generated NRdTot=       0 NPtTot=           0 NUsed=           0 NTot=          32
 NSgBfM=    30    30    30    30    30 MxSgAt=     2 MxSgA2=     2.
 Leave Link  302 at Thu Jun 20 17:20:33 2019, MaxMem=   104857600 cpu:               0.1 elap:               0.1
 (Enter /Applications/G16/g16/l303.exe)
 DipDrv:  MaxL=1.
 Leave Link  303 at Thu Jun 20 17:20:33 2019, MaxMem=   104857600 cpu:               0.0 elap:               0.0
 (Enter /Applications/G16/g16/l401.exe)
 Initial guess from the checkpoint file:  "N2.chk"
 B after Tr=     0.000000    0.000000    0.000000
         Rot=    1.000000   -0.000000    0.000000    0.000000 Ang=   0.00 deg.
 Guess basis will be translated and rotated to current coordinates.
 JPrj=2 DoOrth=T DoCkMO=T.
 Initial guess orbital symmetries:
       Occupied  (SGG) (SGU) (SGG) (SGU) (PIU) (PIU) (SGG)
       Virtual   (PIG) (PIG) (SGU) (SGG) (PIU) (PIU) (SGG) (PIG)
                 (PIG) (SGU) (SGU) (DLTG) (DLTG) (PIU) (PIU) (DLTU)
                 (DLTU) (SGG) (PIG) (PIG) (SGU) (SGG) (SGU)
 The electronic state of the initial guess is 1-SGG.
 Leave Link  401 at Thu Jun 20 17:20:33 2019, MaxMem=   104857600 cpu:               0.1 elap:               0.1
 (Enter /Applications/G16/g16/l502.exe)
 Keep R1 ints in memory in symmetry-blocked form, NReq=1549219.
 FoFCou: FMM=F IPFlag=           0 FMFlag=           0 FMFlg1=           0
         NFxFlg=           0 DoJE=F BraDBF=F KetDBF=F FulRan=T
         wScrn=  0.000000 ICntrl=       600 IOpCl=  0 I1Cent=           0 NGrid=           0
         NMat0=    1 NMatS0=    465 NMatT0=    0 NMatD0=    1 NMtDS0=    0 NMtDT0=    0
 Petite list used in FoFCou.
 Closed shell SCF:
 Using DIIS extrapolation, IDIIS=  1040.
 NGot=   104857600 LenX=   104836629 LenY=   104835288
 Requested convergence on RMS density matrix=1.00D-08 within 128 cycles.
 Requested convergence on MAX density matrix=1.00D-06.
 Requested convergence on             energy=1.00D-06.
 No special actions if energy rises.

 Cycle   1  Pass 1  IDiag  1:
 Inv3:  Mode=1 IEnd=      544428.
 Iteration    1 A*A^-1 deviation from unit magnitude is 2.22D-15 for      1.
 Iteration    1 A*A^-1 deviation from orthogonality  is 1.41D-15 for    330    116.
 Iteration    1 A^-1*A deviation from unit magnitude is 2.00D-15 for      1.
 Iteration    1 A^-1*A deviation from orthogonality  is 9.28D-16 for    425    309.
 E= -109.524493388697    
 DIIS: error= 9.80D-04 at cycle   1 NSaved=   1.
 NSaved= 1 IEnMin= 1 EnMin= -109.524493388697     IErMin= 1 ErrMin= 9.80D-04
 ErrMax= 9.80D-04  0.00D+00 EMaxC= 1.00D-01 BMatC= 3.03D-05 BMatP= 3.03D-05
 IDIUse=3 WtCom= 9.90D-01 WtEn= 9.80D-03
 Coeff-Com:  0.100D+01
 Coeff-En:   0.100D+01
 Coeff:      0.100D+01
 Gap=     0.404 Goal=   None    Shift=    0.000
 RMSDP=2.27D-04 MaxDP=1.40D-03              OVMax= 2.21D-03

 Cycle   2  Pass 1  IDiag  1:
 E= -109.524525159344     Delta-E=       -0.000031770648 Rises=F Damp=F
 DIIS: error= 3.79D-04 at cycle   2 NSaved=   2.
 NSaved= 2 IEnMin= 2 EnMin= -109.524525159344     IErMin= 2 ErrMin= 3.79D-04
 ErrMax= 3.79D-04  0.00D+00 EMaxC= 1.00D-01 BMatC= 5.24D-06 BMatP= 3.03D-05
 IDIUse=3 WtCom= 9.96D-01 WtEn= 3.79D-03
 Coeff-Com:  0.243D+00 0.757D+00
 Coeff-En:   0.000D+00 0.100D+01
 Coeff:      0.242D+00 0.758D+00
 Gap=     0.404 Goal=   None    Shift=    0.000
 RMSDP=9.42D-05 MaxDP=6.89D-04 DE=-3.18D-05 OVMax= 6.72D-04

 Cycle   3  Pass 1  IDiag  1:
 E= -109.524529583660     Delta-E=       -0.000004424316 Rises=F Damp=F
 DIIS: error= 1.14D-04 at cycle   3 NSaved=   3.
 NSaved= 3 IEnMin= 3 EnMin= -109.524529583660     IErMin= 3 ErrMin= 1.14D-04
 ErrMax= 1.14D-04  0.00D+00 EMaxC= 1.00D-01 BMatC= 3.05D-07 BMatP= 5.24D-06
 IDIUse=3 WtCom= 9.99D-01 WtEn= 1.14D-03
 Coeff-Com: -0.172D-01 0.175D+00 0.842D+00
 Coeff-En:   0.000D+00 0.000D+00 0.100D+01
 Coeff:     -0.172D-01 0.175D+00 0.842D+00
 Gap=     0.404 Goal=   None    Shift=    0.000
 RMSDP=1.57D-05 MaxDP=9.16D-05 DE=-4.42D-06 OVMax= 1.65D-04

 Cycle   4  Pass 1  IDiag  1:
 E= -109.524529875380     Delta-E=       -0.000000291719 Rises=F Damp=F
 DIIS: error= 3.54D-06 at cycle   4 NSaved=   4.
 NSaved= 4 IEnMin= 4 EnMin= -109.524529875380     IErMin= 4 ErrMin= 3.54D-06
 ErrMax= 3.54D-06  0.00D+00 EMaxC= 1.00D-01 BMatC= 2.63D-10 BMatP= 3.05D-07
 IDIUse=1 WtCom= 1.00D+00 WtEn= 0.00D+00
 Coeff-Com: -0.201D-02 0.771D-02 0.609D-01 0.933D+00
 Coeff:     -0.201D-02 0.771D-02 0.609D-01 0.933D+00
 Gap=     0.404 Goal=   None    Shift=    0.000
 RMSDP=6.78D-07 MaxDP=5.40D-06 DE=-2.92D-07 OVMax= 5.35D-06

 Cycle   5  Pass 1  IDiag  1:
 E= -109.524529875597     Delta-E=       -0.000000000217 Rises=F Damp=F
 DIIS: error= 5.43D-07 at cycle   5 NSaved=   5.
 NSaved= 5 IEnMin= 5 EnMin= -109.524529875597     IErMin= 5 ErrMin= 5.43D-07
 ErrMax= 5.43D-07  0.00D+00 EMaxC= 1.00D-01 BMatC= 6.33D-12 BMatP= 2.63D-10
 IDIUse=1 WtCom= 1.00D+00 WtEn= 0.00D+00
 Coeff-Com:  0.870D-05-0.146D-02-0.315D-02 0.149D+00 0.855D+00
 Coeff:      0.870D-05-0.146D-02-0.315D-02 0.149D+00 0.855D+00
 Gap=     0.404 Goal=   None    Shift=    0.000
 RMSDP=1.03D-07 MaxDP=1.44D-06 DE=-2.17D-10 OVMax= 6.45D-07

 Cycle   6  Pass 1  IDiag  1:
 E= -109.524529875602     Delta-E=       -0.000000000005 Rises=F Damp=F
 DIIS: error= 1.42D-08 at cycle   6 NSaved=   6.
 NSaved= 6 IEnMin= 6 EnMin= -109.524529875602     IErMin= 6 ErrMin= 1.42D-08
 ErrMax= 1.42D-08  0.00D+00 EMaxC= 1.00D-01 BMatC= 3.85D-15 BMatP= 6.33D-12
 IDIUse=1 WtCom= 1.00D+00 WtEn= 0.00D+00
 Coeff-Com:  0.354D-05 0.416D-04 0.120D-04-0.926D-02-0.256D-01 0.103D+01
 Coeff:      0.354D-05 0.416D-04 0.120D-04-0.926D-02-0.256D-01 0.103D+01
 Gap=     0.404 Goal=   None    Shift=    0.000
 RMSDP=5.44D-09 MaxDP=6.61D-08 DE=-5.12D-12 OVMax= 2.20D-08

 Error on total polarization charges =  0.00188
 SCF Done:  E(RB3LYP) =  -109.524529876     A.U. after    6 cycles
            NFock=  6  Conv=0.54D-08     -V/T= 2.0097
 KE= 1.084697185012D+02 PE=-3.026283950002D+02 EE= 6.117683108160D+01
 Leave Link  502 at Thu Jun 20 17:20:34 2019, MaxMem=   104857600 cpu:               0.8 elap:               0.9
 (Enter /Applications/G16/g16/l701.exe)
[...]
 (Enter /Applications/G16/g16/l801.exe)
 DoSCS=F DFT=T ScalE2(SS,OS)=  1.000000  1.000000
 Range of M.O.s used for correlation:     1    30
 NBasis=    30 NAE=     7 NBE=     7 NFC=     0 NFV=     0
 NROrb=     30 NOA=     7 NOB=     7 NVA=    23 NVB=    23
 Leave Link  801 at Thu Jun 20 17:20:39 2019, MaxMem=   104857600 cpu:               0.0 elap:               0.1
 (Enter /Applications/G16/g16/l1101.exe)
 Using compressed storage, NAtomX=     2.
 Will process      3 centers per pass.
 R6Disp: Adding Grimme-D3 dispersion energy 1st derivatives to the gradient.
 Leave Link 1101 at Thu Jun 20 17:20:39 2019, MaxMem=   104857600 cpu:               0.1 elap:               0.2
 (Enter /Applications/G16/g16/l1102.exe)
 Symmetrizing basis deriv contribution to polar:
 IMax=3 JMax=2 DiffMx= 0.00D+00
 Leave Link 1102 at Thu Jun 20 17:20:39 2019, MaxMem=   104857600 cpu:               0.0 elap:               0.1
 (Enter /Applications/G16/g16/l1110.exe)
 Forming Gx(P) for the SCF density, NAtomX=     2.
 Integral derivatives from FoFJK, PRISM(SPDF).
 Do as many integral derivatives as possible in FoFJK.
 G2DrvN: MDV=     104857332.
 G2DrvN: will do     3 centers at a time, making    1 passes.
 Calling FoFCou, ICntrl=  3107 FMM=F I1Cent=   0 AccDes= 0.00D+00.
 FoFJK:  IHMeth= 1 ICntrl=    3107 DoSepK=F KAlg= 0 I1Cent=           0 FoldK=F
 IRaf=         0 NMat=       1 IRICut=       1 DoRegI=T DoRafI=F ISym2E= 1 IDoP0=0 IntGTp=1.
 FoFCou: FMM=F IPFlag=           0 FMFlag=      100000 FMFlg1=           0
         NFxFlg=           0 DoJE=F BraDBF=F KetDBF=F FulRan=T
         wScrn=  0.000000 ICntrl=      3107 IOpCl=  0 I1Cent=           0 NGrid=           0
         NMat0=    1 NMatS0=      1 NMatT0=    0 NMatD0=    1 NMtDS0=    0 NMtDT0=    0
 Petite list used in FoFCou.
 NEqPCM:  Using equilibrium solvation (IEInf=0, Eps=  35.6880, EpsInf=   1.8069)
 G2PCM: DoFxE=T DoFxN=T DoGrad=T DoDP/DQ/DG/TGxP=FFFF NFrqRd=   0 IEInf=0 SqF1=F DoCFld=F IF1Alg=4.
 GePol: Maximum number of non-zero 1st derivatives   =     245
 End of G2Drv F.D. properties file   721 does not exist.
 End of G2Drv F.D. properties file   722 does not exist.
 End of G2Drv F.D. properties file   788 does not exist.
 Leave Link 1110 at Thu Jun 20 17:20:41 2019, MaxMem=   104857600 cpu:               1.5 elap:               1.7
 (Enter /Applications/G16/g16/l1002.exe)
 Minotr:  Closed shell wavefunction.
          IDoAtm=11
 NEqPCM:  Using equilibrium solvation (IEInf=0, Eps=  35.6880, EpsInf=   1.8069)
          Direct CPHF calculation.
          Differentiating once with respect to electric field.
                with respect to dipole field.
          Differentiating once with respect to nuclear coordinates.
          Using symmetry in CPHF.
          Requested convergence is 1.0D-08 RMS, and 1.0D-07 maximum.
          Secondary convergence is 1.0D-12 RMS, and 1.0D-12 maximum.
          NewPWx=T KeepS1=F KeepF1=F KeepIn=T MapXYZ=F SortEE=F KeepMc=T.
          569 words used for storage of precomputed grid.
 Keep R1 ints in memory in symmetry-blocked form, NReq=2009494.
 FoFCou: FMM=F IPFlag=           0 FMFlag=           0 FMFlg1=           0
         NFxFlg=           0 DoJE=F BraDBF=F KetDBF=F FulRan=T
         wScrn=  0.000000 ICntrl=       600 IOpCl=  0 I1Cent=           0 NGrid=           0
         NMat0=    1 NMatS0=    465 NMatT0=    0 NMatD0=    1 NMtDS0=    0 NMtDT0=    0
 Petite list used in FoFCou.
          MDV=     104857600 using IRadAn=       1.
          Solving linear equations simultaneously, MaxMat=       0.
          There are     6 degrees of freedom in the 1st order CPHF.  IDoFFX=4 NUNeed=     6.
      6 vectors produced by pass  0 Test12= 2.68D-15 1.67D-08 XBig12= 1.39D+01 2.49D+00.
 AX will form     6 AO Fock derivatives at one time.
      6 vectors produced by pass  1 Test12= 2.68D-15 1.67D-08 XBig12= 8.89D+00 1.63D+00.
      6 vectors produced by pass  2 Test12= 2.68D-15 1.67D-08 XBig12= 3.61D-02 7.70D-02.
      6 vectors produced by pass  3 Test12= 2.68D-15 1.67D-08 XBig12= 1.58D-04 5.15D-03.
      6 vectors produced by pass  4 Test12= 2.68D-15 1.67D-08 XBig12= 2.72D-07 2.13D-04.
      4 vectors produced by pass  5 Test12= 2.68D-15 1.67D-08 XBig12= 1.82D-10 6.35D-06.
      1 vectors produced by pass  6 Test12= 2.68D-15 1.67D-08 XBig12= 5.03D-13 2.91D-07.
 InvSVY:  IOpt=1 It=  1 EMax= 2.52D-16
 Solved reduced A of dimension    35 with     6 vectors.
 FullF1:  Do perturbations      1 to       6.
 Isotropic polarizability for W=    0.000000        9.61 Bohr**3.
 End of Minotr F.D. properties file   721 does not exist.
 End of Minotr F.D. properties file   722 does not exist.
 End of Minotr F.D. properties file   788 does not exist.
 Leave Link 1002 at Thu Jun 20 17:20:42 2019, MaxMem=   104857600 cpu:               1.3 elap:               1.5
 (Enter /Applications/G16/g16/l601.exe)
 Copying SCF densities to generalized density rwf, IOpCl= 0 IROHF=0.

 **********************************************************************

            Population analysis using the SCF density.

 **********************************************************************

 Orbital symmetries:
       Occupied  (SGG) (SGU) (SGG) (SGU) (PIU) (PIU) (SGG)
       Virtual   (PIG) (PIG) (SGU) (SGG) (PIU) (PIU) (SGG) (PIG)
                 (PIG) (SGU) (SGU) (DLTG) (DLTG) (PIU) (PIU) (DLTU)
                 (DLTU) (SGG) (PIG) (PIG) (SGU) (SGG) (SGU)
 The electronic state is 1-SGG.
 Alpha  occ. eigenvalues --  -14.44528 -14.44363  -1.12193  -0.55248  -0.46038
 Alpha  occ. eigenvalues --   -0.46038  -0.42624
 Alpha virt. eigenvalues --   -0.02250  -0.02250   0.41149   0.59236   0.60851
 Alpha virt. eigenvalues --    0.60851   0.64056   0.75250   0.75250   0.78653
 Alpha virt. eigenvalues --    1.24054   1.45194   1.45194   1.54965   1.54965
 Alpha virt. eigenvalues --    1.94106   1.94106   2.40626   2.59508   2.59508
 Alpha virt. eigenvalues --    2.81753   3.29093   3.58993
          Condensed to atoms (all electrons):
               1          2
     1  N    6.433433   0.566567
     2  N    0.566567   6.433433
 Mulliken charges:
               1
     1  N    0.000000
     2  N    0.000000
 Sum of Mulliken charges =   0.00000
 Mulliken charges with hydrogens summed into heavy atoms:
               1
     1  N    0.000000
     2  N    0.000000
 APT charges:
               1
     1  N   -0.000000
     2  N   -0.000000
 Sum of APT charges =  -0.00000
 APT charges with hydrogens summed into heavy atoms:
               1
     1  N   -0.000000
     2  N   -0.000000
 Electronic spatial extent (au):  <R**2>=             38.8620
 Charge=              0.0000 electrons
 Dipole moment (field-independent basis, Debye):
    X=              0.0000    Y=              0.0000    Z=             -0.0000  Tot=              0.0000
 Quadrupole moment (field-independent basis, Debye-Ang):
   XX=            -10.0425   YY=            -10.0425   ZZ=            -11.6488
   XY=             -0.0000   XZ=              0.0000   YZ=              0.0000
 Traceless Quadrupole moment (field-independent basis, Debye-Ang):
   XX=              0.5354   YY=              0.5354   ZZ=             -1.0709
   XY=             -0.0000   XZ=              0.0000   YZ=              0.0000
 Octapole moment (field-independent basis, Debye-Ang**2):
  XXX=             -0.0000  YYY=             -0.0000  ZZZ=              0.0000  XYY=             -0.0000
  XXY=             -0.0000  XXZ=              0.0000  XZZ=             -0.0000  YZZ=             -0.0000
  YYZ=              0.0000  XYZ=              0.0000
 Hexadecapole moment (field-independent basis, Debye-Ang**3):
 XXXX=             -7.9950 YYYY=             -7.9950 ZZZZ=            -30.6923 XXXY=             -0.0000
 XXXZ=              0.0000 YYYX=             -0.0000 YYYZ=              0.0000 ZZZX=              0.0000
 ZZZY=              0.0000 XXYY=             -2.6650 XXZZ=             -6.0770 YYZZ=             -6.0770
 XXYZ=              0.0000 YYXZ=              0.0000 ZZXY=             -0.0000
 N-N= 2.345999174741D+01 E-N=-3.026342553400D+02  KE= 1.084704390470D+02
 Symmetry AG   KE= 5.302273818529D+01
 Symmetry B1G  KE= 2.664918068600D-32
 Symmetry B2G  KE= 6.116591749357D-31
 Symmetry B3G  KE= 2.095813816465D-31
 Symmetry AU   KE= 3.550244931541D-32
 Symmetry B1U  KE= 4.865079993083D+01
 Symmetry B2U  KE= 3.398450465437D+00
 Symmetry B3U  KE= 3.398450465437D+00
  Exact polarizability:   6.685   0.000   6.685  -0.000   0.000  15.469
 Approx polarizability:   8.389  -0.000   8.389  -0.000   0.000  27.370
 No NMR shielding tensors so no spin-rotation constants.
 Leave Link  601 at Thu Jun 20 17:20:42 2019, MaxMem=   104857600 cpu:               0.1 elap:               0.1
 (Enter /Applications/G16/g16/l701.exe)
 ... and contract with generalized density number  0.
 Compute integral second derivatives.
 R6Disp: Adding Grimme-D3 dispersion energy 2nd derivatives to the Hessian.
 D2PCM: PCM CHGder 2nd derivatives, FixD1E=F FixD2E=F DoIter=F DoCFld=F I1PDM=0
 GePol: Maximum number of non-zero 2nd derivatives   =     245
 Leave Link  701 at Thu Jun 20 17:20:44 2019, MaxMem=   104857600 cpu:               1.2 elap:               1.3
 (Enter /Applications/G16/g16/l702.exe)
 L702 exits ... SP integral derivatives will be done elsewhere.
 Leave Link  702 at Thu Jun 20 17:20:44 2019, MaxMem=   104857600 cpu:               0.0 elap:               0.0
 (Enter /Applications/G16/g16/l703.exe)
 Integral derivatives from FoFJK, PRISM(SPDF).
 Compute integral second derivatives, UseDBF=F ICtDFT=           0.
 Calling FoFJK, ICntrl=    100127 FMM=F ISym2X=1 I1Cent= 0 IOpClX= 0 NMat=1 NMatS=1 NMatT=0.
 FoFJK:  IHMeth= 1 ICntrl=  100127 DoSepK=F KAlg= 0 I1Cent=           0 FoldK=F
 IRaf=         0 NMat=       1 IRICut=       1 DoRegI=T DoRafI=F ISym2E= 1 IDoP0=0 IntGTp=1.
 FoFCou: FMM=F IPFlag=           0 FMFlag=      100000 FMFlg1=         800
         NFxFlg=           0 DoJE=F BraDBF=F KetDBF=F FulRan=T
         wScrn=  0.000000 ICntrl=    100127 IOpCl=  0 I1Cent=           0 NGrid=           0
         NMat0=    1 NMatS0=      1 NMatT0=    0 NMatD0=    1 NMtDS0=    0 NMtDT0=    0
 Petite list used in FoFCou.
 Leave Link  703 at Thu Jun 20 17:20:44 2019, MaxMem=   104857600 cpu:               0.4 elap:               0.4
 (Enter /Applications/G16/g16/l716.exe)
 Dipole        = 3.94430453D-31 3.94430453D-31-4.44089210D-16
 Polarizability= 6.68477292D+00 8.06982075D-16 6.68477292D+00
                -2.14357050D-14 1.96900950D-13 1.54690621D+01
 Full mass-weighted force constant matrix:
 Low frequencies ---  -21.9601  -21.9601   -0.0018   -0.0016   -0.0015 2458.9796
 Diagonal vibrational polarizability:
        0.0000000       0.0000000       0.0000000
 Harmonic frequencies (cm**-1), IR intensities (KM/Mole), Raman scattering
 activities (A**4/AMU), depolarization ratios for plane and unpolarized
 incident light, reduced masses (AMU), force constants (mDyne/A),
 and normal coordinates:
                      1
                     SGG
 Frequencies --   2458.9796
 Red. masses --     14.0031
 Frc consts  --     49.8865
 IR Inten    --      0.0000
  Atom  AN      X      Y      Z
     1   7    -0.00   0.00   0.71
     2   7     0.00   0.00  -0.71

 -------------------
 - Thermochemistry -
 -------------------
 Temperature   298.150 Kelvin.  Pressure   1.00000 Atm.
 Atom     1 has atomic number  7 and mass  14.00307
 Atom     2 has atomic number  7 and mass  14.00307
 Molecular mass:    28.00615 amu.
 Principal axes and moments of inertia in atomic units:
                           1         2         3
     Eigenvalues --     0.00000  30.54428  30.54428
           X           -0.00000   1.00000  -0.00000
           Y            0.00000   0.00000   1.00000
           Z            1.00000   0.00000  -0.00000
 This molecule is a prolate symmetric top.
 Rotational symmetry number  2.
 Rotational temperature (Kelvin)      2.83568
 Rotational constant (GHZ):          59.086071
 Zero-point vibrational energy      14708.0 (Joules/Mol)
                                    3.51529 (Kcal/Mol)
 Vibrational temperatures:   3537.92
          (Kelvin)
 
 Zero-point correction=                           0.005602 (Hartree/Particle)
 Thermal correction to Energy=                    0.007963
 Thermal correction to Enthalpy=                  0.008907
 Thermal correction to Gibbs Free Energy=        -0.012847
 Sum of electronic and zero-point Energies=           -109.518928
 Sum of electronic and thermal Energies=              -109.516567
 Sum of electronic and thermal Enthalpies=            -109.515623
 Sum of electronic and thermal Free Energies=         -109.537377
 
                     E (Thermal)             CV                S
                      KCal/Mol        Cal/Mol-Kelvin    Cal/Mol-Kelvin
 Total                    4.997              4.970             45.785
 Electronic               0.000              0.000              0.000
 Translational            0.889              2.981             35.924
 Rotational               0.592              1.987              9.861
 Vibrational              3.515              0.002              0.000
                       Q            Log10(Q)             Ln(Q)
 Total Bot       0.811633D+06          5.909360         13.606804
 Total V=0       0.306256D+09          8.486084         19.539930
 Vib (Bot)       0.265020D-02         -2.576721         -5.933119
 Vib (V=0)       0.100001D+01          0.000003          0.000007
 Electronic      0.100000D+01          0.000000          0.000000
 Translational   0.582551D+07          6.765334         15.577757
 Rotational      0.525711D+02          1.720747          3.962166
 ***** Axes restored to original set *****
 -------------------------------------------------------------------
 Center     Atomic                   Forces (Hartrees/Bohr)
 Number     Number              X              Y              Z
 -------------------------------------------------------------------
      1        7          -0.000000008   -0.000000011   -0.000000020
      2        7           0.000000008    0.000000011    0.000000020
 -------------------------------------------------------------------
 Cartesian Forces:  Max     0.000000020 RMS     0.000000014
 Force constants in Cartesian coordinates: 
                1             2             3             4             5 
      1  0.177906D+00
      2  0.251771D+00  0.355920D+00
      3  0.436084D+00  0.616699D+00  0.106804D+01
      4 -0.177906D+00 -0.251771D+00 -0.436084D+00  0.177906D+00
      5 -0.251771D+00 -0.355920D+00 -0.616699D+00  0.251771D+00  0.355920D+00
      6 -0.436084D+00 -0.616699D+00 -0.106804D+01  0.436084D+00  0.616699D+00
                6 
      6  0.106804D+01
 FormGI is forming the generalized inverse of G from B-inverse, IUseBI=4.
 Force constants in internal coordinates: 
                1 
      1  0.160212D+01
 Leave Link  716 at Thu Jun 20 17:20:44 2019, MaxMem=   104857600 cpu:               0.0 elap:               0.1
 (Enter /Applications/G16/g16/l103.exe)

 GradGradGradGradGradGradGradGradGradGradGradGradGradGradGradGradGradGrad
 Berny optimization.
 Red2BG is reusing G-inverse.
 Internal  Forces:  Max     0.000000024 RMS     0.000000024
 Search for a local minimum.
 Step number   1 out of a maximum of    2
 All quantities printed in internal units (Hartrees-Bohrs-Radians)
 Second derivative matrix not updated -- analytic derivatives used.
 The second derivative matrix:
                          R1
           R1           1.60212
 ITU=  0
     Eigenvalues ---    1.60212
 Angle between quadratic step and forces=  90.00 degrees.
 Linear search not attempted -- first point.
 Iteration  1 RMS(Cart)=  0.00000001 RMS(Int)=  0.00000000
 ITry= 1 IFail=0 DXMaxC= 6.13D-09 DCOld= 1.00D+10 DXMaxT= 3.00D-01 DXLimC= 3.00D+00 Rises=F
 ClnCor:  largest displacement from symmetrization is 8.31D-16 for atom     2.
 Variable       Old X    -DE/DX   Delta X   Delta X   Delta X     New X
                                 (Linear)    (Quad)   (Total)
    R1        2.08866   0.00000   0.00000   0.00000   0.00000   2.08866
         Item               Value     Threshold  Converged?
 Maximum Force            0.000000     0.000450     YES
 RMS     Force            0.000000     0.000300     YES
 Maximum Displacement     0.000000     0.001800     YES
 RMS     Displacement     0.000000     0.001200     YES
 Predicted change in Energy=-1.803745D-16
 Optimization completed.
    -- Stationary point found.
                           ----------------------------
                           !   Optimized Parameters   !
                           ! (Angstroms and Degrees)  !
 --------------------------                            --------------------------
 ! Name  Definition              Value          Derivative Info.                !
 --------------------------------------------------------------------------------
 ! R1    R(1,2)                  1.1053         -DE/DX =    0.0                 !
 --------------------------------------------------------------------------------
 GradGradGradGradGradGradGradGradGradGradGradGradGradGradGradGradGradGrad

 Leave Link  103 at Thu Jun 20 17:20:44 2019, MaxMem=   104857600 cpu:               0.0 elap:               0.0
 (Enter /Applications/G16/g16/l9999.exe)
 Dipole is zero, so no output in dipole orientation.

 ----------------------------------------------------------------------

 Electric dipole moment (input orientation):
 (Debye = 10**-18 statcoulomb cm , SI units = C m)
                  (au)            (Debye)         (10**-30 SI)
   Tot        0.000000D+00      0.000000D+00      0.000000D+00
   x          0.000000D+00      0.000000D+00      0.000000D+00
   y          0.000000D+00      0.000000D+00      0.000000D+00
   z          0.000000D+00      0.000000D+00      0.000000D+00

 Dipole polarizability, Alpha (input orientation).
 (esu units = cm**3 , SI units = C**2 m**2 J**-1)
 Alpha(0;0):
               (au)            (10**-24 esu)      (10**-40 SI)
   iso        0.961287D+01      0.142448D+01      0.158495D+01
   aniso      0.878429D+01      0.130170D+01      0.144833D+01
   xx         0.766084D+01      0.113522D+01      0.126310D+01
   yx         0.138033D+01      0.204544D+00      0.227586D+00
   yy         0.863680D+01      0.127984D+01      0.142402D+01
   zx         0.239082D+01      0.354283D+00      0.394193D+00
   zy         0.338104D+01      0.501019D+00      0.557459D+00
   zz         0.125410D+02      0.185838D+01      0.206773D+01

 ----------------------------------------------------------------------
 1\1\GINC-RUSTAMS-MACBOOK-AIR\Freq\RB3LYP\6-31G(d,p)\N2\RUSTAM\20-Jun-2
 019\0\\#P Geom=AllCheck Guess=TCheck SCRF=Check GenChk RB3LYP/6-31G(d,
 p) Freq\\Title Card Required\\0,1\N,0.198493186,-0.8267590932,0.120322
 0359\N,0.566923714,-0.3057334568,1.0227733941\\Version=EM64M-G16RevA.0
 3\State=1-SGG\HF=-109.5245299\RMSD=0.000e+00\RMSF=1.388e-08\ZeroPoint=
 0.005602\Thermal=0.0079625\Dipole=0.,0.,0.\DipoleDeriv=0.,0.,0.,0.,0.,
 0.,0.,0.,0.,0.,0.,0.,0.,0.,0.,0.,0.,0.\Polar=7.6608388,1.380329,8.6368
 012,2.3908225,3.381044,12.5409679\Quadrupole=0.2653823,0.1326983,-0.39
 80806,-0.1876584,-0.3250369,-0.4596594\PG=D*H [C*(N1.N1)]\NImag=0\\0.1
 7790576,0.25177078,0.35592043,0.43608387,0.61669938,1.06803692,-0.1779
 0576,-0.25177078,-0.43608387,0.17790576,-0.25177078,-0.35592043,-0.616
 69938,0.25177078,0.35592043,-0.43608387,-0.61669938,-1.06803692,0.4360
 8387,0.61669938,1.06803692\\0.,0.00000001,0.00000002,0.,-0.00000001,-0
 .00000002\\\@


 Standing in the middle of the road is very dangerous;
 you get knocked down by the traffic from both sides.
                                -- Margaret Thatcher
 Job cpu time:       0 days  0 hours  0 minutes  6.3 seconds.
 Elapsed time:       0 days  0 hours  0 minutes  6.7 seconds.
 File lengths (MBytes):  RWF=     10 Int=      0 D2E=      0 Chk=      2 Scr=      1
 Normal termination of Gaussian 16 at Thu Jun 20 17:20:44 2019.
