 Entering Gaussian System, Link 0=g16
 Initial command:
 /project/6004141/group/g16/g16/l1.exe "/scratch/rzk/Gau-92881.inp" -scrdir="/scratch/rzk/"
 Entering Link 1 = /project/6004141/group/g16/g16/l1.exe PID=     92883.
  
 Copyright (c) 1988,1990,1992,1993,1995,1998,2003,2009,2016,
            Gaussian, Inc.  All Rights Reserved.
  
 This is part of the Gaussian(R) 16 program.  It is based on
 the Gaussian(R) 09 system (copyright 2009, Gaussian, Inc.),
 the Gaussian(R) 03 system (copyright 2003, Gaussian, Inc.),
 the Gaussian(R) 98 system (copyright 1998, Gaussian, Inc.),
 the Gaussian(R) 94 system (copyright 1995, Gaussian, Inc.),
 the Gaussian 92(TM) system (copyright 1992, Gaussian, Inc.),
 the Gaussian 90(TM) system (copyright 1990, Gaussian, Inc.),
 the Gaussian 88(TM) system (copyright 1988, Gaussian, Inc.),
 the Gaussian 86(TM) system (copyright 1986, Carnegie Mellon
 University), and the Gaussian 82(TM) system (copyright 1983,
 Carnegie Mellon University). Gaussian is a federally registered
 trademark of Gaussian, Inc.
  
 This software contains proprietary and confidential information,
 including trade secrets, belonging to Gaussian, Inc.
  
 This software is provided under written license and may be
 used, copied, transmitted, or stored only in accord with that
 written license.
  
 The following legend is applicable only to US Government
 contracts under FAR:
  
                    RESTRICTED RIGHTS LEGEND
  
 Use, reproduction and disclosure by the US Government is
 subject to restrictions as set forth in subparagraphs (a)
 and (c) of the Commercial Computer Software - Restricted
 Rights clause in FAR 52.227-19.
  
 Gaussian, Inc.
 340 Quinnipiac St., Bldg. 40, Wallingford CT 06492
  
  
 ---------------------------------------------------------------
 Warning -- This program may not be used in any manner that
 competes with the business of Gaussian, Inc. or will provide
 assistance to any competitor of Gaussian, Inc.  The licensee
 of this program is prohibited from giving any competitor of
 Gaussian, Inc. access to this program.  By using this program,
 the user acknowledges that Gaussian, Inc. is engaged in the
 business of creating and licensing software in the field of
 computational chemistry and represents and warrants to the
 licensee that it is not a competitor of Gaussian, Inc. and that
 it will not use this program in any manner prohibited above.
 ---------------------------------------------------------------
  

 Cite this work as:
 Gaussian 16, Revision A.03,
 M. J. Frisch, G. W. Trucks, H. B. Schlegel, G. E. Scuseria, 
 M. A. Robb, J. R. Cheeseman, G. Scalmani, V. Barone, 
 G. A. Petersson, H. Nakatsuji, X. Li, M. Caricato, A. V. Marenich, 
 J. Bloino, B. G. Janesko, R. Gomperts, B. Mennucci, H. P. Hratchian, 
 J. V. Ortiz, A. F. Izmaylov, J. L. Sonnenberg, D. Williams-Young, 
 F. Ding, F. Lipparini, F. Egidi, J. Goings, B. Peng, A. Petrone, 
 T. Henderson, D. Ranasinghe, V. G. Zakrzewski, J. Gao, N. Rega, 
 G. Zheng, W. Liang, M. Hada, M. Ehara, K. Toyota, R. Fukuda, 
 J. Hasegawa, M. Ishida, T. Nakajima, Y. Honda, O. Kitao, H. Nakai, 
 T. Vreven, K. Throssell, J. A. Montgomery, Jr., J. E. Peralta, 
 F. Ogliaro, M. J. Bearpark, J. J. Heyd, E. N. Brothers, K. N. Kudin, 
 V. N. Staroverov, T. A. Keith, R. Kobayashi, J. Normand, 
 K. Raghavachari, A. P. Rendell, J. C. Burant, S. S. Iyengar, 
 J. Tomasi, M. Cossi, J. M. Millam, M. Klene, C. Adamo, R. Cammi, 
 J. W. Ochterski, R. L. Martin, K. Morokuma, O. Farkas, 
 J. B. Foresman, and D. J. Fox, Gaussian, Inc., Wallingford CT, 2016.
 
 ******************************************
 Gaussian 16:  ES64L-G16RevA.03 25-Dec-2016
                11-Jun-2019 
 ******************************************
 %NProcShared=40
 Will use up to   40 processors via shared memory.
 %chk=AABH.chk
 ----------------------------------------------------------------------
 #p opt ub3lyp/6-31g(d,p) scrf=(iefpcm,solvent=acetonitrile) guess=(mix
 ,always) empiricaldispersion=gd3
 ----------------------------------------------------------------------
 1/18=20,19=15,26=3,38=1/1,3;
 2/9=110,12=2,17=6,18=5,40=1/2;
 3/5=1,6=6,7=101,11=2,25=1,30=1,70=2201,71=1,72=2,74=-5,116=2,124=31/1,2,3;
 4/13=-1/1;
 5/5=2,38=5,53=2/2;
 6/7=2,8=2,9=2,10=2,28=1/1;
 7//1,2,3,16;
 1/18=20,19=15,26=3/3(2);
 2/9=110/2;
 99//99;
 2/9=110/2;
 3/5=1,6=6,7=101,11=2,25=1,30=1,70=2205,71=1,72=2,74=-5,116=2,124=31/1,2,3;
 4/13=-1/1;
 5/5=2,38=5,53=2/2;
 7//1,2,3,16;
 1/18=20,19=15,26=3/3(-5);
 2/9=110/2;
 6/7=2,8=2,9=2,10=2,19=2,28=1/1;
 99/9=1/99;
 Leave Link    1 at Tue Jun 11 16:39:09 2019, MaxMem=           0 cpu:              13.8 elap:               0.4
 (Enter /project/6004141/group/g16/g16/l101.exe)
 -------------------
 Title Card Required
 -------------------
 Symbolic Z-matrix:
 Charge =  0 Multiplicity = 1
 C                     1.07772  -1.31317  -0.72717 
 H                     4.19656  -0.37166   1.23864 
 C                     1.0186    1.29174   0.78828 
 O                     1.9322    1.82668   0.06948 
 O                     1.97624  -1.83483   0.1161 
 N                     4.03737   0.72135  -0.31226 
 H                     4.09154   0.62556  -1.32894 
 N                     4.25915  -0.50505   0.22054 
 H                     2.89299  -1.45554  -0.00919 
 H                     2.95099   1.37672   0.02809 
 C                     1.55816  -0.63958  -1.97766 
 H                     0.9123   -0.87477  -2.82681 
 H                     1.58767   0.45245  -1.87461 
 H                     2.56773  -0.98053  -2.2183 
 C                     1.37919   0.52558   2.02619 
 H                     1.04418   1.08526   2.90702 
 H                     0.89024  -0.45147   2.04548 
 H                     2.45586   0.38465   2.09254 
 C                    -0.29757  -1.59309  -0.45154 
 C                    -0.66694  -2.32173   0.71291 
 C                    -1.34042  -1.13696  -1.30251 
 C                    -2.00113  -2.58857   0.99319 
 H                     0.11192  -2.68541   1.37314 
 C                    -2.66859  -1.41202  -1.00979 
 H                    -1.10577  -0.54684  -2.18044 
 C                    -3.01341  -2.1432    0.13405 
 H                    -2.25686  -3.15208   1.88612 
 H                    -3.44642  -1.04398  -1.67211 
 H                    -4.05471  -2.35382   0.35697 
 C                    -0.37015   1.57041   0.45503 
 C                    -0.6782    2.28954  -0.72061 
 C                    -1.42613   1.13348   1.28246 
 C                    -1.99889   2.56926  -1.04906 
 H                     0.13142   2.62376  -1.35904 
 C                    -2.74468   1.42342   0.94995 
 H                    -1.21976   0.56258   2.1794 
 C                    -3.03647   2.14334  -0.21176 
 H                    -2.22378   3.12234  -1.95567 
 H                    -3.54818   1.07807   1.59215 
 H                    -4.06768   2.36519  -0.4687 
 
 Add virtual bond connecting atoms H10        and N6         Dist= 2.48D+00.
 Add virtual bond connecting atoms H9         and N8         Dist= 3.17D+00.
 ITRead=  0  0  0  0  0  0  0  0  0  0  0  0  0  0  0  0  0  0  0  0
 ITRead=  0  0  0  0  0  0  0  0  0  0  0  0  0  0  0  0  0  0  0  0
 MicOpt= -1 -1 -1 -1 -1 -1 -1 -1 -1 -1 -1 -1 -1 -1 -1 -1 -1 -1 -1 -1
 MicOpt= -1 -1 -1 -1 -1 -1 -1 -1 -1 -1 -1 -1 -1 -1 -1 -1 -1 -1 -1 -1
 NAtoms=     40 NQM=       40 NQMF=       0 NMMI=      0 NMMIF=      0
                NMic=       0 NMicF=      0.
                    Isotopes and Nuclear Properties:
 (Nuclear quadrupole moments (NQMom) in fm**2, nuclear magnetic moments (NMagM)
  in nuclear magnetons)

  Atom         1           2           3           4           5           6           7           8           9          10
 IAtWgt=          12           1          12          16          16          14           1          14           1           1
 AtmWgt=  12.0000000   1.0078250  12.0000000  15.9949146  15.9949146  14.0030740   1.0078250  14.0030740   1.0078250   1.0078250
 NucSpn=           0           1           0           0           0           2           1           2           1           1
 AtZEff=  -0.0000000  -0.0000000  -0.0000000  -0.0000000  -0.0000000  -0.0000000  -0.0000000  -0.0000000  -0.0000000  -0.0000000
 NQMom=    0.0000000   0.0000000   0.0000000   0.0000000   0.0000000   2.0440000   0.0000000   2.0440000   0.0000000   0.0000000
 NMagM=    0.0000000   2.7928460   0.0000000   0.0000000   0.0000000   0.4037610   2.7928460   0.4037610   2.7928460   2.7928460
 AtZNuc=   6.0000000   1.0000000   6.0000000   8.0000000   8.0000000   7.0000000   1.0000000   7.0000000   1.0000000   1.0000000

  Atom        11          12          13          14          15          16          17          18          19          20
 IAtWgt=          12           1           1           1          12           1           1           1          12          12
 AtmWgt=  12.0000000   1.0078250   1.0078250   1.0078250  12.0000000   1.0078250   1.0078250   1.0078250  12.0000000  12.0000000
 NucSpn=           0           1           1           1           0           1           1           1           0           0
 AtZEff=  -0.0000000  -0.0000000  -0.0000000  -0.0000000  -0.0000000  -0.0000000  -0.0000000  -0.0000000  -0.0000000  -0.0000000
 NQMom=    0.0000000   0.0000000   0.0000000   0.0000000   0.0000000   0.0000000   0.0000000   0.0000000   0.0000000   0.0000000
 NMagM=    0.0000000   2.7928460   2.7928460   2.7928460   0.0000000   2.7928460   2.7928460   2.7928460   0.0000000   0.0000000
 AtZNuc=   6.0000000   1.0000000   1.0000000   1.0000000   6.0000000   1.0000000   1.0000000   1.0000000   6.0000000   6.0000000

  Atom        21          22          23          24          25          26          27          28          29          30
 IAtWgt=          12          12           1          12           1          12           1           1           1          12
 AtmWgt=  12.0000000  12.0000000   1.0078250  12.0000000   1.0078250  12.0000000   1.0078250   1.0078250   1.0078250  12.0000000
 NucSpn=           0           0           1           0           1           0           1           1           1           0
 AtZEff=  -0.0000000  -0.0000000  -0.0000000  -0.0000000  -0.0000000  -0.0000000  -0.0000000  -0.0000000  -0.0000000  -0.0000000
 NQMom=    0.0000000   0.0000000   0.0000000   0.0000000   0.0000000   0.0000000   0.0000000   0.0000000   0.0000000   0.0000000
 NMagM=    0.0000000   0.0000000   2.7928460   0.0000000   2.7928460   0.0000000   2.7928460   2.7928460   2.7928460   0.0000000
 AtZNuc=   6.0000000   6.0000000   1.0000000   6.0000000   1.0000000   6.0000000   1.0000000   1.0000000   1.0000000   6.0000000

  Atom        31          32          33          34          35          36          37          38          39          40
 IAtWgt=          12          12          12           1          12           1          12           1           1           1
 AtmWgt=  12.0000000  12.0000000  12.0000000   1.0078250  12.0000000   1.0078250  12.0000000   1.0078250   1.0078250   1.0078250
 NucSpn=           0           0           0           1           0           1           0           1           1           1
 AtZEff=  -0.0000000  -0.0000000  -0.0000000  -0.0000000  -0.0000000  -0.0000000  -0.0000000  -0.0000000  -0.0000000  -0.0000000
 NQMom=    0.0000000   0.0000000   0.0000000   0.0000000   0.0000000   0.0000000   0.0000000   0.0000000   0.0000000   0.0000000
 NMagM=    0.0000000   0.0000000   0.0000000   2.7928460   0.0000000   2.7928460   0.0000000   2.7928460   2.7928460   2.7928460
 AtZNuc=   6.0000000   6.0000000   6.0000000   1.0000000   6.0000000   1.0000000   6.0000000   1.0000000   1.0000000   1.0000000
 Leave Link  101 at Tue Jun 11 16:39:10 2019, MaxMem=   104857600 cpu:               9.1 elap:               0.3
 (Enter /project/6004141/group/g16/g16/l103.exe)

 GradGradGradGradGradGradGradGradGradGradGradGradGradGradGradGradGradGrad
 Berny optimization.
 Initialization pass.
                           ----------------------------
                           !    Initial Parameters    !
                           ! (Angstroms and Degrees)  !
 --------------------------                            --------------------------
 ! Name  Definition              Value          Derivative Info.                !
 --------------------------------------------------------------------------------
 ! R1    R(1,5)                  1.3381         estimate D2E/DX2                !
 ! R2    R(1,11)                 1.4994         estimate D2E/DX2                !
 ! R3    R(1,19)                 1.4303         estimate D2E/DX2                !
 ! R4    R(2,8)                  1.0287         estimate D2E/DX2                !
 ! R5    R(3,4)                  1.2796         estimate D2E/DX2                !
 ! R6    R(3,15)                 1.4998         estimate D2E/DX2                !
 ! R7    R(3,30)                 1.4551         estimate D2E/DX2                !
 ! R8    R(4,10)                 1.1145         estimate D2E/DX2                !
 ! R9    R(5,9)                  1.0            estimate D2E/DX2                !
 ! R10   R(6,7)                  1.0226         estimate D2E/DX2                !
 ! R11   R(6,8)                  1.3554         estimate D2E/DX2                !
 ! R12   R(6,10)                 1.3136         estimate D2E/DX2                !
 ! R13   R(8,9)                  1.6801         estimate D2E/DX2                !
 ! R14   R(11,12)                1.0925         estimate D2E/DX2                !
 ! R15   R(11,13)                1.0973         estimate D2E/DX2                !
 ! R16   R(11,14)                1.0924         estimate D2E/DX2                !
 ! R17   R(15,16)                1.0961         estimate D2E/DX2                !
 ! R18   R(15,17)                1.0927         estimate D2E/DX2                !
 ! R19   R(15,18)                1.0879         estimate D2E/DX2                !
 ! R20   R(19,20)                1.4224         estimate D2E/DX2                !
 ! R21   R(19,21)                1.4212         estimate D2E/DX2                !
 ! R22   R(20,22)                1.3892         estimate D2E/DX2                !
 ! R23   R(20,23)                1.0839         estimate D2E/DX2                !
 ! R24   R(21,24)                1.3876         estimate D2E/DX2                !
 ! R25   R(21,25)                1.0835         estimate D2E/DX2                !
 ! R26   R(22,26)                1.4004         estimate D2E/DX2                !
 ! R27   R(22,27)                1.0864         estimate D2E/DX2                !
 ! R28   R(24,26)                1.4007         estimate D2E/DX2                !
 ! R29   R(24,28)                1.0859         estimate D2E/DX2                !
 ! R30   R(26,29)                1.0855         estimate D2E/DX2                !
 ! R31   R(30,31)                1.4121         estimate D2E/DX2                !
 ! R32   R(30,32)                1.4109         estimate D2E/DX2                !
 ! R33   R(31,33)                1.3894         estimate D2E/DX2                !
 ! R34   R(31,34)                1.0839         estimate D2E/DX2                !
 ! R35   R(32,35)                1.3904         estimate D2E/DX2                !
 ! R36   R(32,36)                1.0831         estimate D2E/DX2                !
 ! R37   R(33,37)                1.3997         estimate D2E/DX2                !
 ! R38   R(33,38)                1.0856         estimate D2E/DX2                !
 ! R39   R(35,37)                1.3975         estimate D2E/DX2                !
 ! R40   R(35,39)                1.085          estimate D2E/DX2                !
 ! R41   R(37,40)                1.0856         estimate D2E/DX2                !
 ! A1    A(5,1,11)             119.0483         estimate D2E/DX2                !
 ! A2    A(5,1,19)             116.6103         estimate D2E/DX2                !
 ! A3    A(11,1,19)            123.8292         estimate D2E/DX2                !
 ! A4    A(4,3,15)             120.3661         estimate D2E/DX2                !
 ! A5    A(4,3,30)             118.2089         estimate D2E/DX2                !
 ! A6    A(15,3,30)            121.0855         estimate D2E/DX2                !
 ! A7    A(3,4,10)             120.3134         estimate D2E/DX2                !
 ! A8    A(1,5,9)              112.877          estimate D2E/DX2                !
 ! A9    A(7,6,8)              107.3007         estimate D2E/DX2                !
 ! A10   A(7,6,10)             110.3727         estimate D2E/DX2                !
 ! A11   A(8,6,10)             119.0056         estimate D2E/DX2                !
 ! A12   A(2,8,6)              105.1745         estimate D2E/DX2                !
 ! A13   A(2,8,9)               99.1615         estimate D2E/DX2                !
 ! A14   A(6,8,9)              108.9717         estimate D2E/DX2                !
 ! A15   A(5,9,8)              160.548          estimate D2E/DX2                !
 ! A16   A(1,11,12)            111.2288         estimate D2E/DX2                !
 ! A17   A(1,11,13)            112.1713         estimate D2E/DX2                !
 ! A18   A(1,11,14)            109.8534         estimate D2E/DX2                !
 ! A19   A(12,11,13)           107.6467         estimate D2E/DX2                !
 ! A20   A(12,11,14)           107.9357         estimate D2E/DX2                !
 ! A21   A(13,11,14)           107.8449         estimate D2E/DX2                !
 ! A22   A(3,15,16)            109.2068         estimate D2E/DX2                !
 ! A23   A(3,15,17)            111.3305         estimate D2E/DX2                !
 ! A24   A(3,15,18)            110.7603         estimate D2E/DX2                !
 ! A25   A(16,15,17)           107.7949         estimate D2E/DX2                !
 ! A26   A(16,15,18)           108.6412         estimate D2E/DX2                !
 ! A27   A(17,15,18)           109.0223         estimate D2E/DX2                !
 ! A28   A(1,19,20)            120.5103         estimate D2E/DX2                !
 ! A29   A(1,19,21)            121.8287         estimate D2E/DX2                !
 ! A30   A(20,19,21)           117.6479         estimate D2E/DX2                !
 ! A31   A(19,20,22)           120.8611         estimate D2E/DX2                !
 ! A32   A(19,20,23)           118.9431         estimate D2E/DX2                !
 ! A33   A(22,20,23)           120.185          estimate D2E/DX2                !
 ! A34   A(19,21,24)           120.8269         estimate D2E/DX2                !
 ! A35   A(19,21,25)           120.0683         estimate D2E/DX2                !
 ! A36   A(24,21,25)           119.0894         estimate D2E/DX2                !
 ! A37   A(20,22,26)           120.6216         estimate D2E/DX2                !
 ! A38   A(20,22,27)           119.4417         estimate D2E/DX2                !
 ! A39   A(26,22,27)           119.9362         estimate D2E/DX2                !
 ! A40   A(21,24,26)           120.7566         estimate D2E/DX2                !
 ! A41   A(21,24,28)           119.3269         estimate D2E/DX2                !
 ! A42   A(26,24,28)           119.9126         estimate D2E/DX2                !
 ! A43   A(22,26,24)           119.2784         estimate D2E/DX2                !
 ! A44   A(22,26,29)           120.3782         estimate D2E/DX2                !
 ! A45   A(24,26,29)           120.3408         estimate D2E/DX2                !
 ! A46   A(3,30,31)            119.7609         estimate D2E/DX2                !
 ! A47   A(3,30,32)            121.3785         estimate D2E/DX2                !
 ! A48   A(31,30,32)           118.8604         estimate D2E/DX2                !
 ! A49   A(30,31,33)           120.4433         estimate D2E/DX2                !
 ! A50   A(30,31,34)           118.9773         estimate D2E/DX2                !
 ! A51   A(33,31,34)           120.5787         estimate D2E/DX2                !
 ! A52   A(30,32,35)           120.3272         estimate D2E/DX2                !
 ! A53   A(30,32,36)           120.4185         estimate D2E/DX2                !
 ! A54   A(35,32,36)           119.2527         estimate D2E/DX2                !
 ! A55   A(31,33,37)           120.1315         estimate D2E/DX2                !
 ! A56   A(31,33,38)           119.7973         estimate D2E/DX2                !
 ! A57   A(37,33,38)           120.0709         estimate D2E/DX2                !
 ! A58   A(32,35,37)           120.2802         estimate D2E/DX2                !
 ! A59   A(32,35,39)           119.6269         estimate D2E/DX2                !
 ! A60   A(37,35,39)           120.0894         estimate D2E/DX2                !
 ! A61   A(33,37,35)           119.9512         estimate D2E/DX2                !
 ! A62   A(33,37,40)           120.025          estimate D2E/DX2                !
 ! A63   A(35,37,40)           120.022          estimate D2E/DX2                !
 ! A64   L(4,10,6,1,-1)        169.9499         estimate D2E/DX2                !
 ! A65   L(4,10,6,1,-2)        169.1441         estimate D2E/DX2                !
 ! D1    D(11,1,5,9)            19.8939         estimate D2E/DX2                !
 ! D2    D(19,1,5,9)          -167.9985         estimate D2E/DX2                !
 ! D3    D(5,1,11,12)          140.309          estimate D2E/DX2                !
 ! D4    D(5,1,11,13)          -99.0618         estimate D2E/DX2                !
 ! D5    D(5,1,11,14)           20.8695         estimate D2E/DX2                !
 ! D6    D(19,1,11,12)         -31.1922         estimate D2E/DX2                !
 ! D7    D(19,1,11,13)          89.437          estimate D2E/DX2                !
 ! D8    D(19,1,11,14)        -150.6317         estimate D2E/DX2                !
 ! D9    D(5,1,19,20)            3.7427         estimate D2E/DX2                !
 ! D10   D(5,1,19,21)         -177.6038         estimate D2E/DX2                !
 ! D11   D(11,1,19,20)         175.434          estimate D2E/DX2                !
 ! D12   D(11,1,19,21)          -5.9125         estimate D2E/DX2                !
 ! D13   D(15,3,4,10)           29.1501         estimate D2E/DX2                !
 ! D14   D(30,3,4,10)         -157.4674         estimate D2E/DX2                !
 ! D15   D(4,3,15,16)          110.8402         estimate D2E/DX2                !
 ! D16   D(4,3,15,17)         -130.2481         estimate D2E/DX2                !
 ! D17   D(4,3,15,18)           -8.7663         estimate D2E/DX2                !
 ! D18   D(30,3,15,16)         -62.3495         estimate D2E/DX2                !
 ! D19   D(30,3,15,17)          56.5622         estimate D2E/DX2                !
 ! D20   D(30,3,15,18)         178.044          estimate D2E/DX2                !
 ! D21   D(4,3,30,31)            6.9295         estimate D2E/DX2                !
 ! D22   D(4,3,30,32)         -173.2332         estimate D2E/DX2                !
 ! D23   D(15,3,30,31)        -179.7378         estimate D2E/DX2                !
 ! D24   D(15,3,30,32)           0.0995         estimate D2E/DX2                !
 ! D25   D(3,4,6,7)            121.2012         estimate D2E/DX2                !
 ! D26   D(3,4,6,8)              1.2687         estimate D2E/DX2                !
 ! D27   D(1,5,9,8)             98.4468         estimate D2E/DX2                !
 ! D28   D(7,6,8,2)           -179.9431         estimate D2E/DX2                !
 ! D29   D(7,6,8,9)            -74.4166         estimate D2E/DX2                !
 ! D30   D(10,6,8,2)           -53.8138         estimate D2E/DX2                !
 ! D31   D(10,6,8,9)            51.7127         estimate D2E/DX2                !
 ! D32   D(2,8,9,5)             31.3661         estimate D2E/DX2                !
 ! D33   D(6,8,9,5)            -78.256          estimate D2E/DX2                !
 ! D34   D(1,19,20,22)         179.4884         estimate D2E/DX2                !
 ! D35   D(1,19,20,23)          -1.7057         estimate D2E/DX2                !
 ! D36   D(21,19,20,22)          0.7799         estimate D2E/DX2                !
 ! D37   D(21,19,20,23)        179.5858         estimate D2E/DX2                !
 ! D38   D(1,19,21,24)        -179.5127         estimate D2E/DX2                !
 ! D39   D(1,19,21,25)          -0.9505         estimate D2E/DX2                !
 ! D40   D(20,19,21,24)         -0.8223         estimate D2E/DX2                !
 ! D41   D(20,19,21,25)        177.7399         estimate D2E/DX2                !
 ! D42   D(19,20,22,26)         -0.0862         estimate D2E/DX2                !
 ! D43   D(19,20,22,27)        179.6485         estimate D2E/DX2                !
 ! D44   D(23,20,22,26)       -178.8772         estimate D2E/DX2                !
 ! D45   D(23,20,22,27)          0.8575         estimate D2E/DX2                !
 ! D46   D(19,21,24,26)          0.172          estimate D2E/DX2                !
 ! D47   D(19,21,24,28)        179.4529         estimate D2E/DX2                !
 ! D48   D(25,21,24,26)       -178.4042         estimate D2E/DX2                !
 ! D49   D(25,21,24,28)          0.8767         estimate D2E/DX2                !
 ! D50   D(20,22,26,24)         -0.5862         estimate D2E/DX2                !
 ! D51   D(20,22,26,29)       -179.9915         estimate D2E/DX2                !
 ! D52   D(27,22,26,24)        179.6804         estimate D2E/DX2                !
 ! D53   D(27,22,26,29)          0.2751         estimate D2E/DX2                !
 ! D54   D(21,24,26,22)          0.5441         estimate D2E/DX2                !
 ! D55   D(21,24,26,29)        179.9496         estimate D2E/DX2                !
 ! D56   D(28,24,26,22)       -178.7326         estimate D2E/DX2                !
 ! D57   D(28,24,26,29)          0.6729         estimate D2E/DX2                !
 ! D58   D(3,30,31,33)        -179.679          estimate D2E/DX2                !
 ! D59   D(3,30,31,34)           0.0068         estimate D2E/DX2                !
 ! D60   D(32,30,31,33)          0.4796         estimate D2E/DX2                !
 ! D61   D(32,30,31,34)       -179.8346         estimate D2E/DX2                !
 ! D62   D(3,30,32,35)         179.3586         estimate D2E/DX2                !
 ! D63   D(3,30,32,36)          -1.091          estimate D2E/DX2                !
 ! D64   D(31,30,32,35)         -0.8026         estimate D2E/DX2                !
 ! D65   D(31,30,32,36)        178.7478         estimate D2E/DX2                !
 ! D66   D(30,31,33,37)          0.2441         estimate D2E/DX2                !
 ! D67   D(30,31,33,38)       -179.9647         estimate D2E/DX2                !
 ! D68   D(34,31,33,37)       -179.4367         estimate D2E/DX2                !
 ! D69   D(34,31,33,38)          0.3546         estimate D2E/DX2                !
 ! D70   D(30,32,35,37)          0.4026         estimate D2E/DX2                !
 ! D71   D(30,32,35,39)        179.7328         estimate D2E/DX2                !
 ! D72   D(36,32,35,37)       -179.153          estimate D2E/DX2                !
 ! D73   D(36,32,35,39)          0.1772         estimate D2E/DX2                !
 ! D74   D(31,33,37,35)         -0.6551         estimate D2E/DX2                !
 ! D75   D(31,33,37,40)        179.8344         estimate D2E/DX2                !
 ! D76   D(38,33,37,35)        179.5542         estimate D2E/DX2                !
 ! D77   D(38,33,37,40)          0.0437         estimate D2E/DX2                !
 ! D78   D(32,35,37,33)          0.3315         estimate D2E/DX2                !
 ! D79   D(32,35,37,40)        179.842          estimate D2E/DX2                !
 ! D80   D(39,35,37,33)       -178.9956         estimate D2E/DX2                !
 ! D81   D(39,35,37,40)          0.5149         estimate D2E/DX2                !
 --------------------------------------------------------------------------------
 Trust Radius=3.00D-01 FncErr=1.00D-07 GrdErr=1.00D-06 EigMax=2.50D+02 EigMin=1.00D-04
 Number of steps in this run=    197 maximum allowed number of steps=    240.
 GradGradGradGradGradGradGradGradGradGradGradGradGradGradGradGradGradGrad

 Leave Link  103 at Tue Jun 11 16:39:10 2019, MaxMem=   104857600 cpu:               2.8 elap:               0.1
 (Enter /project/6004141/group/g16/g16/l202.exe)
                          Input orientation:                          
 ---------------------------------------------------------------------
 Center     Atomic      Atomic             Coordinates (Angstroms)
 Number     Number       Type             X           Y           Z
 ---------------------------------------------------------------------
      1          6           0        1.077722   -1.313168   -0.727165
      2          1           0        4.196564   -0.371658    1.238642
      3          6           0        1.018601    1.291738    0.788276
      4          8           0        1.932202    1.826676    0.069483
      5          8           0        1.976238   -1.834832    0.116103
      6          7           0        4.037375    0.721352   -0.312257
      7          1           0        4.091537    0.625560   -1.328935
      8          7           0        4.259148   -0.505047    0.220542
      9          1           0        2.892992   -1.455538   -0.009189
     10          1           0        2.950993    1.376724    0.028090
     11          6           0        1.558159   -0.639583   -1.977661
     12          1           0        0.912299   -0.874772   -2.826808
     13          1           0        1.587672    0.452449   -1.874614
     14          1           0        2.567731   -0.980532   -2.218297
     15          6           0        1.379188    0.525584    2.026188
     16          1           0        1.044176    1.085255    2.907021
     17          1           0        0.890238   -0.451467    2.045482
     18          1           0        2.455855    0.384654    2.092536
     19          6           0       -0.297568   -1.593085   -0.451544
     20          6           0       -0.666937   -2.321733    0.712907
     21          6           0       -1.340424   -1.136963   -1.302510
     22          6           0       -2.001126   -2.588569    0.993188
     23          1           0        0.111923   -2.685411    1.373135
     24          6           0       -2.668591   -1.412018   -1.009795
     25          1           0       -1.105767   -0.546835   -2.180440
     26          6           0       -3.013414   -2.143203    0.134049
     27          1           0       -2.256859   -3.152084    1.886120
     28          1           0       -3.446424   -1.043978   -1.672113
     29          1           0       -4.054715   -2.353821    0.356973
     30          6           0       -0.370151    1.570412    0.455026
     31          6           0       -0.678196    2.289539   -0.720614
     32          6           0       -1.426126    1.133475    1.282456
     33          6           0       -1.998890    2.569256   -1.049057
     34          1           0        0.131420    2.623759   -1.359043
     35          6           0       -2.744677    1.423417    0.949947
     36          1           0       -1.219762    0.562577    2.179404
     37          6           0       -3.036469    2.143338   -0.211761
     38          1           0       -2.223783    3.122339   -1.955674
     39          1           0       -3.548179    1.078074    1.592148
     40          1           0       -4.067680    2.365188   -0.468697
 ---------------------------------------------------------------------
                    Distance matrix (angstroms):
                    1          2          3          4          5
     1  C    0.000000
     2  H    3.804999   0.000000
     3  C    3.014232   3.615130   0.000000
     4  O    3.350135   3.365552   1.279644   0.000000
     5  O    1.338120   2.886316   3.338312   3.662070   0.000000
     6  N    3.615379   1.904022   3.263359   2.408157   3.311473
     7  H    3.633714   2.756434   3.790687   2.839187   3.551923
     8  N    3.416530   1.028706   3.748587   3.297640   2.644034
     9  H    1.957285   2.105036   3.420061   3.420853   1.000000
    10  H    3.363789   2.464492   2.078279   1.114498   3.357378
    11  C    1.499425   4.168641   3.416362   3.226940   2.446887
    12  H    2.151292   5.250467   4.215910   4.089807   3.273287
    13  H    2.166585   4.144615   2.849426   2.405559   3.057056
    14  H    2.134068   3.869658   4.074616   3.676717   2.555213
    15  C    3.324582   3.059882   1.499814   2.413992   3.094585
    16  H    4.354408   3.852744   2.128936   3.064297   4.145464
    17  H    2.909510   3.404284   2.153093   3.190642   2.610670
    18  H    3.568272   2.081156   2.142334   2.538973   3.010388
    19  C    1.430295   4.954375   3.404652   4.115593   2.356026
    20  C    2.476862   5.266197   3.987968   4.937491   2.753111
    21  C    2.491887   6.140145   3.979318   4.623376   3.674198
    22  C    3.750409   6.586828   4.921130   5.984872   4.142079
    23  H    2.688323   4.696364   4.120903   5.037048   2.404014
    24  C    3.758259   7.298505   4.913119   5.728986   4.798005
    25  H    2.732563   6.311539   4.087366   4.463739   4.053616
    26  C    4.262399   7.506149   5.337038   6.342178   4.999204
    27  H    4.618474   7.056675   5.628628   6.755476   4.773596
    28  H    4.629610   8.206082   5.607632   6.340617   5.764411
    29  H    5.347918   8.531701   6.262161   7.307693   6.058033
    30  C    3.436415   5.024000   1.455111   2.348434   4.149228
    31  C    4.007841   5.889307   2.480217   2.766347   4.975596
    32  C    4.036570   5.820824   2.499190   3.637334   4.663401
    33  C    4.964108   7.229536   3.756740   4.154039   6.046092
    34  H    4.098067   5.678546   2.678124   2.432867   5.045636
    35  C    4.991226   7.175407   3.769050   4.776090   5.796423
    36  H    4.152709   5.576237   2.734444   3.998073   4.496576
    37  C    5.398115   7.793949   4.262498   4.986689   6.407852
    38  H    5.664176   7.977000   4.625302   4.801272   6.819529
    39  H    5.700545   7.887188   4.641911   5.737028   6.417391
    40  H    6.330266   8.871475   5.348133   6.047993   7.383164
                    6          7          8          9         10
     6  N    0.000000
     7  H    1.022616   0.000000
     8  N    1.355401   1.925421   0.000000
     9  H    2.477965   2.740294   1.680057   0.000000
    10  H    1.313611   1.925254   2.299863   2.833101   0.000000
    11  C    3.282107   2.905071   3.485045   2.514447   3.166783
    12  H    4.317022   3.821279   4.541414   3.492765   4.168447
    13  H    2.917930   2.568477   3.527501   2.970536   2.516587
    14  H    2.947754   2.385892   3.005813   2.282889   3.278689
    15  C    3.545787   4.315516   3.552003   3.218572   2.680934
    16  H    4.410829   5.238421   4.481325   4.286961   3.465422
    17  H    4.103524   4.774410   3.831818   3.039877   3.414508
    18  H    2.897861   3.799994   2.747325   2.827480   2.343353
    19  C    4.916071   4.995642   4.732778   3.224015   4.427523
    20  C    5.695777   5.958081   5.273432   3.734275   5.218906
    21  C    5.775349   5.710813   5.837312   4.438015   5.148337
    22  C    7.008799   7.269348   6.642972   5.122588   6.417043
    23  H    5.464042   5.839609   4.825136   3.340322   5.135212
    24  C    7.071620   7.067737   7.094356   5.651045   6.358774
    25  H    5.616967   5.395511   5.877820   4.640059   5.003497
    26  C    7.623548   7.764451   7.455280   5.948028   6.926418
    27  H    7.710626   8.056631   7.227676   5.743817   7.147314
    28  H    7.808511   7.728259   7.952888   6.566802   7.048222
    29  H    8.682539   8.836312   8.518034   7.015099   7.943870
    30  C    4.553670   4.897134   5.078673   4.474368   3.354070
    31  C    4.986239   5.088146   5.750900   5.223515   3.816386
    32  C    5.706382   6.125516   6.011219   5.198665   4.559800
    33  C    6.355637   6.399186   7.087049   6.419564   5.204202
    34  H    4.468937   4.435790   5.415040   5.107744   3.380714
    35  C    6.934139   7.250083   7.300998   6.402471   5.769979
    36  H    5.819886   6.365713   5.915692   5.077152   4.763002
    37  C    7.216052   7.372937   7.773471   6.939125   6.041103
    38  H    6.904177   6.819822   7.740946   7.136326   5.810404
    39  H    7.829089   8.191627   8.083436   7.104376   6.691390
    40  H    8.271553   8.386843   8.834555   7.953619   7.105324
                   11         12         13         14         15
    11  C    0.000000
    12  H    1.092474   0.000000
    13  H    1.097280   1.767574   0.000000
    14  H    1.092423   1.766897   1.769765   0.000000
    15  C    4.173781   5.072529   3.907054   4.657969   0.000000
    16  H    5.205705   6.061014   4.853850   5.732153   1.096053
    17  H    4.082546   4.890694   4.082968   4.612343   1.092736
    18  H    4.292019   5.307416   4.061603   4.523221   1.087876
    19  C    2.584941   2.760730   3.124655   3.421487   3.665982
    20  C    3.875543   4.137302   4.413005   4.566602   3.744135
    21  C    3.017449   2.732579   3.380426   4.017065   4.608751
    22  C    5.029215   5.100737   5.509224   5.811529   4.710792
    23  H    4.183879   4.643117   4.750987   4.672899   3.513250
    24  C    4.404411   4.051289   4.726513   5.391264   5.418119
    25  H    2.673242   2.144277   2.889068   3.699204   5.002080
    26  C    5.255423   5.078072   5.651737   6.167213   5.477003
    27  H    5.982961   6.118938   6.474272   6.696159   5.173558
    28  H    5.030183   4.512252   5.255704   6.039239   6.279131
    29  H    6.316129   6.082374   6.685182   7.237039   6.372170
    30  C    3.810567   4.288827   3.241934   4.720712   2.573014
    31  C    3.893739   4.120509   3.137001   4.844839   3.858664
    32  C    4.762148   5.136861   4.417450   5.716222   2.965207
    33  C    4.879708   4.847345   4.245685   5.901029   5.004512
    34  H    3.614924   3.873477   2.664783   4.434506   4.173614
    35  C    5.598326   5.737510   5.262145   6.636145   4.355532
    36  H    5.142297   5.627949   4.932431   6.005503   2.603725
    37  C    5.654525   5.616069   5.196813   6.722485   5.208029
    38  H    5.334381   5.154685   4.654253   6.313567   5.964877
    39  H    6.462861   6.575458   6.227906   7.494111   4.977206
    40  H    6.554059   6.392043   6.133366   7.634371   6.267134
                   16         17         18         19         20
    16  H    0.000000
    17  H    1.768463   0.000000
    18  H    1.773997   1.775519   0.000000
    19  C    4.500416   2.991540   4.238530   0.000000
    20  C    4.398819   2.774607   4.356574   1.422430   0.000000
    21  C    5.323976   4.081030   5.315392   1.421175   2.432935
    22  C    5.141362   3.746267   5.469305   2.445475   1.389179
    23  H    4.176102   2.459335   3.928976   2.165713   1.083875
    24  C    5.946634   4.787759   6.253994   2.442576   2.793189
    25  H    5.759187   4.674564   5.640137   2.176443   3.422615
    26  C    5.880166   4.664123   6.335506   2.832202   2.423407
    27  H    5.467551   4.150054   5.895829   3.425489   2.143307
    28  H    6.757780   5.742667   7.144961   3.421491   3.878985
    29  H    6.657979   5.560807   7.273166   3.917725   3.406576
    30  C    2.871929   2.864634   3.474733   3.291633   3.911953
    31  C    4.192446   4.198141   4.622194   3.910505   4.828969
    32  C    2.957013   2.908572   4.035683   3.422649   3.583185
    33  C    5.207021   5.200769   5.872550   4.536144   5.366599
    34  H    4.625951   4.650119   4.725462   4.334669   5.421092
    35  C    4.277838   4.234146   5.424949   4.129383   4.289445
    36  H    2.434755   2.344850   3.680946   3.524090   3.282602
    37  C    5.243854   5.219884   6.210344   4.638958   5.138731
    38  H    6.202828   6.203101   6.766235   5.311114   6.259634
    39  H    4.776889   4.716413   6.064622   4.677418   4.542390
    40  H    6.258176   6.231821   7.282784   5.466440   5.910031
                   21         22         23         24         25
    21  C    0.000000
    22  C    2.795338   0.000000
    23  H    3.415564   2.149119   0.000000
    24  C    1.387575   2.416966   3.877002   0.000000
    25  H    1.083548   3.878435   4.322519   2.135736   0.000000
    26  C    2.423864   1.400428   3.405445   1.400683   3.397700
    27  H    3.881743   1.086405   2.468211   3.403480   4.964801
    28  H    2.140208   3.402716   4.962829   1.085883   2.446267
    29  H    3.406171   2.162661   4.301559   2.162496   4.289517
    30  C    3.370496   4.499647   4.380337   4.040225   3.459703
    31  C    3.538088   5.336965   5.455108   4.212698   3.218529
    32  C    3.441552   3.777289   4.117974   3.643854   3.862346
    33  C    3.772781   5.547425   6.159064   4.037398   3.433325
    34  H    4.038880   6.103205   5.970968   4.924381   3.501141
    35  C    3.687958   4.080535   5.022123   3.447618   4.045645
    36  H    3.876431   3.456495   3.601789   4.021085   4.500225
    37  C    3.850542   4.991471   5.978385   3.662342   3.852316
    38  H    4.398704   6.431161   7.089884   4.653271   3.842306
    39  H    4.261410   4.024475   5.254344   3.707336   4.778925
    40  H    4.516440   5.563044   6.809550   4.064175   4.492535
                   26         27         28         29         30
    26  C    0.000000
    27  H    2.158696   0.000000
    28  H    2.158243   4.303510   0.000000
    29  H    1.085524   2.491546   2.490562   0.000000
    30  C    4.569552   5.282960   4.563246   5.383793   0.000000
    31  C    5.082607   6.236866   4.436302   5.841478   1.412149
    32  C    3.817714   4.406875   4.189556   4.463993   1.410900
    33  C    4.963494   6.435491   3.941956   5.517248   2.431614
    34  H    5.902816   7.042395   5.133349   6.726421   2.156840
    35  C    3.668608   4.695700   3.668199   4.041701   2.430006
    36  H    3.836914   3.867854   4.730034   4.456859   2.170495
    37  C    4.300529   5.748947   3.529826   4.645936   2.807508
    38  H    5.719824   7.357232   4.351259   6.220046   3.414074
    39  H    3.576122   4.432625   3.894722   3.682409   3.411056
    40  H    4.669087   6.266141   3.668321   4.790714   3.893155
                   31         32         33         34         35
    31  C    0.000000
    32  C    2.430673   0.000000
    33  C    1.389370   2.797406   0.000000
    34  H    1.083869   3.409459   2.153435   0.000000
    35  C    2.794868   1.390398   2.421810   3.878684   0.000000
    36  H    3.418449   1.083063   3.880304   4.312165   2.139620
    37  C    2.416973   2.417791   1.399657   3.403319   1.397496
    38  H    2.146571   3.882953   1.085556   2.480228   3.405921
    39  H    3.879861   2.145248   3.405860   4.963680   1.085034
    40  H    3.399675   3.400215   2.158322   4.300234   2.156344
                   36         37         38         39         40
    36  H    0.000000
    37  C    3.393656   0.000000
    38  H    4.965814   2.158734   0.000000
    39  H    2.456040   2.156553   4.303497   0.000000
    40  H    4.286313   1.085647   2.486832   2.484678   0.000000
 Stoichiometry    C16H20N2O2
 Framework group  C1[X(C16H20N2O2)]
 Deg. of freedom   114
 Full point group                 C1      NOp   1
 Largest Abelian subgroup         C1      NOp   1
 Largest concise Abelian subgroup C1      NOp   1
                         Standard orientation:                         
 ---------------------------------------------------------------------
 Center     Atomic      Atomic             Coordinates (Angstroms)
 Number     Number       Type             X           Y           Z
 ---------------------------------------------------------------------
      1          6           0       -1.077722    1.313168   -0.727165
      2          1           0       -4.196564    0.371658    1.238642
      3          6           0       -1.018601   -1.291738    0.788276
      4          8           0       -1.932202   -1.826676    0.069483
      5          8           0       -1.976238    1.834832    0.116103
      6          7           0       -4.037375   -0.721352   -0.312257
      7          1           0       -4.091537   -0.625560   -1.328935
      8          7           0       -4.259148    0.505047    0.220542
      9          1           0       -2.892992    1.455538   -0.009189
     10          1           0       -2.950993   -1.376724    0.028090
     11          6           0       -1.558159    0.639583   -1.977661
     12          1           0       -0.912299    0.874772   -2.826808
     13          1           0       -1.587672   -0.452449   -1.874614
     14          1           0       -2.567731    0.980532   -2.218297
     15          6           0       -1.379188   -0.525584    2.026188
     16          1           0       -1.044176   -1.085255    2.907021
     17          1           0       -0.890238    0.451467    2.045482
     18          1           0       -2.455855   -0.384654    2.092536
     19          6           0        0.297568    1.593085   -0.451544
     20          6           0        0.666937    2.321733    0.712907
     21          6           0        1.340424    1.136963   -1.302510
     22          6           0        2.001126    2.588569    0.993188
     23          1           0       -0.111923    2.685411    1.373135
     24          6           0        2.668591    1.412018   -1.009795
     25          1           0        1.105767    0.546835   -2.180440
     26          6           0        3.013414    2.143203    0.134049
     27          1           0        2.256859    3.152084    1.886120
     28          1           0        3.446424    1.043978   -1.672113
     29          1           0        4.054715    2.353821    0.356973
     30          6           0        0.370151   -1.570412    0.455026
     31          6           0        0.678196   -2.289539   -0.720614
     32          6           0        1.426126   -1.133475    1.282456
     33          6           0        1.998890   -2.569256   -1.049057
     34          1           0       -0.131420   -2.623759   -1.359043
     35          6           0        2.744677   -1.423417    0.949947
     36          1           0        1.219762   -0.562577    2.179404
     37          6           0        3.036469   -2.143338   -0.211761
     38          1           0        2.223783   -3.122339   -1.955674
     39          1           0        3.548179   -1.078074    1.592148
     40          1           0        4.067680   -2.365188   -0.468697
 ---------------------------------------------------------------------
 Rotational constants (GHZ):           0.4850073           0.3051255           0.2367647
 Leave Link  202 at Tue Jun 11 16:39:11 2019, MaxMem=   104857600 cpu:               3.0 elap:               0.1
 (Enter /project/6004141/group/g16/g16/l301.exe)
 Standard basis: 6-31G(d,p) (6D, 7F)
 Ernie: Thresh=  0.10000D-02 Tol=  0.10000D-05 Strict=F.
 There are   400 symmetry adapted cartesian basis functions of A   symmetry.
 There are   400 symmetry adapted basis functions of A   symmetry.
   400 basis functions,   700 primitive gaussians,   400 cartesian basis functions
    73 alpha electrons       73 beta electrons
       nuclear repulsion energy      1613.7415165825 Hartrees.
 IExCor=  402 DFT=T Ex+Corr=B3LYP ExCW=0 ScaHFX=  0.200000
 ScaDFX=  0.800000  0.720000  1.000000  0.810000 ScalE2=  1.000000  1.000000
 IRadAn=      5 IRanWt=     -1 IRanGd=            0 ICorTp=0 IEmpDi=131
 NAtoms=   40 NActive=   40 NUniq=   40 SFac= 1.00D+00 NAtFMM=   60 NAOKFM=F Big=F
 Integral buffers will be    131072 words long.
 Raffenetti 2 integral format.
 Two-electron integral symmetry is turned on.
 R6Disp:  Grimme-D3 Dispersion energy=       -0.0527973846 Hartrees.
 Nuclear repulsion after empirical dispersion term =     1613.6887191979 Hartrees.
 ------------------------------------------------------------------------------
 Polarizable Continuum Model (PCM)
 =================================
 Model                : PCM.
 Atomic radii         : UFF (Universal Force Field).
 Polarization charges : Total charges.
 Charge compensation  : None.
 Solution method      : On-the-fly selection.
 Cavity type          : Scaled VdW (van der Waals Surface) (Alpha=1.100).
 Cavity algorithm     : GePol (No added spheres)
                        Default sphere list used, NSphG=   40.
                        Lebedev-Laikov grids with approx.  5.0 points / Ang**2.
                        Smoothing algorithm: York/Karplus (Gamma=1.0000).
                        Polarization charges: spherical gaussians, with
                                              point-specific exponents (IZeta= 3).
                        Self-potential: point-specific (ISelfS= 7).
                        Self-field    : sphere-specific E.n sum rule (ISelfD= 2).
 1st derivatives      : Analytical E(r).r(x)/FMM algorithm (CHGder, D1EAlg=3).
                        Cavity 1st derivative terms included.
 Solvent              : Acetonitrile, Eps=  35.688000 Eps(inf)=   1.806874
 ------------------------------------------------------------------------------
 GePol: Number of generator spheres                  =      40
 GePol: Total number of spheres                      =      40
 GePol: Number of exposed spheres                    =      40 (100.00%)
 GePol: Number of points                             =    2533
 GePol: Average weight of points                     =       0.13
 GePol: Minimum weight of points                     =   0.19D-10
 GePol: Maximum weight of points                     =    0.20577
 GePol: Number of points with low weight             =     180
 GePol: Fraction of low-weight points (<1% of avg)   =       7.11%
 GePol: Cavity surface area                          =    329.272 Ang**2
 GePol: Cavity volume                                =    398.954 Ang**3
 Leave Link  301 at Tue Jun 11 16:39:11 2019, MaxMem=   104857600 cpu:              17.1 elap:               0.5
 (Enter /project/6004141/group/g16/g16/l302.exe)
 NPDir=0 NMtPBC=     1 NCelOv=     1 NCel=       1 NClECP=     1 NCelD=      1
         NCelK=      1 NCelE2=     1 NClLst=     1 CellRange=     0.0.
 One-electron integrals computed using PRISM.
 One-electron integral symmetry used in STVInt
 PrsmSu:  requested number of processors reduced to:  27 ShMem   1 Linda.
 NBasis=   400 RedAO= T EigKep=  4.65D-04  NBF=   400
 NBsUse=   400 1.00D-06 EigRej= -1.00D+00 NBFU=   400
 Precomputing XC quadrature grid using
 IXCGrd= 4 IRadAn=           5 IRanWt=          -1 IRanGd=           0 AccXCQ= 0.00D+00.
 Generated NRdTot=       0 NPtTot=           0 NUsed=           0 NTot=          32
 NSgBfM=   398   398   398   398   398 MxSgAt=    40 MxSgA2=    40.
 Leave Link  302 at Tue Jun 11 16:39:12 2019, MaxMem=   104857600 cpu:              22.4 elap:               0.6
 (Enter /project/6004141/group/g16/g16/l303.exe)
 DipDrv:  MaxL=1.
 Leave Link  303 at Tue Jun 11 16:39:12 2019, MaxMem=   104857600 cpu:               4.8 elap:               0.2
 (Enter /project/6004141/group/g16/g16/l401.exe)
 ExpMin= 1.61D-01 ExpMax= 5.48D+03 ExpMxC= 8.25D+02 IAcc=3 IRadAn=         5 AccDes= 0.00D+00
 Harris functional with IExCor=  402 and IRadAn=       5 diagonalized for initial guess.
 HarFok:  IExCor=  402 AccDes= 0.00D+00 IRadAn=         5 IDoV= 1 UseB2=F ITyADJ=14
 ICtDFT=  3500011 ScaDFX=  1.000000  1.000000  1.000000  1.000000
 FoFCou: FMM=F IPFlag=           0 FMFlag=      100000 FMFlg1=           0
         NFxFlg=           0 DoJE=T BraDBF=F KetDBF=T FulRan=T
         wScrn=  0.000000 ICntrl=       500 IOpCl=  0 I1Cent=   200000004 NGrid=           0
         NMat0=    1 NMatS0=      1 NMatT0=    0 NMatD0=    1 NMtDS0=    0 NMtDT0=    0
 Petite list used in FoFCou.
 Harris En= -881.681657221442    
 JPrj=0 DoOrth=F DoCkMO=T.
 Mixing orbitals, IMix= 1 IMixAn=  0 NRI=1 NE=   73 Coef=  7.07106781D-01  7.07106781D-01
 Mixing orbitals, IMix= 1 IMixAn=  0 NRI=1 NE=   73 Coef= -7.07106781D-01  7.07106781D-01
 Initial guess <Sx>= 0.0000 <Sy>= 0.0000 <Sz>= 0.0000 <S**2>= 1.0000 S= 0.6180
 Leave Link  401 at Tue Jun 11 16:39:14 2019, MaxMem=   104857600 cpu:              42.9 elap:               1.1
 (Enter /project/6004141/group/g16/g16/l502.exe)
 Integral symmetry usage will be decided dynamically.
 UHF open shell SCF:
 Using DIIS extrapolation, IDIIS=  1040.
 NGot=   104857600 LenX=   104517248 LenY=   104356807
 Requested convergence on RMS density matrix=1.00D-08 within 128 cycles.
 Requested convergence on MAX density matrix=1.00D-06.
 Requested convergence on             energy=1.00D-06.
 No special actions if energy rises.
 Fock matrices will be formed incrementally for  20 cycles.

 Cycle   1  Pass 1  IDiag  1:
 FoFJK:  IHMeth= 1 ICntrl=       0 DoSepK=F KAlg= 0 I1Cent=           0 FoldK=F
 IRaf= 820000000 NMat=       1 IRICut=       1 DoRegI=T DoRafI=F ISym2E= 0 IDoP0=0 IntGTp=1.
 FoFCou: FMM=F IPFlag=           0 FMFlag=      100000 FMFlg1=           0
         NFxFlg=           0 DoJE=F BraDBF=F KetDBF=F FulRan=T
         wScrn=  0.000000 ICntrl=         0 IOpCl=  1 I1Cent=           0 NGrid=           0
         NMat0=    1 NMatS0=      1 NMatT0=    0 NMatD0=    1 NMtDS0=    0 NMtDT0=    0
 Symmetry not used in FoFCou.
 Inv3:  Mode=1 IEnd=    19248267.
 Iteration    1 A*A^-1 deviation from unit magnitude is 3.77D-15 for    820.
 Iteration    1 A*A^-1 deviation from orthogonality  is 1.66D-15 for   1791    837.
 Iteration    1 A^-1*A deviation from unit magnitude is 3.77D-15 for    820.
 Iteration    1 A^-1*A deviation from orthogonality  is 2.67D-15 for   1374    749.
 E= -881.147987942211    
 DIIS: error= 2.38D-02 at cycle   1 NSaved=   1.
 NSaved= 1 IEnMin= 1 EnMin= -881.147987942211     IErMin= 1 ErrMin= 2.38D-02
 ErrMax= 2.38D-02  0.00D+00 EMaxC= 1.00D-01 BMatC= 1.89D+00 BMatP= 1.89D+00
 IDIUse=3 WtCom= 7.62D-01 WtEn= 2.38D-01
 Coeff-Com:  0.100D+01
 Coeff-En:   0.100D+01
 Coeff:      0.100D+01
 Gap=     0.032 Goal=   None    Shift=    0.000
 Gap=     0.059 Goal=   None    Shift=    0.000
 GapD=    0.032 DampG=0.250 DampE=0.500 DampFc=0.2500 IDamp=-1.
 Damping current iteration by 2.50D-01
 RMSDP=3.89D-03 MaxDP=1.39D-01              OVMax= 4.96D-01

 Cycle   2  Pass 1  IDiag  1:
 RMSU=  9.55D-04    CP:  9.88D-01
 E= -881.320108858222     Delta-E=       -0.172120916010 Rises=F Damp=T
 DIIS: error= 1.39D-02 at cycle   2 NSaved=   2.
 NSaved= 2 IEnMin= 2 EnMin= -881.320108858222     IErMin= 2 ErrMin= 1.39D-02
 ErrMax= 1.39D-02  0.00D+00 EMaxC= 1.00D-01 BMatC= 5.18D-01 BMatP= 1.89D+00
 IDIUse=3 WtCom= 8.61D-01 WtEn= 1.39D-01
 Coeff-Com: -0.860D+00 0.186D+01
 Coeff-En:   0.000D+00 0.100D+01
 Coeff:     -0.741D+00 0.174D+01
 Gap=     0.001 Goal=   None    Shift=    0.000
 Gap=     0.009 Goal=   None    Shift=    0.000
 RMSDP=1.99D-03 MaxDP=1.13D-01 DE=-1.72D-01 OVMax= 7.17D-01

 Cycle   3  Pass 1  IDiag  1:
 RMSU=  1.93D-03    CP:  9.65D-01  1.34D+00
 E= -881.512953314657     Delta-E=       -0.192844456436 Rises=F Damp=F
 DIIS: error= 1.72D-02 at cycle   3 NSaved=   3.
 NSaved= 3 IEnMin= 3 EnMin= -881.512953314657     IErMin= 2 ErrMin= 1.39D-02
 ErrMax= 1.72D-02  0.00D+00 EMaxC= 1.00D-01 BMatC= 3.98D-01 BMatP= 5.18D-01
 IDIUse=3 WtCom= 8.28D-01 WtEn= 1.72D-01
 Coeff-Com: -0.598D+00 0.125D+01 0.345D+00
 Coeff-En:   0.000D+00 0.000D+00 0.100D+01
 Coeff:     -0.495D+00 0.104D+01 0.457D+00
 Gap=     0.048 Goal=   None    Shift=    0.000
 Gap=     0.045 Goal=   None    Shift=    0.000
 RMSDP=2.90D-03 MaxDP=2.33D-01 DE=-1.93D-01 OVMax= 9.02D-01

 Cycle   4  Pass 1  IDiag  1:
 RMSU=  1.52D-03    CP:  9.63D-01  2.29D+00 -1.87D-01
 E= -881.372685478820     Delta-E=        0.140267835837 Rises=F Damp=F
 DIIS: error= 2.06D-02 at cycle   4 NSaved=   4.
 NSaved= 4 IEnMin= 3 EnMin= -881.512953314657     IErMin= 2 ErrMin= 1.39D-02
 ErrMax= 2.06D-02  0.00D+00 EMaxC= 1.00D-01 BMatC= 8.06D-01 BMatP= 3.98D-01
 IDIUse=2 WtCom= 0.00D+00 WtEn= 1.00D+00
 Coeff-En:   0.000D+00 0.000D+00 0.615D+00 0.385D+00
 Coeff:      0.000D+00 0.000D+00 0.615D+00 0.385D+00
 Gap=    -0.010 Goal=   None    Shift=    0.000
 Gap=     0.015 Goal=   None    Shift=    0.000
 RMSDP=2.27D-03 MaxDP=2.02D-01 DE= 1.40D-01 OVMax= 8.32D-01

 Cycle   5  Pass 1  IDiag  1:
 RMSU=  8.52D-04    CP:  9.69D-01  1.73D+00  4.95D-01 -1.33D-02
 E= -881.616915440400     Delta-E=       -0.244229961580 Rises=F Damp=F
 DIIS: error= 6.46D-03 at cycle   5 NSaved=   5.
 NSaved= 5 IEnMin= 5 EnMin= -881.616915440400     IErMin= 5 ErrMin= 6.46D-03
 ErrMax= 6.46D-03  0.00D+00 EMaxC= 1.00D-01 BMatC= 9.18D-02 BMatP= 3.98D-01
 IDIUse=3 WtCom= 9.35D-01 WtEn= 6.46D-02
 EnCoef did    10 forward-backward iterations
 Coeff-Com: -0.646D-01 0.160D+00 0.342D+00 0.238D+00 0.324D+00
 Coeff-En:   0.000D+00 0.000D+00 0.805D-01 0.119D+00 0.800D+00
 Coeff:     -0.604D-01 0.150D+00 0.325D+00 0.231D+00 0.355D+00
 Gap=     0.030 Goal=   None    Shift=    0.000
 Gap=     0.035 Goal=   None    Shift=    0.000
 RMSDP=5.64D-04 MaxDP=3.67D-02 DE=-2.44D-01 OVMax= 1.36D-01

 Cycle   6  Pass 1  IDiag  1:
 RMSU=  5.09D-04    CP:  9.68D-01  1.68D+00  4.79D-01  1.27D-01  8.81D-01
 E= -881.644074244548     Delta-E=       -0.027158804148 Rises=F Damp=F
 DIIS: error= 1.98D-03 at cycle   6 NSaved=   6.
 NSaved= 6 IEnMin= 6 EnMin= -881.644074244548     IErMin= 6 ErrMin= 1.98D-03
 ErrMax= 1.98D-03  0.00D+00 EMaxC= 1.00D-01 BMatC= 5.30D-03 BMatP= 9.18D-02
 IDIUse=3 WtCom= 9.80D-01 WtEn= 1.98D-02
 Coeff-Com: -0.248D-01 0.452D-01 0.257D-01 0.507D-01 0.141D+00 0.762D+00
 Coeff-En:   0.000D+00 0.000D+00 0.000D+00 0.000D+00 0.000D+00 0.100D+01
 Coeff:     -0.243D-01 0.443D-01 0.252D-01 0.497D-01 0.138D+00 0.767D+00
 Gap=     0.050 Goal=   None    Shift=    0.000
 Gap=     0.048 Goal=   None    Shift=    0.000
 RMSDP=5.58D-04 MaxDP=4.40D-02 DE=-2.72D-02 OVMax= 2.01D-01

 Cycle   7  Pass 1  IDiag  1:
 RMSU=  4.37D-04    CP:  9.66D-01  1.77D+00  4.45D-01  2.61D-01  1.12D+00
                    CP:  1.31D+00
 E= -881.652149639972     Delta-E=       -0.008075395424 Rises=F Damp=F
 DIIS: error= 1.90D-03 at cycle   7 NSaved=   7.
 NSaved= 7 IEnMin= 7 EnMin= -881.652149639972     IErMin= 7 ErrMin= 1.90D-03
 ErrMax= 1.90D-03  0.00D+00 EMaxC= 1.00D-01 BMatC= 3.63D-03 BMatP= 5.30D-03
 IDIUse=3 WtCom= 9.81D-01 WtEn= 1.90D-02
 Coeff-Com: -0.249D-01 0.487D-01 0.440D-01 0.176D-01 0.515D-01 0.344D+00
 Coeff-Com:  0.519D+00
 Coeff-En:   0.000D+00 0.000D+00 0.000D+00 0.000D+00 0.000D+00 0.000D+00
 Coeff-En:   0.100D+01
 Coeff:     -0.244D-01 0.478D-01 0.432D-01 0.173D-01 0.506D-01 0.338D+00
 Coeff:      0.528D+00
 Gap=     0.060 Goal=   None    Shift=    0.000
 Gap=     0.055 Goal=   None    Shift=    0.000
 RMSDP=2.48D-04 MaxDP=1.39D-02 DE=-8.08D-03 OVMax= 7.74D-02

 Cycle   8  Pass 1  IDiag  1:
 RMSU=  8.78D-05    CP:  9.65D-01  1.79D+00  4.51D-01  3.32D-01  1.14D+00
                    CP:  1.46D+00  1.43D+00
 E= -881.654807418796     Delta-E=       -0.002657778824 Rises=F Damp=F
 DIIS: error= 1.65D-03 at cycle   8 NSaved=   8.
 NSaved= 8 IEnMin= 8 EnMin= -881.654807418796     IErMin= 8 ErrMin= 1.65D-03
 ErrMax= 1.65D-03  0.00D+00 EMaxC= 1.00D-01 BMatC= 3.09D-03 BMatP= 3.63D-03
 IDIUse=3 WtCom= 9.83D-01 WtEn= 1.65D-02
 Coeff-Com: -0.843D-02 0.249D-01 0.960D-01-0.565D-02 0.701D-02-0.254D+00
 Coeff-Com:  0.836D-01 0.106D+01
 Coeff-En:   0.000D+00 0.000D+00 0.000D+00 0.000D+00 0.000D+00 0.000D+00
 Coeff-En:   0.000D+00 0.100D+01
 Coeff:     -0.829D-02 0.245D-01 0.944D-01-0.556D-02 0.689D-02-0.250D+00
 Coeff:      0.822D-01 0.106D+01
 Gap=     0.066 Goal=   None    Shift=    0.000
 Gap=     0.062 Goal=   None    Shift=    0.000
 RMSDP=3.63D-04 MaxDP=2.00D-02 DE=-2.66D-03 OVMax= 1.21D-01

 Cycle   9  Pass 1  IDiag  1:
 RMSU=  9.06D-05    CP:  9.63D-01  1.82D+00  4.64D-01  4.50D-01  1.12D+00
                    CP:  1.58D+00  2.08D+00  1.79D+00
 E= -881.657357837728     Delta-E=       -0.002550418932 Rises=F Damp=F
 DIIS: error= 1.29D-03 at cycle   9 NSaved=   9.
 NSaved= 9 IEnMin= 9 EnMin= -881.657357837728     IErMin= 9 ErrMin= 1.29D-03
 ErrMax= 1.29D-03  0.00D+00 EMaxC= 1.00D-01 BMatC= 2.73D-03 BMatP= 3.09D-03
 IDIUse=3 WtCom= 9.87D-01 WtEn= 1.29D-02
 Coeff-Com:  0.304D-02 0.345D-03 0.581D-01-0.442D-02 0.621D-01 0.722D-02
 Coeff-Com: -0.254D+00 0.219D+00 0.909D+00
 Coeff-En:   0.000D+00 0.000D+00 0.000D+00 0.000D+00 0.000D+00 0.000D+00
 Coeff-En:   0.000D+00 0.000D+00 0.100D+01
 Coeff:      0.300D-02 0.341D-03 0.573D-01-0.436D-02 0.613D-01 0.713D-02
 Coeff:     -0.251D+00 0.216D+00 0.910D+00
 Gap=     0.063 Goal=   None    Shift=    0.000
 Gap=     0.065 Goal=   None    Shift=    0.000
 RMSDP=1.27D-04 MaxDP=6.20D-03 DE=-2.55D-03 OVMax= 4.03D-02

 Cycle  10  Pass 1  IDiag  1:
 RMSU=  4.57D-05    CP:  9.63D-01  1.83D+00  4.69D-01  4.85D-01  1.10D+00
                    CP:  1.58D+00  2.27D+00  2.27D+00  1.48D+00
 E= -881.658120036049     Delta-E=       -0.000762198321 Rises=F Damp=F
 DIIS: error= 9.59D-04 at cycle  10 NSaved=  10.
 NSaved=10 IEnMin=10 EnMin= -881.658120036049     IErMin=10 ErrMin= 9.59D-04
 ErrMax= 9.59D-04  0.00D+00 EMaxC= 1.00D-01 BMatC= 1.56D-03 BMatP= 2.73D-03
 IDIUse=3 WtCom= 9.90D-01 WtEn= 9.59D-03
 Coeff-Com: -0.594D-03 0.434D-02 0.287D-01-0.576D-02 0.605D-01 0.120D+00
 Coeff-Com: -0.246D+00-0.331D+00 0.582D+00 0.788D+00
 Coeff-En:   0.000D+00 0.000D+00 0.000D+00 0.000D+00 0.000D+00 0.000D+00
 Coeff-En:   0.000D+00 0.000D+00 0.000D+00 0.100D+01
 Coeff:     -0.588D-03 0.430D-02 0.285D-01-0.571D-02 0.599D-01 0.119D+00
 Coeff:     -0.244D+00-0.328D+00 0.576D+00 0.790D+00
 Gap=     0.061 Goal=   None    Shift=    0.000
 Gap=     0.065 Goal=   None    Shift=    0.000
 RMSDP=1.27D-04 MaxDP=7.17D-03 DE=-7.62D-04 OVMax= 3.94D-02

 Cycle  11  Pass 1  IDiag  1:
 RMSU=  3.96D-05    CP:  9.62D-01  1.83D+00  4.76D-01  5.18D-01  1.08D+00
                    CP:  1.59D+00  2.43D+00  2.78D+00  2.21D+00  1.20D+00
 E= -881.658725191023     Delta-E=       -0.000605154974 Rises=F Damp=F
 DIIS: error= 4.98D-04 at cycle  11 NSaved=  11.
 NSaved=11 IEnMin=11 EnMin= -881.658725191023     IErMin=11 ErrMin= 4.98D-04
 ErrMax= 4.98D-04  0.00D+00 EMaxC= 1.00D-01 BMatC= 4.74D-04 BMatP= 1.56D-03
 IDIUse=3 WtCom= 9.95D-01 WtEn= 4.98D-03
 Coeff-Com: -0.623D-02 0.108D-01-0.101D-01-0.565D-03 0.171D-01 0.169D+00
 Coeff-Com:  0.701D-01-0.500D+00-0.382D+00 0.505D+00 0.113D+01
 Coeff-En:   0.000D+00 0.000D+00 0.000D+00 0.000D+00 0.000D+00 0.000D+00
 Coeff-En:   0.000D+00 0.000D+00 0.000D+00 0.000D+00 0.100D+01
 Coeff:     -0.620D-02 0.108D-01-0.101D-01-0.562D-03 0.170D-01 0.169D+00
 Coeff:      0.698D-01-0.498D+00-0.380D+00 0.502D+00 0.113D+01
 Gap=     0.062 Goal=   None    Shift=    0.000
 Gap=     0.066 Goal=   None    Shift=    0.000
 RMSDP=9.63D-05 MaxDP=4.25D-03 DE=-6.05D-04 OVMax= 2.34D-02

 Cycle  12  Pass 1  IDiag  1:
 RMSU=  2.46D-05    CP:  9.62D-01  1.84D+00  4.80D-01  5.37D-01  1.06D+00
                    CP:  1.58D+00  2.53D+00  3.00D+00  2.83D+00  2.03D+00
                    CP:  1.36D+00
 E= -881.658959666336     Delta-E=       -0.000234475313 Rises=F Damp=F
 DIIS: error= 1.55D-04 at cycle  12 NSaved=  12.
 NSaved=12 IEnMin=12 EnMin= -881.658959666336     IErMin=12 ErrMin= 1.55D-04
 ErrMax= 1.55D-04  0.00D+00 EMaxC= 1.00D-01 BMatC= 4.78D-05 BMatP= 4.74D-04
 IDIUse=3 WtCom= 9.98D-01 WtEn= 1.55D-03
 Coeff-Com: -0.350D-02 0.613D-02-0.506D-02 0.567D-03-0.320D-02 0.360D-01
 Coeff-Com:  0.447D-01-0.175D+00-0.285D+00 0.108D+00 0.643D+00 0.633D+00
 Coeff-En:   0.000D+00 0.000D+00 0.000D+00 0.000D+00 0.000D+00 0.000D+00
 Coeff-En:   0.000D+00 0.000D+00 0.000D+00 0.000D+00 0.000D+00 0.100D+01
 Coeff:     -0.350D-02 0.612D-02-0.505D-02 0.566D-03-0.319D-02 0.359D-01
 Coeff:      0.446D-01-0.175D+00-0.285D+00 0.108D+00 0.642D+00 0.634D+00
 Gap=     0.061 Goal=   None    Shift=    0.000
 Gap=     0.068 Goal=   None    Shift=    0.000
 RMSDP=5.78D-05 MaxDP=3.13D-03 DE=-2.34D-04 OVMax= 1.82D-02

 Cycle  13  Pass 1  IDiag  1:
 RMSU=  2.67D-05    CP:  9.61D-01  1.84D+00  4.82D-01  5.52D-01  1.05D+00
                    CP:  1.58D+00  2.60D+00  3.00D+00  3.00D+00  2.14D+00
                    CP:  1.83D+00  1.19D+00
 E= -881.658989548889     Delta-E=       -0.000029882553 Rises=F Damp=F
 DIIS: error= 1.21D-04 at cycle  13 NSaved=  13.
 NSaved=13 IEnMin=13 EnMin= -881.658989548889     IErMin=13 ErrMin= 1.21D-04
 ErrMax= 1.21D-04  0.00D+00 EMaxC= 1.00D-01 BMatC= 3.19D-05 BMatP= 4.78D-05
 IDIUse=3 WtCom= 9.99D-01 WtEn= 1.21D-03
 Coeff-Com: -0.974D-03 0.148D-02-0.272D-02 0.165D-02-0.151D-02 0.118D-01
 Coeff-Com:  0.203D-01-0.687D-01-0.110D+00 0.601D-01 0.206D+00 0.400D+00
 Coeff-Com:  0.483D+00
 Coeff-En:   0.000D+00 0.000D+00 0.000D+00 0.000D+00 0.000D+00 0.000D+00
 Coeff-En:   0.000D+00 0.000D+00 0.000D+00 0.000D+00 0.000D+00 0.000D+00
 Coeff-En:   0.100D+01
 Coeff:     -0.972D-03 0.147D-02-0.272D-02 0.165D-02-0.151D-02 0.118D-01
 Coeff:      0.203D-01-0.686D-01-0.110D+00 0.600D-01 0.206D+00 0.399D+00
 Coeff:      0.484D+00
 Gap=     0.062 Goal=   None    Shift=    0.000
 Gap=     0.068 Goal=   None    Shift=    0.000
 RMSDP=7.56D-06 MaxDP=4.12D-04 DE=-2.99D-05 OVMax= 2.05D-03

 Cycle  14  Pass 1  IDiag  1:
 RMSU=  5.14D-06    CP:  9.61D-01  1.84D+00  4.82D-01  5.51D-01  1.05D+00
                    CP:  1.58D+00  2.59D+00  3.00D+00  3.00D+00  2.17D+00
                    CP:  1.76D+00  1.22D+00  8.52D-01
 E= -881.658997114365     Delta-E=       -0.000007565475 Rises=F Damp=F
 DIIS: error= 5.72D-05 at cycle  14 NSaved=  14.
 NSaved=14 IEnMin=14 EnMin= -881.658997114365     IErMin=14 ErrMin= 5.72D-05
 ErrMax= 5.72D-05  0.00D+00 EMaxC= 1.00D-01 BMatC= 7.13D-06 BMatP= 3.19D-05
 IDIUse=1 WtCom= 1.00D+00 WtEn= 0.00D+00
 Coeff-Com:  0.206D-03-0.411D-03-0.376D-03 0.940D-03-0.641D-04-0.533D-02
 Coeff-Com: -0.301D-02-0.144D-02 0.283D-01 0.476D-01-0.985D-01 0.391D-01
 Coeff-Com:  0.891D-01 0.904D+00
 Coeff:      0.206D-03-0.411D-03-0.376D-03 0.940D-03-0.641D-04-0.533D-02
 Coeff:     -0.301D-02-0.144D-02 0.283D-01 0.476D-01-0.985D-01 0.391D-01
 Coeff:      0.891D-01 0.904D+00
 Gap=     0.062 Goal=   None    Shift=    0.000
 Gap=     0.069 Goal=   None    Shift=    0.000
 RMSDP=5.39D-06 MaxDP=2.77D-04 DE=-7.57D-06 OVMax= 1.11D-03

 Cycle  15  Pass 1  IDiag  1:
 RMSU=  3.91D-06    CP:  9.61D-01  1.84D+00  4.81D-01  5.52D-01  1.05D+00
                    CP:  1.58D+00  2.60D+00  3.00D+00  3.00D+00  2.17D+00
                    CP:  1.76D+00  1.25D+00  9.17D-01  1.44D+00
 E= -881.658999701833     Delta-E=       -0.000002587468 Rises=F Damp=F
 DIIS: error= 4.78D-05 at cycle  15 NSaved=  15.
 NSaved=15 IEnMin=15 EnMin= -881.658999701833     IErMin=15 ErrMin= 4.78D-05
 ErrMax= 4.78D-05  0.00D+00 EMaxC= 1.00D-01 BMatC= 2.19D-06 BMatP= 7.13D-06
 IDIUse=1 WtCom= 1.00D+00 WtEn= 0.00D+00
 Coeff-Com:  0.374D-04-0.117D-03-0.417D-03 0.249D-03 0.130D-02 0.284D-02
 Coeff-Com: -0.141D-02 0.999D-03 0.420D-01 0.286D-01-0.122D+00-0.137D+00
 Coeff-Com: -0.249D+00 0.585D+00 0.848D+00
 Coeff:      0.374D-04-0.117D-03-0.417D-03 0.249D-03 0.130D-02 0.284D-02
 Coeff:     -0.141D-02 0.999D-03 0.420D-01 0.286D-01-0.122D+00-0.137D+00
 Coeff:     -0.249D+00 0.585D+00 0.848D+00
 Gap=     0.062 Goal=   None    Shift=    0.000
 Gap=     0.069 Goal=   None    Shift=    0.000
 RMSDP=4.86D-06 MaxDP=2.36D-04 DE=-2.59D-06 OVMax= 7.88D-04

 Cycle  16  Pass 1  IDiag  1:
 RMSU=  2.43D-06    CP:  9.61D-01  1.84D+00  4.81D-01  5.52D-01  1.05D+00
                    CP:  1.58D+00  2.59D+00  3.00D+00  3.00D+00  2.19D+00
                    CP:  1.73D+00  1.30D+00  8.94D-01  2.04D+00  1.38D+00
 E= -881.659000702229     Delta-E=       -0.000001000396 Rises=F Damp=F
 DIIS: error= 2.04D-05 at cycle  16 NSaved=  16.
 NSaved=16 IEnMin=16 EnMin= -881.659000702229     IErMin=16 ErrMin= 2.04D-05
 ErrMax= 2.04D-05  0.00D+00 EMaxC= 1.00D-01 BMatC= 8.65D-07 BMatP= 2.19D-06
 IDIUse=1 WtCom= 1.00D+00 WtEn= 0.00D+00
 Coeff-Com: -0.155D-03 0.285D-03-0.118D-03-0.118D-03 0.183D-03 0.189D-02
 Coeff-Com:  0.425D-03 0.360D-02 0.295D-02-0.187D-01-0.147D-01-0.654D-01
 Coeff-Com: -0.110D+00-0.498D-01 0.428D+00 0.822D+00
 Coeff:     -0.155D-03 0.285D-03-0.118D-03-0.118D-03 0.183D-03 0.189D-02
 Coeff:      0.425D-03 0.360D-02 0.295D-02-0.187D-01-0.147D-01-0.654D-01
 Coeff:     -0.110D+00-0.498D-01 0.428D+00 0.822D+00
 Gap=     0.061 Goal=   None    Shift=    0.000
 Gap=     0.069 Goal=   None    Shift=    0.000
 RMSDP=6.01D-06 MaxDP=2.81D-04 DE=-1.00D-06 OVMax= 1.79D-03

 Cycle  17  Pass 1  IDiag  1:
 RMSU=  2.25D-06    CP:  9.61D-01  1.84D+00  4.81D-01  5.53D-01  1.05D+00
                    CP:  1.58D+00  2.60D+00  3.00D+00  3.00D+00  2.22D+00
                    CP:  1.77D+00  1.35D+00  1.01D+00  2.19D+00  1.66D+00
                    CP:  1.34D+00
 E= -881.659001475764     Delta-E=       -0.000000773535 Rises=F Damp=F
 DIIS: error= 1.44D-05 at cycle  17 NSaved=  17.
 NSaved=17 IEnMin=17 EnMin= -881.659001475764     IErMin=17 ErrMin= 1.44D-05
 ErrMax= 1.44D-05  0.00D+00 EMaxC= 1.00D-01 BMatC= 2.04D-07 BMatP= 8.65D-07
 IDIUse=1 WtCom= 1.00D+00 WtEn= 0.00D+00
 Coeff-Com: -0.650D-04 0.116D-03-0.152D-04-0.649D-04 0.636D-05 0.116D-02
 Coeff-Com:  0.404D-03 0.171D-02-0.580D-02-0.201D-01 0.143D-01-0.171D-01
 Coeff-Com: -0.459D-02-0.142D+00 0.835D-01 0.399D+00 0.689D+00
 Coeff:     -0.650D-04 0.116D-03-0.152D-04-0.649D-04 0.636D-05 0.116D-02
 Coeff:      0.404D-03 0.171D-02-0.580D-02-0.201D-01 0.143D-01-0.171D-01
 Coeff:     -0.459D-02-0.142D+00 0.835D-01 0.399D+00 0.689D+00
 Gap=     0.061 Goal=   None    Shift=    0.000
 Gap=     0.069 Goal=   None    Shift=    0.000
 RMSDP=2.38D-06 MaxDP=1.15D-04 DE=-7.74D-07 OVMax= 6.62D-04

 Cycle  18  Pass 1  IDiag  1:
 RMSU=  5.37D-07    CP:  9.61D-01  1.84D+00  4.81D-01  5.54D-01  1.05D+00
                    CP:  1.58D+00  2.60D+00  3.00D+00  3.00D+00  2.23D+00
                    CP:  1.78D+00  1.37D+00  1.05D+00  2.23D+00  1.74D+00
                    CP:  1.61D+00  1.30D+00
 E= -881.659001610822     Delta-E=       -0.000000135058 Rises=F Damp=F
 DIIS: error= 4.55D-06 at cycle  18 NSaved=  18.
 NSaved=18 IEnMin=18 EnMin= -881.659001610822     IErMin=18 ErrMin= 4.55D-06
 ErrMax= 4.55D-06  0.00D+00 EMaxC= 1.00D-01 BMatC= 4.48D-08 BMatP= 2.04D-07
 IDIUse=1 WtCom= 1.00D+00 WtEn= 0.00D+00
 Coeff-Com:  0.414D-04-0.687D-04 0.132D-03-0.618D-05-0.719D-04-0.644D-03
 Coeff-Com: -0.567D-03 0.157D-02-0.238D-02-0.780D-02 0.112D-01 0.110D-01
 Coeff-Com:  0.444D-01-0.646D-01-0.108D+00-0.909D-01 0.429D+00 0.778D+00
 Coeff:      0.414D-04-0.687D-04 0.132D-03-0.618D-05-0.719D-04-0.644D-03
 Coeff:     -0.567D-03 0.157D-02-0.238D-02-0.780D-02 0.112D-01 0.110D-01
 Coeff:      0.444D-01-0.646D-01-0.108D+00-0.909D-01 0.429D+00 0.778D+00
 Gap=     0.061 Goal=   None    Shift=    0.000
 Gap=     0.069 Goal=   None    Shift=    0.000
 RMSDP=1.41D-06 MaxDP=5.68D-05 DE=-1.35D-07 OVMax= 3.71D-04

 Cycle  19  Pass 1  IDiag  1:
 RMSU=  3.20D-07    CP:  9.61D-01  1.84D+00  4.81D-01  5.54D-01  1.05D+00
                    CP:  1.58D+00  2.60D+00  3.00D+00  3.00D+00  2.23D+00
                    CP:  1.79D+00  1.38D+00  1.08D+00  2.25D+00  1.78D+00
                    CP:  1.74D+00  1.51D+00  1.06D+00
 E= -881.659001635253     Delta-E=       -0.000000024431 Rises=F Damp=F
 DIIS: error= 1.48D-06 at cycle  19 NSaved=  19.
 NSaved=19 IEnMin=19 EnMin= -881.659001635253     IErMin=19 ErrMin= 1.48D-06
 ErrMax= 1.48D-06  0.00D+00 EMaxC= 1.00D-01 BMatC= 4.71D-09 BMatP= 4.48D-08
 IDIUse=1 WtCom= 1.00D+00 WtEn= 0.00D+00
 Coeff-Com:  0.306D-04-0.513D-04 0.552D-04-0.749D-05 0.158D-04-0.254D-03
 Coeff-Com: -0.287D-03 0.261D-03 0.161D-02 0.225D-02-0.895D-03 0.310D-02
 Coeff-Com:  0.942D-02 0.849D-02-0.347D-01-0.950D-01-0.808D-02 0.212D+00
 Coeff-Com:  0.902D+00
 Coeff:      0.306D-04-0.513D-04 0.552D-04-0.749D-05 0.158D-04-0.254D-03
 Coeff:     -0.287D-03 0.261D-03 0.161D-02 0.225D-02-0.895D-03 0.310D-02
 Coeff:      0.942D-02 0.849D-02-0.347D-01-0.950D-01-0.808D-02 0.212D+00
 Coeff:      0.902D+00
 Gap=     0.061 Goal=   None    Shift=    0.000
 Gap=     0.069 Goal=   None    Shift=    0.000
 RMSDP=5.17D-07 MaxDP=2.99D-05 DE=-2.44D-08 OVMax= 1.61D-04

 Cycle  20  Pass 1  IDiag  1:
 RMSU=  1.84D-07    CP:  9.61D-01  1.84D+00  4.81D-01  5.54D-01  1.05D+00
                    CP:  1.58D+00  2.60D+00  3.00D+00  3.00D+00  2.23D+00
                    CP:  1.79D+00  1.38D+00  1.07D+00  2.27D+00  1.79D+00
                    CP:  1.76D+00  1.47D+00  1.18D+00  1.56D+00
 E= -881.659001641024     Delta-E=       -0.000000005771 Rises=F Damp=F
 DIIS: error= 1.38D-06 at cycle  20 NSaved=  20.
 NSaved=20 IEnMin=20 EnMin= -881.659001641024     IErMin=20 ErrMin= 1.38D-06
 ErrMax= 1.38D-06  0.00D+00 EMaxC= 1.00D-01 BMatC= 2.41D-09 BMatP= 4.71D-09
 IDIUse=1 WtCom= 1.00D+00 WtEn= 0.00D+00
 Coeff-Com:  0.112D-04-0.176D-04 0.234D-04-0.727D-05 0.166D-04-0.101D-03
 Coeff-Com: -0.171D-03 0.202D-03 0.179D-02 0.267D-02-0.286D-02-0.628D-03
 Coeff-Com: -0.126D-02 0.173D-01 0.417D-02-0.443D-01-0.901D-01-0.460D-01
 Coeff-Com:  0.533D+00 0.626D+00
 Coeff:      0.112D-04-0.176D-04 0.234D-04-0.727D-05 0.166D-04-0.101D-03
 Coeff:     -0.171D-03 0.202D-03 0.179D-02 0.267D-02-0.286D-02-0.628D-03
 Coeff:     -0.126D-02 0.173D-01 0.417D-02-0.443D-01-0.901D-01-0.460D-01
 Coeff:      0.533D+00 0.626D+00
 Gap=     0.061 Goal=   None    Shift=    0.000
 Gap=     0.069 Goal=   None    Shift=    0.000
 RMSDP=2.34D-07 MaxDP=1.26D-05 DE=-5.77D-09 OVMax= 6.90D-05

 Cycle  21  Pass 1  IDiag  1:
 Restarting incremental Fock formation.
 E= -881.659001642135     Delta-E=       -0.000000001111 Rises=F Damp=F
 DIIS: error= 5.68D-07 at cycle  21 NSaved=  20.
 NSaved=20 IEnMin=20 EnMin= -881.659001642135     IErMin=20 ErrMin= 5.68D-07
 ErrMax= 5.68D-07  0.00D+00 EMaxC= 1.00D-01 BMatC= 1.06D-09 BMatP= 2.41D-09
 IDIUse=1 WtCom= 1.00D+00 WtEn= 0.00D+00
 Coeff-Com:  0.828D-06 0.729D-05-0.263D-05-0.331D-05-0.387D-04-0.103D-03
 Coeff-Com:  0.251D-03 0.463D-03 0.169D-03-0.576D-03-0.762D-03 0.544D-03
 Coeff-Com:  0.306D-02 0.983D-02-0.581D-02-0.282D-01-0.690D-01 0.176D-01
 Coeff-Com:  0.258D+00 0.814D+00
 Coeff:      0.828D-06 0.729D-05-0.263D-05-0.331D-05-0.387D-04-0.103D-03
 Coeff:      0.251D-03 0.463D-03 0.169D-03-0.576D-03-0.762D-03 0.544D-03
 Coeff:      0.306D-02 0.983D-02-0.581D-02-0.282D-01-0.690D-01 0.176D-01
 Coeff:      0.258D+00 0.814D+00
 Gap=     0.061 Goal=   None    Shift=    0.000
 Gap=     0.069 Goal=   None    Shift=    0.000
 RMSDP=7.70D-08 MaxDP=4.61D-06 DE=-1.11D-09 OVMax= 1.93D-05

 Cycle  22  Pass 1  IDiag  1:
 RMSU=  7.70D-08    CP:  1.00D+00
 E= -881.659001642498     Delta-E=       -0.000000000364 Rises=F Damp=F
 DIIS: error= 2.19D-07 at cycle  22 NSaved=  20.
 NSaved=20 IEnMin=20 EnMin= -881.659001642498     IErMin=20 ErrMin= 2.19D-07
 ErrMax= 2.19D-07  0.00D+00 EMaxC= 1.00D-01 BMatC= 8.14D-11 BMatP= 1.06D-09
 IDIUse=1 WtCom= 1.00D+00 WtEn= 0.00D+00
 Coeff-Com:  0.144D-05-0.118D-05-0.265D-05-0.542D-05-0.410D-04 0.174D-03
 Coeff-Com:  0.628D-04-0.449D-03-0.891D-05-0.659D-03 0.571D-03-0.145D-02
 Coeff-Com:  0.575D-02 0.397D-02 0.115D-02-0.294D-01-0.794D-01 0.346D-01
 Coeff-Com:  0.428D+00 0.637D+00
 Coeff:      0.144D-05-0.118D-05-0.265D-05-0.542D-05-0.410D-04 0.174D-03
 Coeff:      0.628D-04-0.449D-03-0.891D-05-0.659D-03 0.571D-03-0.145D-02
 Coeff:      0.575D-02 0.397D-02 0.115D-02-0.294D-01-0.794D-01 0.346D-01
 Coeff:      0.428D+00 0.637D+00
 Gap=     0.061 Goal=   None    Shift=    0.000
 Gap=     0.069 Goal=   None    Shift=    0.000
 RMSDP=3.45D-08 MaxDP=1.59D-06 DE=-3.64D-10 OVMax= 9.61D-06

 Cycle  23  Pass 1  IDiag  1:
 RMSU=  2.31D-08    CP:  1.00D+00  1.33D+00
 E= -881.659001642527     Delta-E=       -0.000000000028 Rises=F Damp=F
 DIIS: error= 8.23D-08 at cycle  23 NSaved=  20.
 NSaved=20 IEnMin=20 EnMin= -881.659001642527     IErMin=20 ErrMin= 8.23D-08
 ErrMax= 8.23D-08  0.00D+00 EMaxC= 1.00D-01 BMatC= 1.27D-11 BMatP= 8.14D-11
 IDIUse=1 WtCom= 1.00D+00 WtEn= 0.00D+00
 Coeff-Com:  0.181D-06-0.680D-06 0.216D-05 0.262D-05 0.255D-04-0.456D-04
 Coeff-Com: -0.222D-03 0.632D-04-0.181D-03 0.102D-03-0.116D-02 0.434D-03
 Coeff-Com:  0.283D-02 0.628D-02 0.302D-02-0.369D-01-0.391D-01-0.163D-01
 Coeff-Com:  0.306D+00 0.776D+00
 Coeff:      0.181D-06-0.680D-06 0.216D-05 0.262D-05 0.255D-04-0.456D-04
 Coeff:     -0.222D-03 0.632D-04-0.181D-03 0.102D-03-0.116D-02 0.434D-03
 Coeff:      0.283D-02 0.628D-02 0.302D-02-0.369D-01-0.391D-01-0.163D-01
 Coeff:      0.306D+00 0.776D+00
 Gap=     0.061 Goal=   None    Shift=    0.000
 Gap=     0.069 Goal=   None    Shift=    0.000
 RMSDP=1.39D-08 MaxDP=9.97D-07 DE=-2.82D-11 OVMax= 3.76D-06

 Cycle  24  Pass 1  IDiag  1:
 RMSU=  7.54D-09    CP:  1.00D+00  1.47D+00  1.20D+00
 E= -881.659001642535     Delta-E=       -0.000000000009 Rises=F Damp=F
 DIIS: error= 3.74D-08 at cycle  24 NSaved=  20.
 NSaved=20 IEnMin=20 EnMin= -881.659001642535     IErMin=20 ErrMin= 3.74D-08
 ErrMax= 3.74D-08  0.00D+00 EMaxC= 1.00D-01 BMatC= 2.99D-12 BMatP= 1.27D-11
 IDIUse=1 WtCom= 1.00D+00 WtEn= 0.00D+00
 Coeff-Com: -0.117D-05-0.279D-05 0.762D-05-0.153D-04-0.477D-04-0.508D-04
 Coeff-Com:  0.602D-04 0.661D-04 0.616D-05-0.475D-03-0.102D-02 0.986D-03
 Coeff-Com:  0.372D-02 0.747D-02-0.867D-02-0.290D-01-0.874D-01 0.526D-01
 Coeff-Com:  0.424D+00 0.638D+00
 Coeff:     -0.117D-05-0.279D-05 0.762D-05-0.153D-04-0.477D-04-0.508D-04
 Coeff:      0.602D-04 0.661D-04 0.616D-05-0.475D-03-0.102D-02 0.986D-03
 Coeff:      0.372D-02 0.747D-02-0.867D-02-0.290D-01-0.874D-01 0.526D-01
 Coeff:      0.424D+00 0.638D+00
 Gap=     0.061 Goal=   None    Shift=    0.000
 Gap=     0.069 Goal=   None    Shift=    0.000
 RMSDP=4.29D-09 MaxDP=2.79D-07 DE=-8.87D-12 OVMax= 7.68D-07

 Error on total polarization charges =  0.01004
 SCF Done:  E(UB3LYP) =  -881.659001643     A.U. after   24 cycles
            NFock= 24  Conv=0.43D-08     -V/T= 2.0094
 <Sx>= 0.0000 <Sy>= 0.0000 <Sz>= 0.0000 <S**2>= 1.0111 S= 0.6230
 <L.S>=  0.00000000000    
 KE= 8.734466385377D+02 PE=-5.276589458958D+03 EE= 1.907795099580D+03
 Annihilation of the first spin contaminant:
 S**2 before annihilation     1.0111,   after     0.1420
 Leave Link  502 at Tue Jun 11 16:40:17 2019, MaxMem=   104857600 cpu:            2462.0 elap:              62.7
 (Enter /project/6004141/group/g16/g16/l601.exe)
 Copying SCF densities to generalized density rwf, IOpCl= 1 IROHF=0.

 **********************************************************************

            Population analysis using the SCF density.

 **********************************************************************

 Orbital symmetries:
 Alpha Orbitals:
       Occupied  (A) (A) (A) (A) (A) (A) (A) (A) (A) (A) (A) (A)
                 (A) (A) (A) (A) (A) (A) (A) (A) (A) (A) (A) (A)
                 (A) (A) (A) (A) (A) (A) (A) (A) (A) (A) (A) (A)
                 (A) (A) (A) (A) (A) (A) (A) (A) (A) (A) (A) (A)
                 (A) (A) (A) (A) (A) (A) (A) (A) (A) (A) (A) (A)
                 (A) (A) (A) (A) (A) (A) (A) (A) (A) (A) (A) (A)
                 (A)
       Virtual   (A) (A) (A) (A) (A) (A) (A) (A) (A) (A) (A) (A)
                 (A) (A) (A) (A) (A) (A) (A) (A) (A) (A) (A) (A)
                 (A) (A) (A) (A) (A) (A) (A) (A) (A) (A) (A) (A)
                 (A) (A) (A) (A) (A) (A) (A) (A) (A) (A) (A) (A)
                 (A) (A) (A) (A) (A) (A) (A) (A) (A) (A) (A) (A)
                 (A) (A) (A) (A) (A) (A) (A) (A) (A) (A) (A) (A)
                 (A) (A) (A) (A) (A) (A) (A) (A) (A) (A) (A) (A)
                 (A) (A) (A) (A) (A) (A) (A) (A) (A) (A) (A) (A)
                 (A) (A) (A) (A) (A) (A) (A) (A) (A) (A) (A) (A)
                 (A) (A) (A) (A) (A) (A) (A) (A) (A) (A) (A) (A)
                 (A) (A) (A) (A) (A) (A) (A) (A) (A) (A) (A) (A)
                 (A) (A) (A) (A) (A) (A) (A) (A) (A) (A) (A) (A)
                 (A) (A) (A) (A) (A) (A) (A) (A) (A) (A) (A) (A)
                 (A) (A) (A) (A) (A) (A) (A) (A) (A) (A) (A) (A)
                 (A) (A) (A) (A) (A) (A) (A) (A) (A) (A) (A) (A)
                 (A) (A) (A) (A) (A) (A) (A) (A) (A) (A) (A) (A)
                 (A) (A) (A) (A) (A) (A) (A) (A) (A) (A) (A) (A)
                 (A) (A) (A) (A) (A) (A) (A) (A) (A) (A) (A) (A)
                 (A) (A) (A) (A) (A) (A) (A) (A) (A) (A) (A) (A)
                 (A) (A) (A) (A) (A) (A) (A) (A) (A) (A) (A) (A)
[...]
    20  C(13)             -0.02385     -13.40527      -4.78333      -4.47152
    21  C(13)             -0.02366     -13.30148      -4.74630      -4.43690
    22  C(13)              0.01748       9.82440       3.50559       3.27707
    23  H(1)               0.00334       7.46123       2.66235       2.48880
    24  C(13)              0.01745       9.80906       3.50012       3.27195
    25  H(1)               0.00322       7.20707       2.57166       2.40402
    26  C(13)             -0.02705     -15.20545      -5.42568      -5.07199
    27  H(1)              -0.00135      -3.00973      -1.07395      -1.00394
    28  H(1)              -0.00129      -2.89034      -1.03135      -0.96411
    29  H(1)               0.00381       8.50597       3.03514       2.83729
    30  C(13)              0.00058       0.32502       0.11598       0.10842
    31  C(13)             -0.00051      -0.28450      -0.10152      -0.09490
    32  C(13)             -0.00082      -0.46150      -0.16468      -0.15394
    33  C(13)              0.00044       0.24822       0.08857       0.08280
    34  H(1)               0.00006       0.12506       0.04462       0.04171
    35  C(13)              0.00044       0.24988       0.08916       0.08335
    36  H(1)               0.00009       0.20053       0.07155       0.06689
    37  C(13)             -0.00079      -0.44581      -0.15908      -0.14871
    38  H(1)              -0.00004      -0.08975      -0.03202      -0.02994
    39  H(1)              -0.00008      -0.17305      -0.06175      -0.05772
    40  H(1)               0.00012       0.26017       0.09283       0.08678
 --------------------------------------------------------
       Center         ----  Spin Dipole Couplings  ----
                      3XX-RR        3YY-RR        3ZZ-RR
 --------------------------------------------------------
     1   Atom        0.356536     -0.500596      0.144060
     2   Atom       -0.020458     -0.047712      0.068170
     3   Atom        0.007647     -0.006726     -0.000920
     4   Atom        0.017798     -0.021684      0.003886
     5   Atom        0.331442     -0.378115      0.046673
     6   Atom        0.822372     -0.412705     -0.409667
     7   Atom       -0.016823     -0.035450      0.052273
     8   Atom        1.443271     -0.710309     -0.732962
     9   Atom        0.010290      0.006376     -0.016667
    10   Atom       -0.019385      0.049017     -0.029633
    11   Atom        0.006113     -0.002341     -0.003772
    12   Atom        0.006347      0.002171     -0.008518
    13   Atom        0.006688     -0.006178     -0.000510
    14   Atom       -0.002193      0.002882     -0.000689
    15   Atom        0.001752     -0.000487     -0.001266
    16   Atom        0.001526     -0.000829     -0.000697
    17   Atom        0.006054     -0.002057     -0.003998
    18   Atom       -0.001478     -0.000301      0.001779
    19   Atom       -0.053935      0.067898     -0.013963
    20   Atom        0.102720     -0.158979      0.056260
    21   Atom        0.104287     -0.158200      0.053913
    22   Atom       -0.050420      0.069515     -0.019096
    23   Atom        0.002787      0.001116     -0.003903
    24   Atom       -0.045990      0.066937     -0.020947
    25   Atom        0.010239      0.000484     -0.010723
    26   Atom        0.117106     -0.181775      0.064669
    27   Atom       -0.005010      0.003167      0.001843
    28   Atom       -0.002939      0.002933      0.000006
    29   Atom       -0.015599      0.002747      0.012853
    30   Atom        0.002192     -0.002230      0.000038
    31   Atom        0.003436     -0.004315      0.000879
    32   Atom        0.005083     -0.004128     -0.000955
    33   Atom       -0.000208     -0.000412      0.000619
    34   Atom        0.001581     -0.001986      0.000405
    35   Atom       -0.000353     -0.000122      0.000476
    36   Atom        0.002770     -0.002080     -0.000690
    37   Atom        0.004443     -0.006580      0.002137
    38   Atom        0.000613     -0.001010      0.000396
    39   Atom        0.000741     -0.001536      0.000795
    40   Atom       -0.000110     -0.000744      0.000854
 --------------------------------------------------------
                        XY            XZ            YZ
 --------------------------------------------------------
     1   Atom       -0.021889      0.005160      0.419465
     2   Atom       -0.012002      0.004710     -0.049848
     3   Atom       -0.003344      0.001351      0.007129
     4   Atom       -0.005512     -0.000570      0.008460
     5   Atom        0.116985     -0.002507      0.344870
     6   Atom        0.036064     -0.069464      0.008176
     7   Atom        0.000017     -0.009262     -0.012582
     8   Atom       -0.360046     -0.096972      0.011042
     9   Atom        0.036343     -0.005675     -0.000302
    10   Atom       -0.013854      0.000710     -0.023718
    11   Atom       -0.003478     -0.010409     -0.004258
    12   Atom        0.000259     -0.003537     -0.005514
    13   Atom       -0.006975     -0.010420     -0.004286
    14   Atom        0.001067     -0.013542     -0.003749
    15   Atom       -0.003903      0.004920     -0.000334
    16   Atom       -0.001505      0.002209      0.000683
    17   Atom       -0.002710      0.007494      0.003159
    18   Atom       -0.003650      0.004937     -0.003017
    19   Atom       -0.001845     -0.004930     -0.047293
    20   Atom       -0.009882      0.002927      0.110338
    21   Atom       -0.010669      0.004327      0.118004
    22   Atom        0.006221     -0.000240     -0.048185
    23   Atom        0.004465      0.009928     -0.002677
    24   Atom        0.003528     -0.007871     -0.049813
    25   Atom       -0.001118     -0.003867     -0.005385
    26   Atom       -0.014366      0.003846      0.138648
    27   Atom        0.001017      0.001213     -0.000789
    28   Atom       -0.001156     -0.003367     -0.001446
    29   Atom       -0.002475     -0.007203      0.006126
    30   Atom       -0.000889      0.000176      0.000547
    31   Atom       -0.000805     -0.000081      0.002279
    32   Atom        0.000653     -0.000476      0.006343
    33   Atom        0.000354     -0.000235     -0.001872
    34   Atom       -0.001336     -0.000664     -0.000108
    35   Atom        0.000995     -0.000977     -0.000751
    36   Atom        0.000359     -0.000086      0.002215
    37   Atom        0.001157     -0.000254      0.004821
    38   Atom        0.000142     -0.000111     -0.000412
    39   Atom        0.000632     -0.000544      0.001209
    40   Atom        0.000917      0.000221      0.000006
 --------------------------------------------------------


 ---------------------------------------------------------------------------------
              Anisotropic Spin Dipole Couplings in Principal Axis System
 ---------------------------------------------------------------------------------

       Atom             a.u.   MegaHertz   Gauss  10(-4) cm-1        Axes

              Baa    -0.7077   -94.970   -33.888   -31.679  0.0206  0.8969 -0.4418
     1 C(13)  Bbb     0.3479    46.689    16.660    15.574  0.4864  0.3771  0.7882
              Bcc     0.3598    48.281    17.228    16.105  0.8735 -0.2311 -0.4285
 
              Baa    -0.0682   -36.368   -12.977   -12.131  0.1995  0.9225  0.3304
     2 H(1)   Bbb    -0.0192   -10.238    -3.653    -3.415  0.9766 -0.1597 -0.1438
              Bcc     0.0874    46.606    16.630    15.546  0.0799 -0.3514  0.9328
 
              Baa    -0.0122    -1.631    -0.582    -0.544  0.1758  0.8214 -0.5426
     3 C(13)  Bbb     0.0038     0.504     0.180     0.168  0.1562  0.5209  0.8392
              Bcc     0.0084     1.127     0.402     0.376  0.9720 -0.2323 -0.0368
 
              Baa    -0.0248     1.798     0.641     0.600  0.1195  0.9531 -0.2782
     4 O(17)  Bbb     0.0061    -0.439    -0.157    -0.147  0.1670  0.2570  0.9519
              Bcc     0.0188    -1.359    -0.485    -0.453  0.9787 -0.1602 -0.1285
 
              Baa    -0.5825    42.148    15.039    14.059 -0.1128  0.8711 -0.4779
     5 O(17)  Bbb     0.2160   -15.628    -5.577    -5.213 -0.3907  0.4034  0.8274
              Bcc     0.3665   -26.520    -9.463    -8.846  0.9136  0.2801  0.2949
 
              Baa    -0.4238   -16.346    -5.833    -5.453 -0.0597  0.7095 -0.7022
     6 N(14)  Bbb    -0.4035   -15.561    -5.552    -5.191  0.0195  0.7042  0.7098
              Bcc     0.8273    31.907    11.385    10.643  0.9980  0.0287 -0.0559
 
              Baa    -0.0373   -19.902    -7.102    -6.639  0.0649  0.9872  0.1454
     7 H(1)   Bbb    -0.0179    -9.555    -3.410    -3.187  0.9899 -0.0822  0.1159
              Bcc     0.0552    29.458    10.511     9.826 -0.1264 -0.1364  0.9826
 
              Baa    -0.7696   -29.681   -10.591    -9.901  0.1650  0.9759  0.1428
     8 N(14)  Bbb    -0.7365   -28.406   -10.136    -9.475  0.0196 -0.1480  0.9888
              Bcc     1.5061    58.088    20.727    19.376  0.9861 -0.1604 -0.0435
 
              Baa    -0.0292   -15.564    -5.554    -5.191 -0.6708  0.6834 -0.2880
     9 H(1)   Bbb    -0.0159    -8.464    -3.020    -2.823 -0.1489  0.2563  0.9551
              Bcc     0.0450    24.028     8.574     8.015  0.7265  0.6836 -0.0702
 
              Baa    -0.0368   -19.648    -7.011    -6.554  0.1923  0.2901  0.9375
    10 H(1)   Bbb    -0.0212   -11.291    -4.029    -3.766  0.9661  0.1120 -0.2328
              Bcc     0.0580    30.940    11.040    10.320 -0.1726  0.9504 -0.2587
 
              Baa    -0.0131    -1.761    -0.628    -0.587  0.4864  0.4523  0.7476
    11 C(13)  Bbb     0.0004     0.053     0.019     0.018 -0.2010  0.8906 -0.4080
              Bcc     0.0127     1.708     0.609     0.570  0.8503 -0.0481 -0.5241
 
              Baa    -0.0114    -6.092    -2.174    -2.032  0.1765  0.3672  0.9133
    12 H(1)   Bbb     0.0037     1.983     0.707     0.661 -0.4366  0.8608 -0.2617
              Bcc     0.0077     4.110     1.466     1.371  0.8822  0.3525 -0.3122
 
              Baa    -0.0148    -7.899    -2.818    -2.635  0.4882  0.6717  0.5573
    13 H(1)   Bbb     0.0001     0.072     0.026     0.024 -0.2566  0.7208 -0.6439
              Bcc     0.0147     7.827     2.793     2.611  0.8342 -0.1713 -0.5242
 
              Baa    -0.0152    -8.104    -2.892    -2.703  0.7138  0.1016  0.6930
    14 H(1)   Bbb     0.0019     1.016     0.363     0.339 -0.2920  0.9425  0.1626
              Bcc     0.0133     7.088     2.529     2.364 -0.6366 -0.3184  0.7024
 
              Baa    -0.0059    -0.787    -0.281    -0.262 -0.6345 -0.4205  0.6485
    15 C(13)  Bbb    -0.0011    -0.147    -0.053    -0.049  0.0747  0.8018  0.5929
              Bcc     0.0070     0.934     0.333     0.312  0.7693 -0.4246  0.4774
 
              Baa    -0.0030    -1.596    -0.569    -0.532 -0.5071 -0.5599  0.6552
    16 H(1)   Bbb    -0.0001    -0.071    -0.025    -0.024 -0.0900  0.7905  0.6059
              Bcc     0.0031     1.667     0.595     0.556  0.8572 -0.2483  0.4512
 
              Baa    -0.0101    -5.371    -1.916    -1.792 -0.4372 -0.4541  0.7763
    17 H(1)   Bbb    -0.0001    -0.031    -0.011    -0.010 -0.1437  0.8873  0.4381
              Bcc     0.0101     5.402     1.927     1.802  0.8878 -0.0800  0.4532
 
              Baa    -0.0055    -2.926    -1.044    -0.976  0.8373  0.3409 -0.4275
    18 H(1)   Bbb    -0.0025    -1.307    -0.467    -0.436 -0.0216  0.8018  0.5971
              Bcc     0.0079     4.234     1.511     1.412  0.5463 -0.4908  0.6787
 
              Baa    -0.0553    -7.425    -2.649    -2.477  0.9664  0.1045  0.2347
    19 C(13)  Bbb    -0.0342    -4.587    -1.637    -1.530 -0.2569  0.4024  0.8787
              Bcc     0.0895    12.012     4.286     4.007  0.0026  0.9095 -0.4158
 
              Baa    -0.2058   -27.621    -9.856    -9.213  0.0332  0.9210 -0.3881
    20 C(13)  Bbb     0.1018    13.656     4.873     4.555  0.6609  0.2711  0.6998
              Bcc     0.1041    13.965     4.983     4.658  0.7497 -0.2797 -0.5998
 
              Baa    -0.2112   -28.344   -10.114    -9.455  0.0364  0.9128 -0.4068
    21 C(13)  Bbb     0.1046    14.040     5.010     4.683  0.9786  0.0500  0.1998
              Bcc     0.1066    14.304     5.104     4.771 -0.2027  0.4054  0.8914
 
              Baa    -0.0511    -6.862    -2.448    -2.289  0.9780 -0.1189 -0.1716
    22 C(13)  Bbb    -0.0398    -5.337    -1.904    -1.780  0.2047  0.3851  0.8999
              Bcc     0.0909    12.199     4.353     4.069  0.0410  0.9152 -0.4010
 
              Baa    -0.0127    -6.781    -2.420    -2.262 -0.5748  0.3306  0.7485
    23 H(1)   Bbb     0.0023     1.213     0.433     0.405 -0.0091  0.9121 -0.4098
              Bcc     0.0104     5.567     1.987     1.857  0.8182  0.2423  0.5213
 
              Baa    -0.0508    -6.811    -2.430    -2.272  0.7876  0.2200  0.5756
    24 C(13)  Bbb    -0.0390    -5.229    -1.866    -1.744 -0.6143  0.3525  0.7059
              Bcc     0.0897    12.041     4.296     4.016  0.0476  0.9096 -0.4128
 
              Baa    -0.0136    -7.238    -2.583    -2.414  0.1660  0.3644  0.9163
    25 H(1)   Bbb     0.0026     1.405     0.501     0.469 -0.0471  0.9311 -0.3618
              Bcc     0.0109     5.833     2.081     1.946  0.9850 -0.0169 -0.1717
 
              Baa    -0.2446   -32.828   -11.714   -10.950  0.0406  0.9116 -0.4091
    26 C(13)  Bbb     0.1171    15.717     5.608     5.243  0.9711  0.0604  0.2308
              Bcc     0.1275    17.111     6.106     5.708 -0.2351  0.4067  0.8828
 
              Baa    -0.0054    -2.865    -1.022    -0.956  0.9750 -0.1326 -0.1785
    27 H(1)   Bbb     0.0018     0.967     0.345     0.323  0.2155  0.3657  0.9054
              Bcc     0.0036     1.898     0.677     0.633  0.0548  0.9212 -0.3852
 
              Baa    -0.0055    -2.940    -1.049    -0.981  0.8106  0.2050  0.5485
    28 H(1)   Bbb     0.0020     1.051     0.375     0.351 -0.5824  0.3798  0.7187
              Bcc     0.0035     1.889     0.674     0.630  0.0610  0.9021 -0.4273
 
              Baa    -0.0174    -9.268    -3.307    -3.091  0.9738  0.0524  0.2214
    29 H(1)   Bbb    -0.0001    -0.056    -0.020    -0.019  0.0435  0.9123 -0.4071
              Bcc     0.0175     9.324     3.327     3.110 -0.2234  0.4061  0.8861
 
              Baa    -0.0025    -0.339    -0.121    -0.113  0.1885  0.9578 -0.2170
    30 C(13)  Bbb     0.0002     0.022     0.008     0.007  0.0114  0.2188  0.9757
              Bcc     0.0024     0.318     0.113     0.106  0.9820 -0.1863  0.0304
 
              Baa    -0.0052    -0.702    -0.251    -0.234  0.0835  0.9341 -0.3471
    31 C(13)  Bbb     0.0017     0.224     0.080     0.075  0.1909  0.3269  0.9256
              Bcc     0.0036     0.479     0.171     0.160  0.9780 -0.1435 -0.1511
 
              Baa    -0.0091    -1.225    -0.437    -0.408 -0.0567  0.7870 -0.6143
    32 C(13)  Bbb     0.0040     0.536     0.191     0.179 -0.0236  0.6141  0.7889
              Bcc     0.0051     0.688     0.246     0.230  0.9981  0.0592 -0.0163
 
              Baa    -0.0018    -0.248    -0.089    -0.083 -0.0865  0.7979  0.5966
    33 C(13)  Bbb    -0.0003    -0.036    -0.013    -0.012  0.9815 -0.0344  0.1883
              Bcc     0.0021     0.284     0.101     0.095 -0.1707 -0.6019  0.7801
 
              Baa    -0.0025    -1.316    -0.470    -0.439  0.3280  0.9381  0.1110
    34 H(1)   Bbb     0.0002     0.129     0.046     0.043  0.2640 -0.2038  0.9428
              Bcc     0.0022     1.186     0.423     0.396  0.9071 -0.2799 -0.3145
 
              Baa    -0.0013    -0.173    -0.062    -0.058  0.8070 -0.5513  0.2119
    35 C(13)  Bbb    -0.0006    -0.075    -0.027    -0.025  0.2562  0.6501  0.7154
              Bcc     0.0018     0.248     0.088     0.083 -0.5321 -0.5230  0.6658
 
              Baa    -0.0037    -1.987    -0.709    -0.663 -0.0524  0.8058 -0.5899
    36 H(1)   Bbb     0.0009     0.494     0.176     0.165 -0.0763  0.5857  0.8069
              Bcc     0.0028     1.493     0.533     0.498  0.9957  0.0873  0.0308
 
              Baa    -0.0088    -1.184    -0.422    -0.395 -0.0872  0.9111 -0.4028
    37 C(13)  Bbb     0.0041     0.556     0.198     0.185 -0.5016  0.3092  0.8080
              Bcc     0.0047     0.628     0.224     0.210  0.8607  0.2725  0.4301
 
              Baa    -0.0011    -0.602    -0.215    -0.201 -0.0622  0.9646  0.2562
    38 H(1)   Bbb     0.0004     0.219     0.078     0.073  0.5635 -0.1779  0.8067
              Bcc     0.0007     0.383     0.137     0.128  0.8237  0.1946 -0.5325
 
              Baa    -0.0023    -1.206    -0.430    -0.402 -0.2571  0.8821 -0.3948
    39 H(1)   Bbb     0.0008     0.441     0.157     0.147  0.8602  0.3951  0.3226
              Bcc     0.0014     0.765     0.273     0.255 -0.4405  0.2566  0.8603
 
              Baa    -0.0014    -0.749    -0.267    -0.250 -0.5835  0.8103  0.0551
    40 H(1)   Bbb     0.0005     0.245     0.088     0.082  0.7250  0.5502 -0.4144
              Bcc     0.0009     0.504     0.180     0.168  0.3661  0.2018  0.9084
 

 ---------------------------------------------------------------------------------

 No NMR shielding tensors so no spin-rotation constants.
 Leave Link  601 at Tue Jun 11 17:22:26 2019, MaxMem=   104857600 cpu:              14.6 elap:               0.4
 (Enter /project/6004141/group/g16/g16/l9999.exe)
 1\1\GINC-BLG9146\FOpt\UB3LYP\6-31G(d,p)\C16H20N2O2\RZK\11-Jun-2019\0\\
 #p opt ub3lyp/6-31g(d,p) scrf=(iefpcm,solvent=acetonitrile) guess=(mix
 ,always) empiricaldispersion=gd3\\Title Card Required\\0,1\C,0.9546276
 245,-1.4418812732,-0.7432650343\H,4.1133191878,-0.2025688916,1.2362208
 221\C,1.0995718909,1.644566484,0.8784285689\O,1.9562441622,2.178601078
 ,0.1674543157\O,1.8459840911,-1.8786678916,0.1848029753\N,4.3195193267
 ,0.6001547192,-0.4772292693\H,4.2125650877,0.4370062845,-1.4716457005\
 N,4.1748611772,-0.5160296206,0.2627464854\H,2.7536805874,-1.4857623688
 ,0.043180056\H,3.8586890497,1.4521112436,-0.1505332733\C,1.4920072788,
 -0.6882308988,-1.9205920208\H,0.7967324404,-0.6884591433,-2.7608894\H,
 1.7042794585,0.359303826,-1.665477523\H,2.4273669434,-1.1438418781,-2.
 2664737124\C,1.5069523489,0.8729660895,2.1133782122\H,0.8639450552,1.0
 931265403,2.9685008432\H,1.4390252762,-0.2009348675,1.9022170379\H,2.5
 382586512,1.1238192099,2.3651916436\C,-0.4158655059,-1.7083015743,-0.4
 850004233\C,-0.8120100032,-2.3670326837,0.7187978377\C,-1.4537389812,-
 1.3311108126,-1.387128931\C,-2.1477559719,-2.6301497409,0.9867683636\H
 ,-0.0473893504,-2.6608927496,1.4284856067\C,-2.7833368042,-1.605649645
 7,-1.1053609972\H,-1.210985459,-0.8032454989,-2.3025454173\C,-3.150713
 3972,-2.2586668503,0.0800789688\H,-2.415701666,-3.1309487527,1.9137452
 088\H,-3.5493360666,-1.2973665566,-1.8118283609\H,-4.1943560268,-2.466
 6035177,0.2948406718\C,-0.340990246,1.7356507272,0.5143231632\C,-0.702
 1746481,2.4935064612,-0.6133422631\C,-1.3446820636,1.0880966679,1.2535
 303139\C,-2.0372828223,2.6127010698,-0.9852011962\H,0.0807400762,2.984
 2769548,-1.1810349797\C,-2.680765771,1.2063729567,0.8777143765\H,-1.08
 9260111,0.4703329384,2.1058653612\C,-3.0298982498,1.9715922038,-0.2364
 11456\H,-2.307541513,3.2029043835,-1.8555842646\H,-3.4460920558,0.6854
 195839,1.4426702629\H,-4.0721980011,2.0609047943,-0.5278548723\\Versio
 n=ES64L-G16RevA.03\State=1-A\HF=-881.6942129\S2=1.021274\S2-1=0.\S2A=0
 .20608\RMSD=7.565e-09\RMSF=8.171e-06\Dipole=-0.477148,1.2400365,0.0478
 289\Quadrupole=2.3266415,-10.5143743,8.1877328,1.4106861,-0.7275396,-2
 .6644452\PG=C01 [X(C16H20N2O2)]\\@


 What some people mistake for the high cost
 of living is really the cost of living high.
                              -- Doug Larson
 Job cpu time:       1 days  3 hours 55 minutes  3.2 seconds.
 Elapsed time:       0 days  0 hours 43 minutes  6.0 seconds.
 File lengths (MBytes):  RWF=    435 Int=      0 D2E=      0 Chk=     22 Scr=      2
 Normal termination of Gaussian 16 at Tue Jun 11 17:22:26 2019.
