 Entering Gaussian System, Link 0=g16
 Initial command:
 /opt/software/gaussian/g16.b01/l1.exe "/localscratch/rzk.14740354.0/Gau-2454.inp" -scrdir="/localscratch/rzk.14740354.0/"
 Entering Link 1 = /opt/software/gaussian/g16.b01/l1.exe PID=      2455.
  
 Copyright (c) 1988-2017, Gaussian, Inc.  All Rights Reserved.
  
 This is part of the Gaussian(R) 16 program.  It is based on
 the Gaussian(R) 09 system (copyright 2009, Gaussian, Inc.),
 the Gaussian(R) 03 system (copyright 2003, Gaussian, Inc.),
 the Gaussian(R) 98 system (copyright 1998, Gaussian, Inc.),
 the Gaussian(R) 94 system (copyright 1995, Gaussian, Inc.),
 the Gaussian 92(TM) system (copyright 1992, Gaussian, Inc.),
 the Gaussian 90(TM) system (copyright 1990, Gaussian, Inc.),
 the Gaussian 88(TM) system (copyright 1988, Gaussian, Inc.),
 the Gaussian 86(TM) system (copyright 1986, Carnegie Mellon
 University), and the Gaussian 82(TM) system (copyright 1983,
 Carnegie Mellon University). Gaussian is a federally registered
 trademark of Gaussian, Inc.
  
 This software contains proprietary and confidential information,
 including trade secrets, belonging to Gaussian, Inc.
  
 This software is provided under written license and may be
 used, copied, transmitted, or stored only in accord with that
 written license.
  
 The following legend is applicable only to US Government
 contracts under FAR:
  
                    RESTRICTED RIGHTS LEGEND
  
 Use, reproduction and disclosure by the US Government is
 subject to restrictions as set forth in subparagraphs (a)
 and (c) of the Commercial Computer Software - Restricted
 Rights clause in FAR 52.227-19.
  
 Gaussian, Inc.
 340 Quinnipiac St., Bldg. 40, Wallingford CT 06492
  
  
 ---------------------------------------------------------------
 Warning -- This program may not be used in any manner that
 competes with the business of Gaussian, Inc. or will provide
 assistance to any competitor of Gaussian, Inc.  The licensee
 of this program is prohibited from giving any competitor of
 Gaussian, Inc. access to this program.  By using this program,
 the user acknowledges that Gaussian, Inc. is engaged in the
 business of creating and licensing software in the field of
 computational chemistry and represents and warrants to the
 licensee that it is not a competitor of Gaussian, Inc. and that
 it will not use this program in any manner prohibited above.
 ---------------------------------------------------------------
  

 Cite this work as:
 Gaussian 16, Revision B.01,
 M. J. Frisch, G. W. Trucks, H. B. Schlegel, G. E. Scuseria, 
 M. A. Robb, J. R. Cheeseman, G. Scalmani, V. Barone, 
 G. A. Petersson, H. Nakatsuji, X. Li, M. Caricato, A. V. Marenich, 
 J. Bloino, B. G. Janesko, R. Gomperts, B. Mennucci, H. P. Hratchian, 
 J. V. Ortiz, A. F. Izmaylov, J. L. Sonnenberg, D. Williams-Young, 
 F. Ding, F. Lipparini, F. Egidi, J. Goings, B. Peng, A. Petrone, 
 T. Henderson, D. Ranasinghe, V. G. Zakrzewski, J. Gao, N. Rega, 
 G. Zheng, W. Liang, M. Hada, M. Ehara, K. Toyota, R. Fukuda, 
 J. Hasegawa, M. Ishida, T. Nakajima, Y. Honda, O. Kitao, H. Nakai, 
 T. Vreven, K. Throssell, J. A. Montgomery, Jr., J. E. Peralta, 
 F. Ogliaro, M. J. Bearpark, J. J. Heyd, E. N. Brothers, K. N. Kudin, 
 V. N. Staroverov, T. A. Keith, R. Kobayashi, J. Normand, 
 K. Raghavachari, A. P. Rendell, J. C. Burant, S. S. Iyengar, 
 J. Tomasi, M. Cossi, J. M. Millam, M. Klene, C. Adamo, R. Cammi, 
 J. W. Ochterski, R. L. Martin, K. Morokuma, O. Farkas, 
 J. B. Foresman, and D. J. Fox, Gaussian, Inc., Wallingford CT, 2016.
 
 ******************************************
 Gaussian 16:  ES64L-G16RevB.01 20-Dec-2017
                13-May-2019 
 ******************************************
 %NProcShared=32
 Will use up to   32 processors via shared memory.
 %chk=AH-A.chk
 ----------------------------------------------------------------------
 #p opt freq ub3lyp/6-31g(d,p) scrf=(iefpcm,solvent=acetonitrile) empir
 icaldispersion=gd3
 ----------------------------------------------------------------------
 1/18=20,19=15,26=3,38=1/1,3;
 2/9=110,12=2,17=6,18=5,40=1/2;
 3/5=1,6=6,7=101,11=2,25=1,30=1,70=2201,71=1,72=2,74=-5,116=2,124=31/1,2,3;
 4//1;
 5/5=2,38=5,53=2/2;
 6/7=2,8=2,9=2,10=2,28=1/1;
 7//1,2,3,16;
 1/18=20,19=15,26=3/3(2);
 2/9=110/2;
 99//99;
 2/9=110/2;
 3/5=1,6=6,7=101,11=2,25=1,30=1,70=2205,71=1,72=2,74=-5,116=2,124=31/1,2,3;
 4/5=5,16=3,69=1/1;
 5/5=2,38=5,53=2/2;
 7//1,2,3,16;
 1/18=20,19=15,26=3/3(-5);
 2/9=110/2;
 6/7=2,8=2,9=2,10=2,19=2,28=1/1;
 99/9=1/99;
 Leave Link    1 at Mon May 13 23:49:34 2019, MaxMem=           0 cpu:               2.7 elap:               0.1
 (Enter /opt/software/gaussian/g16.b01/l101.exe)
 -------------------
 Title Card Required
 -------------------
 Symbolic Z-matrix:
 Charge =  0 Multiplicity = 2
 C                    -0.06092  -1.87351   0.64592 
 C                    -2.70936  -0.0104   -0.41659 
 O                    -0.68654  -2.51634  -0.19389 
 C                    -0.59005  -1.74531   2.05864 
 H                     0.12902  -2.14462   2.7813 
 H                    -0.75885  -0.69332   2.30681 
 H                    -1.53158  -2.28871   2.1346 
 C                    -2.88763  -0.71377  -1.7452 
 H                    -2.98106   0.00539  -2.56498 
 H                    -2.01562  -1.3444   -1.94406 
 H                    -3.78059  -1.3378   -1.69931 
 C                     1.22381  -1.19957   0.28792 
 C                     1.72564  -1.36192  -1.01417 
 C                     1.92687  -0.39486   1.19652 
 C                     2.90394  -0.73274  -1.40071 
 H                     1.16988  -1.98251  -1.70864 
 C                     3.10693   0.2391    0.80759 
 H                     1.55395  -0.24763   2.20364 
 C                     3.59663   0.07185  -0.48896 
 H                     3.28387  -0.86304  -2.40944 
 H                     3.64045   0.86639   1.51483 
 H                     4.51471   0.56743  -0.79033 
 C                    -1.58289   0.9631   -0.26213 
 C                    -1.44906   1.64546   0.95908 
 C                    -0.64414   1.19487  -1.27921 
 C                    -0.3968    2.53231   1.16213 
 H                    -2.18149   1.45988   1.73739 
 C                     0.41084   2.08335  -1.07544 
 H                    -0.71805   0.6703   -2.22496 
 C                     0.53808   2.7498    0.14405 
 H                    -0.29911   3.05104   2.11088 
 H                     1.14328   2.23955  -1.86045 
 H                     1.36654   3.4329    0.30465 
 O                    -3.48331  -0.2492    0.54651 
 H                    -4.17954  -0.84399   0.25825 
 
 Add virtual bond connecting atoms H10        and O3         Dist= 4.71D+00.
 Add virtual bond connecting atoms H27        and H6         Dist= 4.99D+00.
 ITRead=  0  0  0  0  0  0  0  0  0  0  0  0  0  0  0  0  0  0  0  0
 ITRead=  0  0  0  0  0  0  0  0  0  0  0  0  0  0  0
 MicOpt= -1 -1 -1 -1 -1 -1 -1 -1 -1 -1 -1 -1 -1 -1 -1 -1 -1 -1 -1 -1
 MicOpt= -1 -1 -1 -1 -1 -1 -1 -1 -1 -1 -1 -1 -1 -1 -1
 NAtoms=     35 NQM=       35 NQMF=       0 NMMI=      0 NMMIF=      0
                NMic=       0 NMicF=      0.
                    Isotopes and Nuclear Properties:
 (Nuclear quadrupole moments (NQMom) in fm**2, nuclear magnetic moments (NMagM)
  in nuclear magnetons)

  Atom         1           2           3           4           5           6           7           8           9          10
 IAtWgt=          12          12          16          12           1           1           1          12           1           1
 AtmWgt=  12.0000000  12.0000000  15.9949146  12.0000000   1.0078250   1.0078250   1.0078250  12.0000000   1.0078250   1.0078250
 NucSpn=           0           0           0           0           1           1           1           0           1           1
 AtZEff=  -0.0000000  -0.0000000  -0.0000000  -0.0000000  -0.0000000  -0.0000000  -0.0000000  -0.0000000  -0.0000000  -0.0000000
 NQMom=    0.0000000   0.0000000   0.0000000   0.0000000   0.0000000   0.0000000   0.0000000   0.0000000   0.0000000   0.0000000
 NMagM=    0.0000000   0.0000000   0.0000000   0.0000000   2.7928460   2.7928460   2.7928460   0.0000000   2.7928460   2.7928460
 AtZNuc=   6.0000000   6.0000000   8.0000000   6.0000000   1.0000000   1.0000000   1.0000000   6.0000000   1.0000000   1.0000000

  Atom        11          12          13          14          15          16          17          18          19          20
 IAtWgt=           1          12          12          12          12           1          12           1          12           1
 AtmWgt=   1.0078250  12.0000000  12.0000000  12.0000000  12.0000000   1.0078250  12.0000000   1.0078250  12.0000000   1.0078250
 NucSpn=           1           0           0           0           0           1           0           1           0           1
 AtZEff=  -0.0000000  -0.0000000  -0.0000000  -0.0000000  -0.0000000  -0.0000000  -0.0000000  -0.0000000  -0.0000000  -0.0000000
 NQMom=    0.0000000   0.0000000   0.0000000   0.0000000   0.0000000   0.0000000   0.0000000   0.0000000   0.0000000   0.0000000
 NMagM=    2.7928460   0.0000000   0.0000000   0.0000000   0.0000000   2.7928460   0.0000000   2.7928460   0.0000000   2.7928460
 AtZNuc=   1.0000000   6.0000000   6.0000000   6.0000000   6.0000000   1.0000000   6.0000000   1.0000000   6.0000000   1.0000000

  Atom        21          22          23          24          25          26          27          28          29          30
 IAtWgt=           1           1          12          12          12          12           1          12           1          12
 AtmWgt=   1.0078250   1.0078250  12.0000000  12.0000000  12.0000000  12.0000000   1.0078250  12.0000000   1.0078250  12.0000000
 NucSpn=           1           1           0           0           0           0           1           0           1           0
 AtZEff=  -0.0000000  -0.0000000  -0.0000000  -0.0000000  -0.0000000  -0.0000000  -0.0000000  -0.0000000  -0.0000000  -0.0000000
 NQMom=    0.0000000   0.0000000   0.0000000   0.0000000   0.0000000   0.0000000   0.0000000   0.0000000   0.0000000   0.0000000
 NMagM=    2.7928460   2.7928460   0.0000000   0.0000000   0.0000000   0.0000000   2.7928460   0.0000000   2.7928460   0.0000000
 AtZNuc=   1.0000000   1.0000000   6.0000000   6.0000000   6.0000000   6.0000000   1.0000000   6.0000000   1.0000000   6.0000000

  Atom        31          32          33          34          35
 IAtWgt=           1           1           1          16           1
 AtmWgt=   1.0078250   1.0078250   1.0078250  15.9949146   1.0078250
 NucSpn=           1           1           1           0           1
 AtZEff=  -0.0000000  -0.0000000  -0.0000000  -0.0000000  -0.0000000
 NQMom=    0.0000000   0.0000000   0.0000000   0.0000000   0.0000000
 NMagM=    2.7928460   2.7928460   2.7928460   0.0000000   2.7928460
 AtZNuc=   1.0000000   1.0000000   1.0000000   8.0000000   1.0000000
 Leave Link  101 at Mon May 13 23:49:34 2019, MaxMem=   104857600 cpu:               5.0 elap:               0.2
 (Enter /opt/software/gaussian/g16.b01/l103.exe)

 GradGradGradGradGradGradGradGradGradGradGradGradGradGradGradGradGradGrad
 Berny optimization.
 Initialization pass.
                           ----------------------------
                           !    Initial Parameters    !
                           ! (Angstroms and Degrees)  !
 --------------------------                            --------------------------
 ! Name  Definition              Value          Derivative Info.                !
 --------------------------------------------------------------------------------
 ! R1    R(1,3)                  1.2288         estimate D2E/DX2                !
 ! R2    R(1,4)                  1.514          estimate D2E/DX2                !
 ! R3    R(1,12)                 1.4943         estimate D2E/DX2                !
 ! R4    R(2,8)                  1.5138         estimate D2E/DX2                !
 ! R5    R(2,23)                 1.4968         estimate D2E/DX2                !
 ! R6    R(2,34)                 1.2584         estimate D2E/DX2                !
 ! R7    R(3,10)                 2.4906         estimate D2E/DX2                !
 ! R8    R(4,5)                  1.0949         estimate D2E/DX2                !
 ! R9    R(4,6)                  1.094          estimate D2E/DX2                !
 ! R10   R(4,7)                  1.0897         estimate D2E/DX2                !
 ! R11   R(6,27)                 2.6428         estimate D2E/DX2                !
 ! R12   R(8,9)                  1.0945         estimate D2E/DX2                !
 ! R13   R(8,10)                 1.0944         estimate D2E/DX2                !
 ! R14   R(8,11)                 1.0904         estimate D2E/DX2                !
 ! R15   R(12,13)                1.4049         estimate D2E/DX2                !
 ! R16   R(12,14)                1.4026         estimate D2E/DX2                !
 ! R17   R(13,15)                1.3906         estimate D2E/DX2                !
 ! R18   R(13,16)                1.0846         estimate D2E/DX2                !
 ! R19   R(14,17)                1.3949         estimate D2E/DX2                !
 ! R20   R(14,18)                1.084          estimate D2E/DX2                !
 ! R21   R(15,19)                1.3994         estimate D2E/DX2                !
 ! R22   R(15,20)                1.0858         estimate D2E/DX2                !
 ! R23   R(17,19)                1.396          estimate D2E/DX2                !
 ! R24   R(17,21)                1.0855         estimate D2E/DX2                !
 ! R25   R(19,22)                1.086          estimate D2E/DX2                !
 ! R26   R(23,24)                1.4053         estimate D2E/DX2                !
 ! R27   R(23,25)                1.4034         estimate D2E/DX2                !
 ! R28   R(24,26)                1.391          estimate D2E/DX2                !
 ! R29   R(24,27)                1.0847         estimate D2E/DX2                !
 ! R30   R(25,28)                1.3942         estimate D2E/DX2                !
 ! R31   R(25,29)                1.084          estimate D2E/DX2                !
 ! R32   R(26,30)                1.3992         estimate D2E/DX2                !
 ! R33   R(26,31)                1.0857         estimate D2E/DX2                !
 ! R34   R(28,30)                1.3955         estimate D2E/DX2                !
 ! R35   R(28,32)                1.0849         estimate D2E/DX2                !
 ! R36   R(30,33)                1.0857         estimate D2E/DX2                !
 ! R37   R(34,35)                0.96           estimate D2E/DX2                !
 ! A1    A(3,1,4)              120.2708         estimate D2E/DX2                !
 ! A2    A(3,1,12)             120.6602         estimate D2E/DX2                !
 ! A3    A(4,1,12)             119.0674         estimate D2E/DX2                !
 ! A4    A(8,2,23)             118.7747         estimate D2E/DX2                !
 ! A5    A(8,2,34)             120.7367         estimate D2E/DX2                !
 ! A6    A(23,2,34)            120.4838         estimate D2E/DX2                !
 ! A7    A(1,3,10)             120.3848         estimate D2E/DX2                !
 ! A8    A(1,4,5)              110.8223         estimate D2E/DX2                !
 ! A9    A(1,4,6)              110.3057         estimate D2E/DX2                !
 ! A10   A(1,4,7)              108.9518         estimate D2E/DX2                !
 ! A11   A(5,4,6)              107.5977         estimate D2E/DX2                !
 ! A12   A(5,4,7)              109.8506         estimate D2E/DX2                !
 ! A13   A(6,4,7)              109.2923         estimate D2E/DX2                !
 ! A14   A(4,6,27)             144.8518         estimate D2E/DX2                !
 ! A15   A(2,8,9)              111.2297         estimate D2E/DX2                !
 ! A16   A(2,8,10)             109.4744         estimate D2E/DX2                !
 ! A17   A(2,8,11)             108.9904         estimate D2E/DX2                !
 ! A18   A(9,8,10)             108.0925         estimate D2E/DX2                !
 ! A19   A(9,8,11)             109.7343         estimate D2E/DX2                !
 ! A20   A(10,8,11)            109.2938         estimate D2E/DX2                !
 ! A21   A(3,10,8)             124.6582         estimate D2E/DX2                !
 ! A22   A(1,12,13)            118.4924         estimate D2E/DX2                !
 ! A23   A(1,12,14)            122.31           estimate D2E/DX2                !
 ! A24   A(13,12,14)           119.1863         estimate D2E/DX2                !
 ! A25   A(12,13,15)           120.5326         estimate D2E/DX2                !
 ! A26   A(12,13,16)           118.4612         estimate D2E/DX2                !
 ! A27   A(15,13,16)           121.0052         estimate D2E/DX2                !
 ! A28   A(12,14,17)           120.2758         estimate D2E/DX2                !
 ! A29   A(12,14,18)           120.4859         estimate D2E/DX2                !
 ! A30   A(17,14,18)           119.2334         estimate D2E/DX2                !
 ! A31   A(13,15,19)           119.8975         estimate D2E/DX2                !
 ! A32   A(13,15,20)           120.0305         estimate D2E/DX2                !
 ! A33   A(19,15,20)           120.0716         estimate D2E/DX2                !
 ! A34   A(14,17,19)           120.0845         estimate D2E/DX2                !
 ! A35   A(14,17,21)           119.7866         estimate D2E/DX2                !
 ! A36   A(19,17,21)           120.1283         estimate D2E/DX2                !
 ! A37   A(15,19,17)           120.0228         estimate D2E/DX2                !
 ! A38   A(15,19,22)           120.002          estimate D2E/DX2                !
 ! A39   A(17,19,22)           119.9752         estimate D2E/DX2                !
 ! A40   A(2,23,24)            118.4985         estimate D2E/DX2                !
 ! A41   A(2,23,25)            122.4148         estimate D2E/DX2                !
 ! A42   A(24,23,25)           119.0721         estimate D2E/DX2                !
 ! A43   A(23,24,26)           120.5609         estimate D2E/DX2                !
 ! A44   A(23,24,27)           118.4344         estimate D2E/DX2                !
 ! A45   A(26,24,27)           121.0041         estimate D2E/DX2                !
 ! A46   A(23,25,28)           120.3632         estimate D2E/DX2                !
 ! A47   A(23,25,29)           120.4489         estimate D2E/DX2                !
 ! A48   A(28,25,29)           119.1756         estimate D2E/DX2                !
 ! A49   A(24,26,30)           119.8886         estimate D2E/DX2                !
 ! A50   A(24,26,31)           120.0154         estimate D2E/DX2                !
 ! A51   A(30,26,31)           120.0954         estimate D2E/DX2                !
 ! A52   A(6,27,24)             86.0151         estimate D2E/DX2                !
 ! A53   A(25,28,30)           120.0685         estimate D2E/DX2                !
 ! A54   A(25,28,32)           119.7894         estimate D2E/DX2                !
 ! A55   A(30,28,32)           120.1306         estimate D2E/DX2                !
 ! A56   A(26,30,28)           120.0447         estimate D2E/DX2                !
 ! A57   A(26,30,33)           120.0            estimate D2E/DX2                !
 ! A58   A(28,30,33)           119.9543         estimate D2E/DX2                !
 ! A59   A(2,34,35)            109.5            estimate D2E/DX2                !
 ! D1    D(4,1,3,10)           103.5371         estimate D2E/DX2                !
 ! D2    D(12,1,3,10)          -75.985          estimate D2E/DX2                !
 ! D3    D(3,1,4,5)            120.9782         estimate D2E/DX2                !
 ! D4    D(3,1,4,6)           -119.9691         estimate D2E/DX2                !
 ! D5    D(3,1,4,7)              0.0            estimate D2E/DX2                !
 ! D6    D(12,1,4,5)           -59.4921         estimate D2E/DX2                !
 ! D7    D(12,1,4,6)            59.5606         estimate D2E/DX2                !
 ! D8    D(12,1,4,7)           179.5297         estimate D2E/DX2                !
 ! D9    D(3,1,12,13)           -2.4894         estimate D2E/DX2                !
 ! D10   D(3,1,12,14)          176.2807         estimate D2E/DX2                !
 ! D11   D(4,1,12,13)          177.9828         estimate D2E/DX2                !
 ! D12   D(4,1,12,14)           -3.2471         estimate D2E/DX2                !
 ! D13   D(23,2,8,9)           -55.7261         estimate D2E/DX2                !
 ! D14   D(23,2,8,10)           63.6636         estimate D2E/DX2                !
 ! D15   D(23,2,8,11)         -176.8427         estimate D2E/DX2                !
 ! D16   D(34,2,8,9)           125.0697         estimate D2E/DX2                !
 ! D17   D(34,2,8,10)         -115.5406         estimate D2E/DX2                !
 ! D18   D(34,2,8,11)            3.9531         estimate D2E/DX2                !
 ! D19   D(8,2,23,24)          177.9386         estimate D2E/DX2                !
 ! D20   D(8,2,23,25)           -3.4681         estimate D2E/DX2                !
 ! D21   D(34,2,23,24)          -2.8552         estimate D2E/DX2                !
 ! D22   D(34,2,23,25)         175.7381         estimate D2E/DX2                !
 ! D23   D(8,2,34,35)           -4.7795         estimate D2E/DX2                !
 ! D24   D(23,2,34,35)         176.0299         estimate D2E/DX2                !
 ! D25   D(1,3,10,8)           -64.3107         estimate D2E/DX2                !
 ! D26   D(1,4,6,27)            65.0589         estimate D2E/DX2                !
 ! D27   D(5,4,6,27)          -173.944          estimate D2E/DX2                !
 ! D28   D(7,4,6,27)           -54.7046         estimate D2E/DX2                !
 ! D29   D(4,6,27,24)          -85.444          estimate D2E/DX2                !
 ! D30   D(2,8,10,3)            32.9806         estimate D2E/DX2                !
 ! D31   D(9,8,10,3)           154.2851         estimate D2E/DX2                !
 ! D32   D(11,8,10,3)          -86.3262         estimate D2E/DX2                !
 ! D33   D(1,12,13,15)         178.7464         estimate D2E/DX2                !
 ! D34   D(1,12,13,16)          -0.8769         estimate D2E/DX2                !
 ! D35   D(14,12,13,15)         -0.063          estimate D2E/DX2                !
 ! D36   D(14,12,13,16)       -179.6863         estimate D2E/DX2                !
 ! D37   D(1,12,14,17)        -178.5279         estimate D2E/DX2                !
 ! D38   D(1,12,14,18)           0.6679         estimate D2E/DX2                !
 ! D39   D(13,12,14,17)          0.234          estimate D2E/DX2                !
 ! D40   D(13,12,14,18)        179.4298         estimate D2E/DX2                !
 ! D41   D(12,13,15,19)         -0.1436         estimate D2E/DX2                !
 ! D42   D(12,13,15,20)       -179.9374         estimate D2E/DX2                !
 ! D43   D(16,13,15,19)        179.47           estimate D2E/DX2                !
 ! D44   D(16,13,15,20)         -0.3239         estimate D2E/DX2                !
 ! D45   D(12,14,17,19)         -0.1983         estimate D2E/DX2                !
 ! D46   D(12,14,17,21)        179.5158         estimate D2E/DX2                !
 ! D47   D(18,14,17,19)       -179.4041         estimate D2E/DX2                !
 ! D48   D(18,14,17,21)          0.31           estimate D2E/DX2                !
 ! D49   D(13,15,19,17)          0.1808         estimate D2E/DX2                !
 ! D50   D(13,15,19,22)       -179.737          estimate D2E/DX2                !
 ! D51   D(20,15,19,17)        179.9746         estimate D2E/DX2                !
 ! D52   D(20,15,19,22)          0.0567         estimate D2E/DX2                !
 ! D53   D(14,17,19,15)         -0.0103         estimate D2E/DX2                !
 ! D54   D(14,17,19,22)        179.9076         estimate D2E/DX2                !
 ! D55   D(21,17,19,15)       -179.7235         estimate D2E/DX2                !
 ! D56   D(21,17,19,22)          0.1944         estimate D2E/DX2                !
 ! D57   D(2,23,24,26)         178.2395         estimate D2E/DX2                !
 ! D58   D(2,23,24,27)          -1.4703         estimate D2E/DX2                !
 ! D59   D(25,23,24,26)         -0.4018         estimate D2E/DX2                !
 ! D60   D(25,23,24,27)        179.8884         estimate D2E/DX2                !
 ! D61   D(2,23,25,28)        -178.1578         estimate D2E/DX2                !
 ! D62   D(2,23,25,29)           0.5578         estimate D2E/DX2                !
 ! D63   D(24,23,25,28)          0.4277         estimate D2E/DX2                !
 ! D64   D(24,23,25,29)        179.1433         estimate D2E/DX2                !
 ! D65   D(23,24,26,30)          0.0217         estimate D2E/DX2                !
 ! D66   D(23,24,26,31)       -179.6961         estimate D2E/DX2                !
 ! D67   D(27,24,26,30)        179.7239         estimate D2E/DX2                !
 ! D68   D(27,24,26,31)          0.0061         estimate D2E/DX2                !
 ! D69   D(23,24,27,6)          81.8726         estimate D2E/DX2                !
 ! D70   D(26,24,27,6)         -97.8359         estimate D2E/DX2                !
 ! D71   D(23,25,28,30)         -0.0742         estimate D2E/DX2                !
 ! D72   D(23,25,28,32)        178.6954         estimate D2E/DX2                !
 ! D73   D(29,25,28,30)       -178.806          estimate D2E/DX2                !
 ! D74   D(29,25,28,32)         -0.0364         estimate D2E/DX2                !
 ! D75   D(24,26,30,28)          0.3379         estimate D2E/DX2                !
 ! D76   D(24,26,30,33)       -179.2951         estimate D2E/DX2                !
 ! D77   D(31,26,30,28)       -179.9445         estimate D2E/DX2                !
 ! D78   D(31,26,30,33)          0.4225         estimate D2E/DX2                !
 ! D79   D(25,28,30,26)         -0.3119         estimate D2E/DX2                !
 ! D80   D(25,28,30,33)        179.3213         estimate D2E/DX2                !
 ! D81   D(32,28,30,26)       -179.0772         estimate D2E/DX2                !
 ! D82   D(32,28,30,33)          0.556          estimate D2E/DX2                !
 --------------------------------------------------------------------------------
 Trust Radius=3.00D-01 FncErr=1.00D-07 GrdErr=1.00D-06 EigMax=2.50D+02 EigMin=1.00D-04
 Number of steps in this run=    188 maximum allowed number of steps=    210.
 GradGradGradGradGradGradGradGradGradGradGradGradGradGradGradGradGradGrad

 Leave Link  103 at Mon May 13 23:49:34 2019, MaxMem=   104857600 cpu:               0.6 elap:               0.0
 (Enter /opt/software/gaussian/g16.b01/l202.exe)
                          Input orientation:                          
 ---------------------------------------------------------------------
 Center     Atomic      Atomic             Coordinates (Angstroms)
 Number     Number       Type             X           Y           Z
 ---------------------------------------------------------------------
      1          6           0       -0.060921   -1.873512    0.645917
      2          6           0       -2.709361   -0.010400   -0.416587
      3          8           0       -0.686544   -2.516338   -0.193889
      4          6           0       -0.590049   -1.745309    2.058644
      5          1           0        0.129016   -2.144621    2.781296
      6          1           0       -0.758850   -0.693322    2.306807
      7          1           0       -1.531584   -2.288709    2.134602
      8          6           0       -2.887627   -0.713773   -1.745200
      9          1           0       -2.981057    0.005389   -2.564978
     10          1           0       -2.015617   -1.344402   -1.944055
     11          1           0       -3.780593   -1.337803   -1.699308
     12          6           0        1.223811   -1.199566    0.287918
     13          6           0        1.725636   -1.361920   -1.014173
     14          6           0        1.926867   -0.394857    1.196524
     15          6           0        2.903939   -0.732737   -1.400711
     16          1           0        1.169876   -1.982506   -1.708641
     17          6           0        3.106927    0.239095    0.807591
     18          1           0        1.553948   -0.247629    2.203638
     19          6           0        3.596626    0.071845   -0.488962
     20          1           0        3.283870   -0.863037   -2.409441
     21          1           0        3.640448    0.866394    1.514832
     22          1           0        4.514708    0.567430   -0.790326
     23          6           0       -1.582892    0.963098   -0.262130
     24          6           0       -1.449064    1.645456    0.959079
     25          6           0       -0.644138    1.194871   -1.279214
     26          6           0       -0.396803    2.532306    1.162130
     27          1           0       -2.181490    1.459884    1.737393
     28          6           0        0.410839    2.083354   -1.075440
     29          1           0       -0.718054    0.670298   -2.224956
     30          6           0        0.538079    2.749799    0.144047
     31          1           0       -0.299112    3.051040    2.110882
     32          1           0        1.143275    2.239546   -1.860447
     33          1           0        1.366539    3.432904    0.304654
     34          8           0       -3.483307   -0.249204    0.546508
     35          1           0       -4.179536   -0.843991    0.258248
 ---------------------------------------------------------------------
                    Distance matrix (angstroms):
                    1          2          3          4          5
     1  C    0.000000
     2  C    3.407981   0.000000
     3  O    1.228781   3.228174   0.000000
     4  C    1.514005   3.691634   2.382793   0.000000
     5  H    2.160884   4.778885   3.107256   1.094865   0.000000
     6  H    2.153720   3.418735   3.095496   1.093963   1.766271
     7  H    2.133406   3.617515   2.487524   1.089744   1.787895
     8  C    3.879781   1.513844   3.240459   4.562035   5.624645
     9  H    4.729409   2.165560   4.152826   5.491789   6.548110
    10  H    3.287666   2.143362   2.490572   4.267853   5.250595
    11  H    4.429788   2.134223   3.637083   4.946497   6.000984
    12  C    1.494290   4.168967   2.369701   2.592951   2.882471
    13  C    2.491869   4.674710   2.797170   3.866728   4.191348
    14  C    2.537891   4.923875   3.641956   2.983595   2.967397
    15  C    3.778948   5.744511   4.186791   5.019999   5.213712
    16  H    2.659076   4.539503   2.454739   4.164857   4.611855
    17  C    3.811103   5.948955   4.794350   4.378427   4.294830
    18  H    2.770883   5.009757   3.989358   2.619311   2.441864
    19  C    4.295348   6.306939   5.013113   5.226910   5.256579
    20  H    4.641541   6.373168   4.838002   5.979083   6.208004
    21  H    4.686388   6.694716   5.751996   5.001383   4.795862
    22  H    5.381205   7.256772   6.076050   6.286806   6.272639
    23  C    3.344742   1.496826   3.593685   3.702323   4.674504
    24  C    3.795807   2.494527   4.385351   3.666638   4.491714
    25  C    3.668957   2.542036   3.866885   4.448469   5.313917
    26  C    4.448654   3.782278   5.235603   4.374822   4.977131
    27  H    4.098739   2.660829   4.666375   3.592930   4.406884
    28  C    4.340785   3.814910   4.810254   5.048061   5.729713
    29  H    3.891620   2.774680   3.779005   4.919428   5.805502
    30  C    4.688889   4.298706   5.417204   5.014414   5.574743
    31  H    5.143352   4.644331   6.038027   4.805449   5.256200
    32  H    4.964796   4.689328   5.361351   5.851731   6.464938
    33  H    5.505647   5.384189   6.313254   5.806773   6.226878
    34  O    3.789589   1.258400   3.675591   3.591076   4.651426
    35  H    4.263003   1.819805   3.898996   4.115607   5.159557
                    6          7          8          9         10
     6  H    0.000000
     7  H    1.781020   0.000000
     8  C    4.577212   4.401379   0.000000
     9  H    5.400064   5.426777   1.094513   0.000000
    10  H    4.480312   4.214433   1.094366   1.771879   0.000000
    11  H    5.059174   4.545452   1.090370   1.786843   1.781877
    12  C    2.874568   3.491228   4.612319   5.222245   3.936569
    13  C    4.201024   4.624198   4.715580   5.140767   3.855121
    14  C    2.921453   4.053091   5.651088   6.196516   5.129138
    15  C    5.211839   5.881611   5.801833   6.044297   4.987122
    16  H    4.637435   4.707671   4.251394   4.681376   3.257294
    17  C    4.249857   5.446700   6.584784   6.963648   6.026564
    18  H    2.357609   3.700173   5.961392   6.585589   5.581045
    19  C    5.231823   6.225258   6.651381   6.897838   5.968276
    20  H    6.214128   6.772700   6.208935   6.326742   5.341616
    21  H    4.734317   6.090050   7.465956   7.824993   6.988747
    22  H    6.244369   7.298656   7.572835   7.723456   6.901546
    23  C    3.165787   4.039951   2.591086   2.859227   2.888023
    24  C    2.786153   4.106862   3.866335   4.178014   4.205760
    25  C    4.054378   4.957523   2.982165   2.920487   2.961566
    26  C    3.441808   5.047337   5.019343   5.191822   5.224731
    27  H    2.642808   3.825193   4.165557   4.611427   4.630831
    28  C    4.529646   5.761277   4.376343   4.247543   4.288554
    29  H    4.732653   5.331351   2.617798   2.383045   2.412797
    30  C    4.267861   5.799343   5.225040   5.220625   5.257758
    31  H    3.777564   5.480189   5.978595   6.191323   6.221641
    32  H    5.439283   6.604573   4.998354   4.743199   4.778103
    33  H    5.054863   6.669684   6.284486   6.235723   6.270433
    34  O    3.273921   3.238958   2.413003   3.162027   3.091355
    35  H    3.990036   3.552403   2.387423   3.182515   3.127794
                   11         12         13         14         15
    11  H    0.000000
    12  C    5.386301   0.000000
    13  C    5.548743   1.404859   0.000000
    14  C    6.469165   1.402644   2.421340   0.000000
    15  C    6.718499   2.427391   1.390569   2.795436   0.000000
    16  H    4.992281   2.145263   1.084565   3.396123   2.159564
    17  C    7.497272   2.426094   2.791064   1.394886   2.421210
    18  H    6.699164   2.164522   3.409608   1.083985   3.879322
    19  C    7.607589   2.801835   2.414981   2.418009   1.399448
    20  H    7.115921   3.410695   2.150291   3.881190   1.085754
    21  H    8.382185   3.407880   3.876565   2.151380   3.405886
    22  H    8.559683   3.887787   3.398738   3.401542   2.158143
    23  C    3.491349   3.585701   4.113105   4.036102   4.929896
    24  C    4.626325   3.960918   4.797578   3.951730   5.493000
    25  C    4.053180   3.417377   3.496177   3.907247   4.039713
    26  C    5.883503   4.161431   4.940247   3.737500   5.303165
    27  H    4.711167   4.557382   5.549714   4.539956   6.365286
    28  C    5.446249   3.646537   3.688137   3.688047   3.775145
    29  H    3.699719   3.685345   3.401107   4.453840   3.970733
    30  C    6.225542   4.011036   4.433734   3.595178   4.484599
    31  H    6.774969   4.869306   5.774062   4.203004   6.075178
    32  H    6.088339   4.055792   3.745114   4.110860   3.485077
    33  H    7.298526   4.634698   4.985839   3.970032   4.756515
    34  O    2.513387   4.809055   5.550401   5.451029   6.694951
    35  H    2.057919   5.415115   6.062868   6.194372   7.275998
                   16         17         18         19         20
    16  H    0.000000
    17  C    3.875448   0.000000
    18  H    4.296887   2.144199   0.000000
    19  C    3.405450   1.396004   3.394804   0.000000
    20  H    2.492650   3.405187   4.965063   2.158717   0.000000
    21  H    4.960921   1.085513   2.463531   2.156019   4.303254
    22  H    4.305041   2.154760   4.288851   1.085955   2.486510
    23  C    4.283306   4.864451   4.169609   5.260531   5.624152
    24  C    5.209384   4.770519   3.761752   5.480152   6.327727
    25  C    3.683854   4.397585   4.363788   4.457551   4.576204
    26  C    5.574884   4.202456   3.552212   4.972670   6.150758
    27  H    5.912432   5.506561   4.133580   6.345860   7.243090
    28  C    4.184292   3.770409   4.182407   3.813052   4.326094
    29  H    3.296700   4.900281   5.061327   4.689167   4.289586
    30  C    5.121165   3.652794   3.776040   4.114225   5.206943
    31  H    6.487162   4.605074   3.784660   5.550817   6.970730
    32  H    4.224864   3.869904   4.782413   3.549483   3.809142
    33  H    5.780891   3.671827   4.145791   4.110941   5.431167
    34  O    5.453636   6.613455   5.302831   7.162452   7.410068
    35  H    5.812149   7.386975   6.083833   7.865480   7.925866
                   21         22         23         24         25
    21  H    0.000000
    22  H    2.483438   0.000000
    23  C    5.518172   6.133210   0.000000
    24  C    5.178700   6.307863   1.405302   0.000000
    25  C    5.125648   5.219807   1.403367   2.420927   0.000000
    26  C    4.381673   5.638773   2.428526   1.391038   2.794650
    27  H    5.856341   7.212829   2.145509   1.084738   3.396116
    28  C    4.315191   4.384183   2.427223   2.791104   1.394239
    29  H    5.746391   5.426835   2.164801   3.409309   1.084006
    30  C    3.879557   4.631346   2.802820   2.415075   2.416839
    31  H    4.544017   6.144769   3.411565   2.150513   3.880355
    32  H    4.417457   3.912504   3.408214   3.875937   2.150354
    33  H    3.636230   4.395553   3.888487   3.398656   3.400037
    34  O    7.275307   8.149985   2.394817   2.810355   3.671443
    35  H    8.102874   8.870259   3.206076   3.760849   4.361168
                   26         27         28         29         30
    26  C    0.000000
    27  H    2.160121   0.000000
    28  C    2.420860   3.875682   0.000000
    29  H    3.878483   4.297127   2.143015   0.000000
    30  C    1.399214   3.405685   1.395524   3.393283   0.000000
    31  H    1.085707   2.492914   3.404863   4.964165   2.158721
    32  H    3.404926   4.960483   1.084940   2.461697   2.155137
    33  H    2.157711   4.305120   2.153905   4.286776   1.085713
    34  O    4.200273   2.456403   4.820364   4.021581   5.032647
    35  H    5.150287   3.389380   5.605320   4.521198   5.931632
                   31         32         33         34         35
    31  H    0.000000
    32  H    4.302378   0.000000
    33  H    2.486498   2.482260   0.000000
    34  O    4.845408   5.778630   6.094048   0.000000
    35  H    5.801828   6.506104   7.003780   0.960000   0.000000
 Stoichiometry    C16H17O2(2)
 Framework group  C1[X(C16H17O2)]
 Deg. of freedom    99
 Full point group                 C1      NOp   1
 Largest Abelian subgroup         C1      NOp   1
 Largest concise Abelian subgroup C1      NOp   1
                         Standard orientation:                         
 ---------------------------------------------------------------------
 Center     Atomic      Atomic             Coordinates (Angstroms)
 Number     Number       Type             X           Y           Z
 ---------------------------------------------------------------------
      1          6           0       -0.056524   -1.867318    0.638457
      2          6           0       -2.673609    0.034983   -0.432268
      3          8           0       -0.687259   -2.499599   -0.205521
      4          6           0       -0.590278   -1.734513    2.049017
      5          1           0        0.119778   -2.145345    2.774116
      6          1           0       -0.745414   -0.680755    2.298580
      7          1           0       -1.539697   -2.264768    2.119556
      8          6           0       -2.855642   -0.663153   -1.763131
      9          1           0       -2.935190    0.058891   -2.581839
     10          1           0       -1.991679   -1.305585   -1.959307
     11          1           0       -3.757493   -1.274652   -1.722603
     12          6           0        1.239184   -1.210793    0.287717
     13          6           0        1.744650   -1.377583   -1.012404
     14          6           0        1.949302   -0.417873    1.201181
     15          6           0        2.933442   -0.764263   -1.392261
     16          1           0        1.183416   -1.988900   -1.710681
     17          6           0        3.139930    0.200196    0.818947
     18          1           0        1.573870   -0.267430    2.206885
     19          6           0        3.633177    0.028670   -0.475701
     20          1           0        3.316131   -0.897875   -2.399515
     21          1           0        3.678962    0.818512    1.529909
     22          1           0        4.559508    0.511896   -0.771849
     23          6           0       -1.534289    0.992230   -0.270662
     24          6           0       -1.396491    1.670192    0.952551
     25          6           0       -0.587711    1.212811   -1.282972
     26          6           0       -0.332812    2.541746    1.162233
     27          1           0       -2.135019    1.493383    1.727131
     28          6           0        0.478704    2.085958   -1.072552
     29          1           0       -0.664650    0.691224   -2.230123
     30          6           0        0.609698    2.748106    0.148877
     31          1           0       -0.232197    3.057155    2.112490
     32          1           0        1.216859    2.233404   -1.853884
     33          1           0        1.446932    3.419168    0.314673
     34          8           0       -3.455249   -0.194839    0.526790
     35          1           0       -4.158439   -0.779196    0.234129
 ---------------------------------------------------------------------
 Rotational constants (GHZ):           0.5905775           0.3806444           0.3152916
 Leave Link  202 at Mon May 13 23:49:34 2019, MaxMem=   104857600 cpu:               1.7 elap:               0.1
 (Enter /opt/software/gaussian/g16.b01/l301.exe)
 Standard basis: 6-31G(d,p) (6D, 7F)
 Ernie: Thresh=  0.10000D-02 Tol=  0.10000D-05 Strict=F.
 There are   355 symmetry adapted cartesian basis functions of A   symmetry.
 There are   355 symmetry adapted basis functions of A   symmetry.
   355 basis functions,   623 primitive gaussians,   355 cartesian basis functions
    65 alpha electrons       64 beta electrons
       nuclear repulsion energy      1307.3126002935 Hartrees.
 IExCor=  402 DFT=T Ex+Corr=B3LYP ExCW=0 ScaHFX=  0.200000
 ScaDFX=  0.800000  0.720000  1.000000  0.810000 ScalE2=  1.000000  1.000000
 IRadAn=      5 IRanWt=     -1 IRanGd=            0 ICorTp=0 IEmpDi=131
 NAtoms=   35 NActive=   35 NUniq=   35 SFac= 1.00D+00 NAtFMM=   60 NAOKFM=F Big=F
 Integral buffers will be    131072 words long.
 Raffenetti 2 integral format.
 Two-electron integral symmetry is turned on.
 R6Disp:  Grimme-D3 Dispersion energy=       -0.0398131579 Hartrees.
 Nuclear repulsion after empirical dispersion term =     1307.2727871356 Hartrees.
 ------------------------------------------------------------------------------
 Polarizable Continuum Model (PCM)
 =================================
 Model                : PCM.
 Atomic radii         : UFF (Universal Force Field).
 Polarization charges : Total charges.
 Charge compensation  : None.
 Solution method      : On-the-fly selection.
 Cavity type          : Scaled VdW (van der Waals Surface) (Alpha=1.100).
 Cavity algorithm     : GePol (No added spheres)
                        Default sphere list used, NSphG=   35.
                        Lebedev-Laikov grids with approx.  5.0 points / Ang**2.
                        Smoothing algorithm: York/Karplus (Gamma=1.0000).
                        Polarization charges: spherical gaussians, with
                                              point-specific exponents (IZeta= 3).
                        Self-potential: point-specific (ISelfS= 7).
                        Self-field    : sphere-specific E.n sum rule (ISelfD= 2).
 1st derivatives      : Analytical E(r).r(x)/FMM algorithm (CHGder, D1EAlg=3).
                        Cavity 1st derivative terms included.
 Solvent              : Acetonitrile, Eps=  35.688000 Eps(inf)=   1.806874
 ------------------------------------------------------------------------------
 GePol: Number of generator spheres                  =      35
 GePol: Total number of spheres                      =      35
 GePol: Number of exposed spheres                    =      35 (100.00%)
 GePol: Number of points                             =    2473
 GePol: Average weight of points                     =       0.13
 GePol: Minimum weight of points                     =   0.78D-10
 GePol: Maximum weight of points                     =    0.20577
 GePol: Number of points with low weight             =     185
 GePol: Fraction of low-weight points (<1% of avg)   =       7.48%
 GePol: Cavity surface area                          =    314.102 Ang**2
 GePol: Cavity volume                                =    364.255 Ang**3
 Leave Link  301 at Mon May 13 23:49:34 2019, MaxMem=   104857600 cpu:               3.9 elap:               0.2
 (Enter /opt/software/gaussian/g16.b01/l302.exe)
 NPDir=0 NMtPBC=     1 NCelOv=     1 NCel=       1 NClECP=     1 NCelD=      1
         NCelK=      1 NCelE2=     1 NClLst=     1 CellRange=     0.0.
 One-electron integrals computed using PRISM.
 One-electron integral symmetry used in STVInt
 PrsmSu:  requested number of processors reduced to:  28 ShMem   1 Linda.
 NBasis=   355 RedAO= T EigKep=  4.61D-04  NBF=   355
 NBsUse=   355 1.00D-06 EigRej= -1.00D+00 NBFU=   355
 Precomputing XC quadrature grid using
 IXCGrd= 4 IRadAn=           5 IRanWt=          -1 IRanGd=           0 AccXCQ= 0.00D+00.
 Generated NRdTot=       0 NPtTot=           0 NUsed=           0 NTot=          32
 NSgBfM=   354   354   354   354   354 MxSgAt=    35 MxSgA2=    35.
 Leave Link  302 at Mon May 13 23:49:35 2019, MaxMem=   104857600 cpu:              13.2 elap:               0.4
 (Enter /opt/software/gaussian/g16.b01/l303.exe)
 DipDrv:  MaxL=1.
 Leave Link  303 at Mon May 13 23:49:35 2019, MaxMem=   104857600 cpu:               1.5 elap:               0.1
 (Enter /opt/software/gaussian/g16.b01/l401.exe)
 ExpMin= 1.61D-01 ExpMax= 5.48D+03 ExpMxC= 8.25D+02 IAcc=3 IRadAn=         5 AccDes= 0.00D+00
 Harris functional with IExCor=  402 and IRadAn=       5 diagonalized for initial guess.
 HarFok:  IExCor=  402 AccDes= 0.00D+00 IRadAn=         5 IDoV= 1 UseB2=F ITyADJ=14
 ICtDFT=  3500011 ScaDFX=  1.000000  1.000000  1.000000  1.000000
 FoFCou: FMM=F IPFlag=           0 FMFlag=      100000 FMFlg1=           0
         NFxFlg=           0 DoJE=T BraDBF=F KetDBF=T FulRan=T
         wScrn=  0.000000 ICntrl=       500 IOpCl=  0 I1Cent=   200000004 NGrid=           0
         NMat0=    1 NMatS0=      1 NMatT0=    0 NMatD0=    1 NMtDS0=    0 NMtDT0=    0
 Petite list used in FoFCou.
 Harris En= -770.474904121401    
 JPrj=0 DoOrth=F DoCkMO=F.
 Initial guess <Sx>= 0.0000 <Sy>= 0.0000 <Sz>= 0.5000 <S**2>= 0.7500 S= 0.5000
 Leave Link  401 at Mon May 13 23:49:36 2019, MaxMem=   104857600 cpu:              26.4 elap:               0.9
 (Enter /opt/software/gaussian/g16.b01/l502.exe)
 Integral symmetry usage will be decided dynamically.
 UHF open shell SCF:
 Using DIIS extrapolation, IDIIS=  1040.
 NGot=   104857600 LenX=   104590331 LenY=   104463865
 Requested convergence on RMS density matrix=1.00D-08 within 128 cycles.
 Requested convergence on MAX density matrix=1.00D-06.
 Requested convergence on             energy=1.00D-06.
 No special actions if energy rises.
 Fock matrices will be formed incrementally for  20 cycles.

 Cycle   1  Pass 1  IDiag  1:
 FoFJK:  IHMeth= 1 ICntrl=       0 DoSepK=F KAlg= 0 I1Cent=           0 FoldK=F
 IRaf= 840000000 NMat=       1 IRICut=       1 DoRegI=T DoRafI=F ISym2E= 0 IDoP0=0 IntGTp=1.
 FoFCou: FMM=F IPFlag=           0 FMFlag=      100000 FMFlg1=           0
         NFxFlg=           0 DoJE=F BraDBF=F KetDBF=F FulRan=T
         wScrn=  0.000000 ICntrl=         0 IOpCl=  1 I1Cent=           0 NGrid=           0
         NMat0=    1 NMatS0=      1 NMatT0=    0 NMatD0=    1 NMtDS0=    0 NMtDT0=    0
 Symmetry not used in FoFCou.
 Inv3:  Mode=1 IEnd=    18347187.
 Iteration    1 A*A^-1 deviation from unit magnitude is 2.66D-15 for   1654.
 Iteration    1 A*A^-1 deviation from orthogonality  is 1.91D-15 for   2192    299.
 Iteration    1 A^-1*A deviation from unit magnitude is 3.11D-15 for    494.
 Iteration    1 A^-1*A deviation from orthogonality  is 1.49D-13 for   2232   1978.
 E= -769.915284204913    
 DIIS: error= 2.25D-02 at cycle   1 NSaved=   1.
 NSaved= 1 IEnMin= 1 EnMin= -769.915284204913     IErMin= 1 ErrMin= 2.25D-02
 ErrMax= 2.25D-02  0.00D+00 EMaxC= 1.00D-01 BMatC= 1.90D+00 BMatP= 1.90D+00
 IDIUse=3 WtCom= 7.75D-01 WtEn= 2.25D-01
 Coeff-Com:  0.100D+01
 Coeff-En:   0.100D+01
 Coeff:      0.100D+01
 Gap=     0.063 Goal=   None    Shift=    0.000
 Gap=     0.156 Goal=   None    Shift=    0.000
 GapD=    0.063 DampG=0.500 DampE=0.500 DampFc=0.2500 IDamp=-1.
 Damping current iteration by 2.50D-01
 RMSDP=4.45D-03 MaxDP=1.51D-01              OVMax= 4.00D-01

 Cycle   2  Pass 1  IDiag  1:
 RMSU=  1.10D-03    CP:  9.88D-01
 E= -770.092553079219     Delta-E=       -0.177268874307 Rises=F Damp=T
 DIIS: error= 1.33D-02 at cycle   2 NSaved=   2.
 NSaved= 2 IEnMin= 2 EnMin= -770.092553079219     IErMin= 2 ErrMin= 1.33D-02
 ErrMax= 1.33D-02  0.00D+00 EMaxC= 1.00D-01 BMatC= 4.89D-01 BMatP= 1.90D+00
 IDIUse=3 WtCom= 8.67D-01 WtEn= 1.33D-01
 Coeff-Com: -0.823D+00 0.182D+01
 Coeff-En:   0.000D+00 0.100D+01
 Coeff:     -0.713D+00 0.171D+01
 Gap=     0.066 Goal=   None    Shift=    0.000
 Gap=     0.209 Goal=   None    Shift=    0.000
 RMSDP=1.49D-03 MaxDP=4.78D-02 DE=-1.77D-01 OVMax= 2.51D-01

 Cycle   3  Pass 1  IDiag  1:
 RMSU=  1.11D-03    CP:  9.65D-01  1.84D+00
 E= -770.384915858290     Delta-E=       -0.292362779071 Rises=F Damp=F
 DIIS: error= 6.94D-03 at cycle   3 NSaved=   3.
 NSaved= 3 IEnMin= 3 EnMin= -770.384915858290     IErMin= 3 ErrMin= 6.94D-03
 ErrMax= 6.94D-03  0.00D+00 EMaxC= 1.00D-01 BMatC= 1.04D-01 BMatP= 4.89D-01
 IDIUse=3 WtCom= 9.31D-01 WtEn= 6.94D-02
 Coeff-Com: -0.406D+00 0.873D+00 0.533D+00
 Coeff-En:   0.000D+00 0.000D+00 0.100D+01
 Coeff:     -0.378D+00 0.813D+00 0.565D+00
 Gap=     0.070 Goal=   None    Shift=    0.000
 Gap=     0.182 Goal=   None    Shift=    0.000
 RMSDP=7.15D-04 MaxDP=4.05D-02 DE=-2.92D-01 OVMax= 1.07D-01

 Cycle   4  Pass 1  IDiag  1:
 RMSU=  5.92D-04    CP:  9.68D-01  1.90D+00  6.43D-01
 E= -770.402772328478     Delta-E=       -0.017856470188 Rises=F Damp=F
 DIIS: error= 4.17D-03 at cycle   4 NSaved=   4.
 NSaved= 4 IEnMin= 4 EnMin= -770.402772328478     IErMin= 4 ErrMin= 4.17D-03
 ErrMax= 4.17D-03  0.00D+00 EMaxC= 1.00D-01 BMatC= 3.39D-02 BMatP= 1.04D-01
 IDIUse=3 WtCom= 9.58D-01 WtEn= 4.17D-02
 Coeff-Com: -0.596D-01 0.141D+00 0.360D+00 0.558D+00
 Coeff-En:   0.000D+00 0.000D+00 0.243D+00 0.757D+00
 Coeff:     -0.571D-01 0.135D+00 0.355D+00 0.567D+00
 Gap=     0.070 Goal=   None    Shift=    0.000
 Gap=     0.179 Goal=   None    Shift=    0.000
 RMSDP=3.02D-04 MaxDP=1.91D-02 DE=-1.79D-02 OVMax= 2.71D-02

 Cycle   5  Pass 1  IDiag  1:
 RMSU=  2.00D-04    CP:  9.67D-01  1.88D+00  7.48D-01  6.77D-01
 E= -770.409538273269     Delta-E=       -0.006765944791 Rises=F Damp=F
 DIIS: error= 8.63D-04 at cycle   5 NSaved=   5.
 NSaved= 5 IEnMin= 5 EnMin= -770.409538273269     IErMin= 5 ErrMin= 8.63D-04
 ErrMax= 8.63D-04  0.00D+00 EMaxC= 1.00D-01 BMatC= 2.53D-03 BMatP= 3.39D-02
 IDIUse=3 WtCom= 9.91D-01 WtEn= 8.63D-03
 Coeff-Com: -0.157D-02 0.110D-01 0.165D+00 0.323D+00 0.503D+00
 Coeff-En:   0.000D+00 0.000D+00 0.000D+00 0.000D+00 0.100D+01
 Coeff:     -0.155D-02 0.109D-01 0.164D+00 0.320D+00 0.507D+00
 Gap=     0.070 Goal=   None    Shift=    0.000
 Gap=     0.182 Goal=   None    Shift=    0.000
 RMSDP=9.34D-05 MaxDP=4.56D-03 DE=-6.77D-03 OVMax= 1.03D-02

 Cycle   6  Pass 1  IDiag  1:
 RMSU=  7.40D-05    CP:  9.67D-01  1.88D+00  7.63D-01  7.21D-01  7.63D-01
 E= -770.410113558258     Delta-E=       -0.000575284988 Rises=F Damp=F
 DIIS: error= 3.57D-04 at cycle   6 NSaved=   6.
 NSaved= 6 IEnMin= 6 EnMin= -770.410113558258     IErMin= 6 ErrMin= 3.57D-04
 ErrMax= 3.57D-04  0.00D+00 EMaxC= 1.00D-01 BMatC= 2.39D-04 BMatP= 2.53D-03
 IDIUse=3 WtCom= 9.96D-01 WtEn= 3.57D-03
 Coeff-Com:  0.983D-02-0.176D-01 0.248D-01 0.560D-01 0.231D+00 0.696D+00
 Coeff-En:   0.000D+00 0.000D+00 0.000D+00 0.000D+00 0.000D+00 0.100D+01
 Coeff:      0.980D-02-0.175D-01 0.247D-01 0.558D-01 0.230D+00 0.697D+00
 Gap=     0.072 Goal=   None    Shift=    0.000
 Gap=     0.181 Goal=   None    Shift=    0.000
 RMSDP=4.84D-05 MaxDP=3.86D-03 DE=-5.75D-04 OVMax= 1.38D-02

 Cycle   7  Pass 1  IDiag  1:
 RMSU=  3.07D-05    CP:  9.66D-01  1.88D+00  7.65D-01  7.50D-01  9.23D-01
                    CP:  9.36D-01
 E= -770.410213136229     Delta-E=       -0.000099577971 Rises=F Damp=F
 DIIS: error= 1.69D-04 at cycle   7 NSaved=   7.
 NSaved= 7 IEnMin= 7 EnMin= -770.410213136229     IErMin= 7 ErrMin= 1.69D-04
 ErrMax= 1.69D-04  0.00D+00 EMaxC= 1.00D-01 BMatC= 5.17D-05 BMatP= 2.39D-04
 IDIUse=3 WtCom= 9.98D-01 WtEn= 1.69D-03
 Coeff-Com:  0.348D-02-0.703D-02-0.207D-01-0.491D-01-0.655D-01 0.234D+00
 Coeff-Com:  0.905D+00
 Coeff-En:   0.000D+00 0.000D+00 0.000D+00 0.000D+00 0.000D+00 0.000D+00
 Coeff-En:   0.100D+01
 Coeff:      0.347D-02-0.702D-02-0.206D-01-0.490D-01-0.654D-01 0.234D+00
 Coeff:      0.905D+00
 Gap=     0.072 Goal=   None    Shift=    0.000
 Gap=     0.181 Goal=   None    Shift=    0.000
 RMSDP=2.65D-05 MaxDP=1.21D-03 DE=-9.96D-05 OVMax= 5.25D-03

 Cycle   8  Pass 1  IDiag  1:
 RMSU=  1.33D-05    CP:  9.66D-01  1.88D+00  7.70D-01  7.63D-01  9.81D-01
                    CP:  1.16D+00  1.18D+00
 E= -770.410240039648     Delta-E=       -0.000026903419 Rises=F Damp=F
 DIIS: error= 1.30D-04 at cycle   8 NSaved=   8.
 NSaved= 8 IEnMin= 8 EnMin= -770.410240039648     IErMin= 8 ErrMin= 1.30D-04
 ErrMax= 1.30D-04  0.00D+00 EMaxC= 1.00D-01 BMatC= 1.79D-05 BMatP= 5.17D-05
 IDIUse=3 WtCom= 9.99D-01 WtEn= 1.30D-03
 Coeff-Com: -0.240D-03 0.214D-03-0.190D-01-0.472D-01-0.111D+00-0.318D-01
 Coeff-Com:  0.561D+00 0.647D+00
 Coeff-En:   0.000D+00 0.000D+00 0.000D+00 0.000D+00 0.000D+00 0.000D+00
 Coeff-En:   0.000D+00 0.100D+01
 Coeff:     -0.240D-03 0.213D-03-0.190D-01-0.472D-01-0.111D+00-0.317D-01
 Coeff:      0.561D+00 0.648D+00
 Gap=     0.072 Goal=   None    Shift=    0.000
 Gap=     0.182 Goal=   None    Shift=    0.000
 RMSDP=1.29D-05 MaxDP=7.13D-04 DE=-2.69D-05 OVMax= 2.83D-03

 Cycle   9  Pass 1  IDiag  1:
 RMSU=  5.95D-06    CP:  9.66D-01  1.88D+00  7.70D-01  7.69D-01  1.01D+00
                    CP:  1.24D+00  1.39D+00  7.99D-01
 E= -770.410247591478     Delta-E=       -0.000007551830 Rises=F Damp=F
 DIIS: error= 6.75D-05 at cycle   9 NSaved=   9.
 NSaved= 9 IEnMin= 9 EnMin= -770.410247591478     IErMin= 9 ErrMin= 6.75D-05
 ErrMax= 6.75D-05  0.00D+00 EMaxC= 1.00D-01 BMatC= 1.83D-06 BMatP= 1.79D-05
 IDIUse=1 WtCom= 1.00D+00 WtEn= 0.00D+00
 Coeff-Com: -0.508D-03 0.924D-03-0.521D-02-0.134D-01-0.382D-01-0.427D-01
 Coeff-Com:  0.131D+00 0.291D+00 0.678D+00
 Coeff:     -0.508D-03 0.924D-03-0.521D-02-0.134D-01-0.382D-01-0.427D-01
 Coeff:      0.131D+00 0.291D+00 0.678D+00
 Gap=     0.073 Goal=   None    Shift=    0.000
 Gap=     0.182 Goal=   None    Shift=    0.000
 RMSDP=3.51D-06 MaxDP=2.24D-04 DE=-7.55D-06 OVMax= 8.24D-04

 Cycle  10  Pass 1  IDiag  1:
 RMSU=  2.87D-06    CP:  9.66D-01  1.88D+00  7.70D-01  7.69D-01  1.01D+00
                    CP:  1.26D+00  1.41D+00  9.09D-01  9.97D-01
 E= -770.410248535630     Delta-E=       -0.000000944152 Rises=F Damp=F
 DIIS: error= 3.89D-05 at cycle  10 NSaved=  10.
 NSaved=10 IEnMin=10 EnMin= -770.410248535630     IErMin=10 ErrMin= 3.89D-05
 ErrMax= 3.89D-05  0.00D+00 EMaxC= 1.00D-01 BMatC= 4.92D-07 BMatP= 1.83D-06
 IDIUse=1 WtCom= 1.00D+00 WtEn= 0.00D+00
 Coeff-Com: -0.296D-03 0.545D-03 0.173D-02 0.456D-02 0.756D-02-0.180D-01
 Coeff-Com: -0.681D-01-0.825D-02 0.311D+00 0.769D+00
 Coeff:     -0.296D-03 0.545D-03 0.173D-02 0.456D-02 0.756D-02-0.180D-01
 Coeff:     -0.681D-01-0.825D-02 0.311D+00 0.769D+00
 Gap=     0.072 Goal=   None    Shift=    0.000
 Gap=     0.182 Goal=   None    Shift=    0.000
 RMSDP=2.38D-06 MaxDP=1.56D-04 DE=-9.44D-07 OVMax= 5.21D-04

 Cycle  11  Pass 1  IDiag  1:
 RMSU=  1.40D-06    CP:  9.66D-01  1.88D+00  7.71D-01  7.69D-01  1.01D+00
                    CP:  1.26D+00  1.42D+00  9.55D-01  1.28D+00  1.18D+00
 E= -770.410248944210     Delta-E=       -0.000000408580 Rises=F Damp=F
 DIIS: error= 2.10D-05 at cycle  11 NSaved=  11.
 NSaved=11 IEnMin=11 EnMin= -770.410248944210     IErMin=11 ErrMin= 2.10D-05
 ErrMax= 2.10D-05  0.00D+00 EMaxC= 1.00D-01 BMatC= 1.55D-07 BMatP= 4.92D-07
 IDIUse=1 WtCom= 1.00D+00 WtEn= 0.00D+00
 Coeff-Com: -0.140D-04 0.372D-05 0.219D-02 0.605D-02 0.151D-01 0.239D-02
 Coeff-Com: -0.649D-01-0.863D-01-0.815D-01 0.332D+00 0.875D+00
 Coeff:     -0.140D-04 0.372D-05 0.219D-02 0.605D-02 0.151D-01 0.239D-02
 Coeff:     -0.649D-01-0.863D-01-0.815D-01 0.332D+00 0.875D+00
 Gap=     0.072 Goal=   None    Shift=    0.000
 Gap=     0.182 Goal=   None    Shift=    0.000
 RMSDP=1.84D-06 MaxDP=9.45D-05 DE=-4.09D-07 OVMax= 3.82D-04

 Cycle  12  Pass 1  IDiag  1:
 RMSU=  6.90D-07    CP:  9.66D-01  1.88D+00  7.71D-01  7.68D-01  1.01D+00
                    CP:  1.26D+00  1.42D+00  9.88D-01  1.44D+00  1.61D+00
                    CP:  1.19D+00
 E= -770.410249108186     Delta-E=       -0.000000163976 Rises=F Damp=F
 DIIS: error= 8.93D-06 at cycle  12 NSaved=  12.
 NSaved=12 IEnMin=12 EnMin= -770.410249108186     IErMin=12 ErrMin= 8.93D-06
 ErrMax= 8.93D-06  0.00D+00 EMaxC= 1.00D-01 BMatC= 5.27D-08 BMatP= 1.55D-07
 IDIUse=1 WtCom= 1.00D+00 WtEn= 0.00D+00
 Coeff-Com:  0.537D-04-0.132D-03 0.416D-03 0.144D-02 0.517D-02 0.507D-02
 Coeff-Com: -0.957D-02-0.401D-01-0.152D+00-0.805D-01 0.478D+00 0.792D+00
 Coeff:      0.537D-04-0.132D-03 0.416D-03 0.144D-02 0.517D-02 0.507D-02
 Coeff:     -0.957D-02-0.401D-01-0.152D+00-0.805D-01 0.478D+00 0.792D+00
 Gap=     0.073 Goal=   None    Shift=    0.000
 Gap=     0.182 Goal=   None    Shift=    0.000
 RMSDP=1.09D-06 MaxDP=5.44D-05 DE=-1.64D-07 OVMax= 2.13D-04

 Cycle  13  Pass 1  IDiag  1:
 RMSU=  3.41D-07    CP:  9.66D-01  1.88D+00  7.71D-01  7.68D-01  1.01D+00
                    CP:  1.26D+00  1.41D+00  1.01D+00  1.54D+00  1.80D+00
                    CP:  1.52D+00  9.72D-01
 E= -770.410249155479     Delta-E=       -0.000000047293 Rises=F Damp=F
 DIIS: error= 3.09D-06 at cycle  13 NSaved=  13.
 NSaved=13 IEnMin=13 EnMin= -770.410249155479     IErMin=13 ErrMin= 3.09D-06
 ErrMax= 3.09D-06  0.00D+00 EMaxC= 1.00D-01 BMatC= 9.91D-09 BMatP= 5.27D-08
 IDIUse=1 WtCom= 1.00D+00 WtEn= 0.00D+00
 Coeff-Com:  0.193D-04-0.509D-04-0.274D-03-0.589D-03-0.681D-03 0.124D-02
 Coeff-Com:  0.936D-02-0.316D-03-0.529D-01-0.105D+00 0.280D-01 0.369D+00
 Coeff-Com:  0.752D+00
 Coeff:      0.193D-04-0.509D-04-0.274D-03-0.589D-03-0.681D-03 0.124D-02
 Coeff:      0.936D-02-0.316D-03-0.529D-01-0.105D+00 0.280D-01 0.369D+00
 Coeff:      0.752D+00
 Gap=     0.073 Goal=   None    Shift=    0.000
 Gap=     0.182 Goal=   None    Shift=    0.000
 RMSDP=4.16D-07 MaxDP=2.36D-05 DE=-4.73D-08 OVMax= 7.60D-05

 Cycle  14  Pass 1  IDiag  1:
 RMSU=  1.63D-07    CP:  9.66D-01  1.88D+00  7.71D-01  7.68D-01  1.01D+00
                    CP:  1.26D+00  1.41D+00  1.01D+00  1.57D+00  1.89D+00
                    CP:  1.64D+00  1.16D+00  9.10D-01
 E= -770.410249162072     Delta-E=       -0.000000006594 Rises=F Damp=F
 DIIS: error= 9.36D-07 at cycle  14 NSaved=  14.
 NSaved=14 IEnMin=14 EnMin= -770.410249162072     IErMin=14 ErrMin= 9.36D-07
 ErrMax= 9.36D-07  0.00D+00 EMaxC= 1.00D-01 BMatC= 2.04D-09 BMatP= 9.91D-09
 IDIUse=1 WtCom= 1.00D+00 WtEn= 0.00D+00
 Coeff-Com: -0.593D-05 0.949D-05-0.245D-03-0.643D-03-0.153D-02-0.531D-03
 Coeff-Com:  0.735D-02 0.877D-02 0.626D-02-0.333D-01-0.900D-01 0.110D-01
 Coeff-Com:  0.362D+00 0.730D+00
 Coeff:     -0.593D-05 0.949D-05-0.245D-03-0.643D-03-0.153D-02-0.531D-03
 Coeff:      0.735D-02 0.877D-02 0.626D-02-0.333D-01-0.900D-01 0.110D-01
 Coeff:      0.362D+00 0.730D+00
 Gap=     0.073 Goal=   None    Shift=    0.000
 Gap=     0.182 Goal=   None    Shift=    0.000
 RMSDP=1.46D-07 MaxDP=9.22D-06 DE=-6.59D-09 OVMax= 2.98D-05

 Cycle  15  Pass 1  IDiag  1:
 RMSU=  7.42D-08    CP:  9.66D-01  1.88D+00  7.71D-01  7.68D-01  1.01D+00
                    CP:  1.26D+00  1.41D+00  1.01D+00  1.58D+00  1.91D+00
                    CP:  1.67D+00  1.21D+00  1.11D+00  9.08D-01
 E= -770.410249163030     Delta-E=       -0.000000000958 Rises=F Damp=F
 DIIS: error= 5.18D-07 at cycle  15 NSaved=  15.
 NSaved=15 IEnMin=15 EnMin= -770.410249163030     IErMin=15 ErrMin= 5.18D-07
 ErrMax= 5.18D-07  0.00D+00 EMaxC= 1.00D-01 BMatC= 4.95D-10 BMatP= 2.04D-09
 IDIUse=1 WtCom= 1.00D+00 WtEn= 0.00D+00
 Coeff-Com: -0.705D-05 0.150D-04-0.672D-04-0.205D-03-0.647D-03-0.591D-03
 Coeff-Com:  0.170D-02 0.446D-02 0.145D-01 0.491D-02-0.539D-01-0.700D-01
 Coeff-Com:  0.432D-01 0.401D+00 0.655D+00
 Coeff:     -0.705D-05 0.150D-04-0.672D-04-0.205D-03-0.647D-03-0.591D-03
 Coeff:      0.170D-02 0.446D-02 0.145D-01 0.491D-02-0.539D-01-0.700D-01
 Coeff:      0.432D-01 0.401D+00 0.655D+00
 Gap=     0.073 Goal=   None    Shift=    0.000
 Gap=     0.182 Goal=   None    Shift=    0.000
 RMSDP=5.42D-08 MaxDP=3.36D-06 DE=-9.58D-10 OVMax= 6.94D-06

 Cycle  16  Pass 1  IDiag  1:
 RMSU=  3.02D-08    CP:  9.66D-01  1.88D+00  7.71D-01  7.68D-01  1.01D+00
                    CP:  1.26D+00  1.41D+00  1.01D+00  1.59D+00  1.91D+00
                    CP:  1.67D+00  1.24D+00  1.15D+00  1.06D+00  7.78D-01
 E= -770.410249163201     Delta-E=       -0.000000000171 Rises=F Damp=F
 DIIS: error= 1.39D-07 at cycle  16 NSaved=  16.
 NSaved=16 IEnMin=16 EnMin= -770.410249163201     IErMin=16 ErrMin= 1.39D-07
 ErrMax= 1.39D-07  0.00D+00 EMaxC= 1.00D-01 BMatC= 4.08D-11 BMatP= 4.95D-10
 IDIUse=1 WtCom= 1.00D+00 WtEn= 0.00D+00
 Coeff-Com: -0.595D-06 0.253D-05 0.118D-04 0.184D-04-0.251D-04-0.109D-03
 Coeff-Com: -0.467D-03 0.366D-03 0.458D-02 0.656D-02-0.692D-02-0.280D-01
 Coeff-Com: -0.365D-01 0.441D-01 0.245D+00 0.772D+00
 Coeff:     -0.595D-06 0.253D-05 0.118D-04 0.184D-04-0.251D-04-0.109D-03
 Coeff:     -0.467D-03 0.366D-03 0.458D-02 0.656D-02-0.692D-02-0.280D-01
 Coeff:     -0.365D-01 0.441D-01 0.245D+00 0.772D+00
 Gap=     0.073 Goal=   None    Shift=    0.000
 Gap=     0.182 Goal=   None    Shift=    0.000
 RMSDP=1.67D-08 MaxDP=1.03D-06 DE=-1.71D-10 OVMax= 2.25D-06

 Cycle  17  Pass 1  IDiag  1:
 RMSU=  1.09D-08    CP:  9.66D-01  1.88D+00  7.71D-01  7.68D-01  1.01D+00
                    CP:  1.26D+00  1.41D+00  1.01D+00  1.59D+00  1.91D+00
                    CP:  1.68D+00  1.24D+00  1.16D+00  1.10D+00  8.91D-01
                    CP:  9.92D-01
 E= -770.410249163207     Delta-E=       -0.000000000006 Rises=F Damp=F
 DIIS: error= 6.73D-08 at cycle  17 NSaved=  17.
 NSaved=17 IEnMin=17 EnMin= -770.410249163207     IErMin=17 ErrMin= 6.73D-08
 ErrMax= 6.73D-08  0.00D+00 EMaxC= 1.00D-01 BMatC= 8.68D-12 BMatP= 4.08D-11
 IDIUse=1 WtCom= 1.00D+00 WtEn= 0.00D+00
 Coeff-Com:  0.755D-06-0.970D-06 0.129D-04 0.317D-04 0.615D-04 0.221D-04
 Coeff-Com: -0.421D-03-0.372D-03 0.229D-03 0.228D-02 0.423D-02-0.294D-02
 Coeff-Com: -0.232D-01-0.358D-01 0.216D-01 0.367D+00 0.668D+00
 Coeff:      0.755D-06-0.970D-06 0.129D-04 0.317D-04 0.615D-04 0.221D-04
 Coeff:     -0.421D-03-0.372D-03 0.229D-03 0.228D-02 0.423D-02-0.294D-02
 Coeff:     -0.232D-01-0.358D-01 0.216D-01 0.367D+00 0.668D+00
 Gap=     0.073 Goal=   None    Shift=    0.000
 Gap=     0.182 Goal=   None    Shift=    0.000
 RMSDP=6.85D-09 MaxDP=2.97D-07 DE=-5.68D-12 OVMax= 1.21D-06

 Error on total polarization charges =  0.00949
 SCF Done:  E(UB3LYP) =  -770.410249163     A.U. after   17 cycles
            NFock= 17  Conv=0.68D-08     -V/T= 2.0093
 <Sx>= 0.0000 <Sy>= 0.0000 <Sz>= 0.5000 <S**2>= 0.7677 S= 0.5088
 <L.S>=  0.00000000000    
 KE= 7.633067973791D+02 PE=-4.405565978185D+03 EE= 1.564576144507D+03
 Annihilation of the first spin contaminant:
 S**2 before annihilation     0.7677,   after     0.7502
 Leave Link  502 at Mon May 13 23:50:18 2019, MaxMem=   104857600 cpu:            1318.3 elap:              42.1
 (Enter /opt/software/gaussian/g16.b01/l601.exe)
 Copying SCF densities to generalized density rwf, IOpCl= 1 IROHF=0.

 **********************************************************************

            Population analysis using the SCF Density.

 **********************************************************************

 Orbital symmetries:
 Alpha Orbitals:
       Occupied  (A) (A) (A) (A) (A) (A) (A) (A) (A) (A) (A) (A)
                 (A) (A) (A) (A) (A) (A) (A) (A) (A) (A) (A) (A)
                 (A) (A) (A) (A) (A) (A) (A) (A) (A) (A) (A) (A)
                 (A) (A) (A) (A) (A) (A) (A) (A) (A) (A) (A) (A)
                 (A) (A) (A) (A) (A) (A) (A) (A) (A) (A) (A) (A)
                 (A) (A) (A) (A) (A)
       Virtual   (A) (A) (A) (A) (A) (A) (A) (A) (A) (A) (A) (A)
                 (A) (A) (A) (A) (A) (A) (A) (A) (A) (A) (A) (A)
                 (A) (A) (A) (A) (A) (A) (A) (A) (A) (A) (A) (A)
                 (A) (A) (A) (A) (A) (A) (A) (A) (A) (A) (A) (A)
                 (A) (A) (A) (A) (A) (A) (A) (A) (A) (A) (A) (A)
                 (A) (A) (A) (A) (A) (A) (A) (A) (A) (A) (A) (A)
                 (A) (A) (A) (A) (A) (A) (A) (A) (A) (A) (A) (A)
                 (A) (A) (A) (A) (A) (A) (A) (A) (A) (A) (A) (A)
                 (A) (A) (A) (A) (A) (A) (A) (A) (A) (A) (A) (A)
                 (A) (A) (A) (A) (A) (A) (A) (A) (A) (A) (A) (A)
                 (A) (A) (A) (A) (A) (A) (A) (A) (A) (A) (A) (A)
                 (A) (A) (A) (A) (A) (A) (A) (A) (A) (A) (A) (A)
                 (A) (A) (A) (A) (A) (A) (A) (A) (A) (A) (A) (A)
                 (A) (A) (A) (A) (A) (A) (A) (A) (A) (A) (A) (A)
                 (A) (A) (A) (A) (A) (A) (A) (A) (A) (A) (A) (A)
                 (A) (A) (A) (A) (A) (A) (A) (A) (A) (A) (A) (A)
                 (A) (A) (A) (A) (A) (A) (A) (A) (A) (A) (A) (A)
                 (A) (A) (A) (A) (A) (A) (A) (A) (A) (A) (A) (A)
                 (A) (A) (A) (A) (A) (A) (A) (A) (A) (A) (A) (A)
                 (A) (A) (A) (A) (A) (A) (A) (A) (A) (A) (A) (A)
                 (A) (A) (A) (A) (A) (A) (A) (A) (A) (A) (A) (A)
                 (A) (A) (A) (A) (A) (A) (A) (A) (A) (A) (A) (A)
                 (A) (A) (A) (A) (A) (A) (A) (A) (A) (A) (A) (A)
                 (A) (A) (A) (A) (A) (A) (A) (A) (A) (A) (A) (A)
                 (A) (A)
 Beta  Orbitals:
       Occupied  (A) (A) (A) (A) (A) (A) (A) (A) (A) (A) (A) (A)
                 (A) (A) (A) (A) (A) (A) (A) (A) (A) (A) (A) (A)
                 (A) (A) (A) (A) (A) (A) (A) (A) (A) (A) (A) (A)
                 (A) (A) (A) (A) (A) (A) (A) (A) (A) (A) (A) (A)
                 (A) (A) (A) (A) (A) (A) (A) (A) (A) (A) (A) (A)
                 (A) (A) (A) (A)
       Virtual   (A) (A) (A) (A) (A) (A) (A) (A) (A) (A) (A) (A)
                 (A) (A) (A) (A) (A) (A) (A) (A) (A) (A) (A) (A)
                 (A) (A) (A) (A) (A) (A) (A) (A) (A) (A) (A) (A)
                 (A) (A) (A) (A) (A) (A) (A) (A) (A) (A) (A) (A)
                 (A) (A) (A) (A) (A) (A) (A) (A) (A) (A) (A) (A)
                 (A) (A) (A) (A) (A) (A) (A) (A) (A) (A) (A) (A)
                 (A) (A) (A) (A) (A) (A) (A) (A) (A) (A) (A) (A)
                 (A) (A) (A) (A) (A) (A) (A) (A) (A) (A) (A) (A)
                 (A) (A) (A) (A) (A) (A) (A) (A) (A) (A) (A) (A)
                 (A) (A) (A) (A) (A) (A) (A) (A) (A) (A) (A) (A)
                 (A) (A) (A) (A) (A) (A) (A) (A) (A) (A) (A) (A)
                 (A) (A) (A) (A) (A) (A) (A) (A) (A) (A) (A) (A)
                 (A) (A) (A) (A) (A) (A) (A) (A) (A) (A) (A) (A)
                 (A) (A) (A) (A) (A) (A) (A) (A) (A) (A) (A) (A)
                 (A) (A) (A) (A) (A) (A) (A) (A) (A) (A) (A) (A)
                 (A) (A) (A) (A) (A) (A) (A) (A) (A) (A) (A) (A)
                 (A) (A) (A) (A) (A) (A) (A) (A) (A) (A) (A) (A)
                 (A) (A) (A) (A) (A) (A) (A) (A) (A) (A) (A) (A)
                 (A) (A) (A) (A) (A) (A) (A) (A) (A) (A) (A) (A)
                 (A) (A) (A) (A) (A) (A) (A) (A) (A) (A) (A) (A)
                 (A) (A) (A) (A) (A) (A) (A) (A) (A) (A) (A) (A)
                 (A) (A) (A) (A) (A) (A) (A) (A) (A) (A) (A) (A)
                 (A) (A) (A) (A) (A) (A) (A) (A) (A) (A) (A) (A)
                 (A) (A) (A) (A) (A) (A) (A) (A) (A) (A) (A) (A)
                 (A) (A) (A)
 The electronic state is 2-A.
 Alpha  occ. eigenvalues --  -19.19534 -19.13625 -10.27621 -10.23994 -10.19752
 Alpha  occ. eigenvalues --  -10.19721 -10.19649 -10.19353 -10.19316 -10.19271
 Alpha  occ. eigenvalues --  -10.18537 -10.18142 -10.18096 -10.17869 -10.17782
 Alpha  occ. eigenvalues --  -10.17640 -10.17462 -10.17363  -1.11262  -1.03344
 Alpha  occ. eigenvalues --   -0.85744  -0.84355  -0.76931  -0.76688  -0.74851
 Alpha  occ. eigenvalues --   -0.73526  -0.72516  -0.71792  -0.65468  -0.62583
 Alpha  occ. eigenvalues --   -0.60445  -0.59246  -0.57973  -0.54848  -0.51589
 Alpha  occ. eigenvalues --   -0.50808  -0.50063  -0.46231  -0.46146  -0.46065
 Alpha  occ. eigenvalues --   -0.45555  -0.44256  -0.43720  -0.43393  -0.42450
 Alpha  occ. eigenvalues --   -0.42274  -0.41321  -0.41079  -0.38812  -0.38604
 Alpha  occ. eigenvalues --   -0.38495  -0.37582  -0.36089  -0.35599  -0.35419
 Alpha  occ. eigenvalues --   -0.34480  -0.34248  -0.33355  -0.31934  -0.26158
 Alpha  occ. eigenvalues --   -0.25553  -0.25114  -0.24857  -0.24174  -0.12635
 Alpha virt. eigenvalues --   -0.05384  -0.00489   0.00693   0.03285   0.04497
 Alpha virt. eigenvalues --    0.06865   0.09545   0.11110   0.12243   0.13010
 Alpha virt. eigenvalues --    0.15056   0.15261   0.15884   0.15960   0.16566
 Alpha virt. eigenvalues --    0.16715   0.17389   0.17687   0.18177   0.19421
 Alpha virt. eigenvalues --    0.19460   0.20608   0.21534   0.22062   0.22897
 Alpha virt. eigenvalues --    0.23714   0.27330   0.28395   0.29329   0.30451
 Alpha virt. eigenvalues --    0.31246   0.31479   0.32264   0.33095   0.34622
 Alpha virt. eigenvalues --    0.36992   0.37258   0.38403   0.42665   0.46367
 Alpha virt. eigenvalues --    0.48149   0.49022   0.50565   0.51978   0.52196
 Alpha virt. eigenvalues --    0.52495   0.53162   0.54107   0.54333   0.55451
 Alpha virt. eigenvalues --    0.55885   0.57051   0.57842   0.58361   0.59863
 Alpha virt. eigenvalues --    0.60145   0.60383   0.60659   0.60871   0.61659
 Alpha virt. eigenvalues --    0.61845   0.62737   0.64486   0.65729   0.66295
 Alpha virt. eigenvalues --    0.66758   0.68400   0.69420   0.69880   0.71851
 Alpha virt. eigenvalues --    0.72145   0.74183   0.75386   0.76687   0.77000
 Alpha virt. eigenvalues --    0.78540   0.79997   0.80292   0.80758   0.81522
 Alpha virt. eigenvalues --    0.82082   0.82377   0.83304   0.83440   0.83676
 Alpha virt. eigenvalues --    0.84371   0.85410   0.86640   0.87132   0.88350
 Alpha virt. eigenvalues --    0.89247   0.89890   0.90408   0.91893   0.92448
 Alpha virt. eigenvalues --    0.93705   0.95501   0.95781   0.96682   0.97562
 Alpha virt. eigenvalues --    0.99492   1.00649   1.01998   1.03224   1.04436
 Alpha virt. eigenvalues --    1.05427   1.07026   1.09266   1.11442   1.12628
 Alpha virt. eigenvalues --    1.14200   1.14928   1.16854   1.18808   1.20312
 Alpha virt. eigenvalues --    1.21229   1.25046   1.25573   1.25875   1.27148
 Alpha virt. eigenvalues --    1.27904   1.28758   1.31164   1.32783   1.33468
 Alpha virt. eigenvalues --    1.35220   1.35879   1.37306   1.39548   1.40492
 Alpha virt. eigenvalues --    1.41128   1.41416   1.42075   1.43017   1.43122
 Alpha virt. eigenvalues --    1.43921   1.45258   1.46041   1.47165   1.48963
 Alpha virt. eigenvalues --    1.49267   1.54831   1.57775   1.60402   1.68381
 Alpha virt. eigenvalues --    1.69249   1.72881   1.75505   1.76420   1.77227
 Alpha virt. eigenvalues --    1.77506   1.79483   1.80454   1.83020   1.84581
 Alpha virt. eigenvalues --    1.86539   1.87322   1.87700   1.88431   1.88986
 Alpha virt. eigenvalues --    1.90753   1.92484   1.93993   1.94500   1.95038
 Alpha virt. eigenvalues --    1.96534   1.97196   1.97698   1.98262   1.99624
 Alpha virt. eigenvalues --    2.00582   2.02363   2.02562   2.03882   2.04231
 Alpha virt. eigenvalues --    2.05253   2.07113   2.07660   2.08501   2.08838
 Alpha virt. eigenvalues --    2.10012   2.11527   2.11954   2.13568   2.16439
 Alpha virt. eigenvalues --    2.17209   2.18854   2.19157   2.21013   2.28163
 Alpha virt. eigenvalues --    2.29038   2.29767   2.30262   2.31740   2.33240
 Alpha virt. eigenvalues --    2.34817   2.35526   2.37272   2.38001   2.38809
 Alpha virt. eigenvalues --    2.39540   2.39903   2.41108   2.41530   2.42439
 Alpha virt. eigenvalues --    2.44536   2.45170   2.45920   2.46615   2.47194
 Alpha virt. eigenvalues --    2.48479   2.49471   2.50096   2.50728   2.51059
 Alpha virt. eigenvalues --    2.53214   2.54538   2.56012   2.57176   2.57885
 Alpha virt. eigenvalues --    2.59103   2.60007   2.60632   2.61167   2.64954
 Alpha virt. eigenvalues --    2.65484   2.65921   2.66490   2.67118   2.68194
 Alpha virt. eigenvalues --    2.68971   2.73227   2.75046   2.75128   2.76432
 Alpha virt. eigenvalues --    2.76731   2.79974   2.82461   2.84112   2.85945
 Alpha virt. eigenvalues --    2.86849   2.87891   2.88651   2.91039   2.97017
 Alpha virt. eigenvalues --    3.04254   3.06360   3.07317   3.07640   3.09280
 Alpha virt. eigenvalues --    3.17442   3.19897   3.21292   3.23668   3.24298
 Alpha virt. eigenvalues --    3.25239   3.25686   3.25824   3.26962   3.37880
 Alpha virt. eigenvalues --    3.38686   3.42544   3.42912   3.43668   3.43717
 Alpha virt. eigenvalues --    3.45331   3.46555   3.51676   3.51983   3.53537
 Alpha virt. eigenvalues --    3.89668   3.91244   4.00278   4.09836   4.14600
 Alpha virt. eigenvalues --    4.15844   4.20051   4.20981   4.24196   4.27414
 Alpha virt. eigenvalues --    4.37285   4.40401   4.43620   4.44458   4.48287
 Alpha virt. eigenvalues --    4.49515   4.61440   4.62165   4.84683   4.87057
  Beta  occ. eigenvalues --  -19.19099 -19.13606 -10.27623 -10.23032 -10.19752
  Beta  occ. eigenvalues --  -10.19722 -10.19648 -10.19353 -10.19314 -10.19270
  Beta  occ. eigenvalues --  -10.18683 -10.18209 -10.18094 -10.17986 -10.17897
  Beta  occ. eigenvalues --  -10.17401 -10.17231 -10.17089  -1.10261  -1.03315
  Beta  occ. eigenvalues --   -0.85740  -0.84071  -0.76926  -0.75884  -0.74846
  Beta  occ. eigenvalues --   -0.73277  -0.72507  -0.71496  -0.64626  -0.62581
  Beta  occ. eigenvalues --   -0.60444  -0.59064  -0.57700  -0.54844  -0.51358
  Beta  occ. eigenvalues --   -0.50781  -0.49240  -0.46159  -0.45758  -0.45670
  Beta  occ. eigenvalues --   -0.44479  -0.44252  -0.43642  -0.42566  -0.42317
  Beta  occ. eigenvalues --   -0.42169  -0.41124  -0.41001  -0.38594  -0.38362
  Beta  occ. eigenvalues --   -0.37681  -0.37294  -0.35759  -0.35500  -0.35063
  Beta  occ. eigenvalues --   -0.34246  -0.34153  -0.33202  -0.31648  -0.25802
  Beta  occ. eigenvalues --   -0.25532  -0.25026  -0.23915  -0.23548
  Beta virt. eigenvalues --   -0.05391  -0.03450  -0.00484   0.01193   0.04340
  Beta virt. eigenvalues --    0.06237   0.07011   0.09570   0.11204   0.12286
  Beta virt. eigenvalues --    0.13140   0.15097   0.15294   0.15980   0.16167
  Beta virt. eigenvalues --    0.16615   0.16967   0.17509   0.17991   0.18563
  Beta virt. eigenvalues --    0.19514   0.19728   0.20751   0.21667   0.22580
  Beta virt. eigenvalues --    0.22955   0.24902   0.27366   0.28705   0.29365
  Beta virt. eigenvalues --    0.30456   0.31427   0.31677   0.32356   0.33299
  Beta virt. eigenvalues --    0.34831   0.37134   0.37524   0.38804   0.42805
  Beta virt. eigenvalues --    0.46637   0.48493   0.49335   0.50854   0.52083
  Beta virt. eigenvalues --    0.52263   0.53078   0.53403   0.54181   0.54681
  Beta virt. eigenvalues --    0.55821   0.56156   0.57188   0.58008   0.58461
  Beta virt. eigenvalues --    0.59949   0.60180   0.60447   0.60906   0.61124
  Beta virt. eigenvalues --    0.61618   0.62132   0.63103   0.64916   0.65798
  Beta virt. eigenvalues --    0.66565   0.66975   0.68691   0.69491   0.69920
  Beta virt. eigenvalues --    0.72020   0.72555   0.74788   0.75708   0.77103
  Beta virt. eigenvalues --    0.77179   0.78654   0.80116   0.80613   0.81100
  Beta virt. eigenvalues --    0.81596   0.82243   0.82393   0.83396   0.83456
  Beta virt. eigenvalues --    0.83711   0.84577   0.85549   0.86748   0.87292
  Beta virt. eigenvalues --    0.88499   0.89328   0.90005   0.90595   0.92036
  Beta virt. eigenvalues --    0.92648   0.93854   0.95555   0.96125   0.96852
  Beta virt. eigenvalues --    0.97845   0.99899   1.00929   1.02114   1.03445
  Beta virt. eigenvalues --    1.04748   1.05530   1.07107   1.09487   1.11501
  Beta virt. eigenvalues --    1.12736   1.14306   1.15045   1.17039   1.18992
  Beta virt. eigenvalues --    1.20568   1.21278   1.25093   1.25870   1.26270
  Beta virt. eigenvalues --    1.27179   1.28403   1.29180   1.31498   1.32926
  Beta virt. eigenvalues --    1.33669   1.35584   1.36509   1.38275   1.39647
  Beta virt. eigenvalues --    1.40511   1.41275   1.41470   1.42189   1.43148
  Beta virt. eigenvalues --    1.43630   1.44226   1.45380   1.46065   1.47416
  Beta virt. eigenvalues --    1.49169   1.49412   1.55309   1.58379   1.60552
  Beta virt. eigenvalues --    1.68760   1.69380   1.72924   1.75993   1.76877
  Beta virt. eigenvalues --    1.77556   1.77601   1.79729   1.80672   1.83130
  Beta virt. eigenvalues --    1.85162   1.86917   1.87666   1.87932   1.88855
  Beta virt. eigenvalues --    1.89599   1.91445   1.92500   1.94083   1.94520
  Beta virt. eigenvalues --    1.95075   1.96808   1.97273   1.97833   1.98428
  Beta virt. eigenvalues --    1.99933   2.00635   2.02576   2.02833   2.04162
  Beta virt. eigenvalues --    2.04383   2.05352   2.07179   2.07729   2.08647
  Beta virt. eigenvalues --    2.09027   2.10130   2.11700   2.12177   2.13633
  Beta virt. eigenvalues --    2.16948   2.17271   2.18968   2.19430   2.21373
  Beta virt. eigenvalues --    2.28208   2.29210   2.30010   2.30535   2.32070
  Beta virt. eigenvalues --    2.34261   2.35058   2.35628   2.37300   2.38027
  Beta virt. eigenvalues --    2.38813   2.39682   2.39953   2.41217   2.41739
  Beta virt. eigenvalues --    2.42579   2.44891   2.45755   2.46007   2.46699
  Beta virt. eigenvalues --    2.47230   2.48827   2.49938   2.50522   2.51298
  Beta virt. eigenvalues --    2.51666   2.53432   2.54598   2.56324   2.57895
  Beta virt. eigenvalues --    2.58073   2.59127   2.60010   2.60814   2.61340
  Beta virt. eigenvalues --    2.65057   2.65593   2.66258   2.66594   2.67265
  Beta virt. eigenvalues --    2.68645   2.69303   2.73453   2.75050   2.75324
  Beta virt. eigenvalues --    2.76539   2.77017   2.80225   2.82466   2.84239
  Beta virt. eigenvalues --    2.86000   2.87275   2.88340   2.88803   2.91588
  Beta virt. eigenvalues --    2.97037   3.04260   3.06367   3.07353   3.07789
  Beta virt. eigenvalues --    3.09296   3.17771   3.19900   3.21512   3.23698
  Beta virt. eigenvalues --    3.24348   3.25290   3.25706   3.25965   3.26979
  Beta virt. eigenvalues --    3.37971   3.38688   3.42722   3.42985   3.43751
  Beta virt. eigenvalues --    3.43914   3.45489   3.46564   3.51694   3.52085
  Beta virt. eigenvalues --    3.53649   3.89670   3.91368   4.00376   4.09939
  Beta virt. eigenvalues --    4.14891   4.16030   4.20535   4.21216   4.24327
  Beta virt. eigenvalues --    4.27633   4.37314   4.40944   4.43632   4.44459
  Beta virt. eigenvalues --    4.48496   4.49651   4.61752   4.62659   4.84695
  Beta virt. eigenvalues --    4.87390
          Condensed to atoms (all electrons):
               1          2          3          4          5          6
     1  C    4.577068   0.005268   0.529680   0.336735  -0.018372  -0.018967
[...]
 6,0.00041313,-0.00000692,0.00004892,0.00000662,-0.00021204,0.00048222,
 0.00033024,0.00012372,0.00001946,0.00017517,-0.00008168,-0.00014029,0.
 00003374,0.00002654,0.00005048,-0.00024580,-0.00038595,-0.00021387,0.0
 0041818,0.00007239,0.00004861,-0.00014336,-0.00019436,0.00028155,-0.00
 020511,-0.00009322,-0.00003213,0.00003303,-0.00000847,0.00000834,0.000
 01019,0.00000409,0.00004989,-0.00009755,0.00003474,-0.00001629,0.00006
 432,0.00013898,0.00006441,-0.00000610,0.00000914,-0.00000837,-0.000013
 16,0.00007480,0.00000665,0.00002363,0.00000872,0.00000509,-0.00000129,
 0.02251885,0.00973345,-0.03469231,0.00874401,0.04000476,0.04340001,-0.
 03499792,-0.06637613,-0.01796418,0.07249803,0.00661856,-0.17081555,0.0
 0019045,-0.00450673,0.00127832,0.08581511,-0.04733630,-0.26493012,0.00
 109859,-0.00221362,0.00277964,-0.14130483,0.14926906,0.55174482,-0.000
 00505,-0.00002862,-0.00000532,0.00060157,-0.00002655,-0.00047435,0.000
 02087,0.00002937,0.00001059,-0.00002613,0.00001778,0.00000795,-0.00000
 381,0.00000591,-0.00000071,0.00003800,-0.00002421,0.00001612,0.0000016
 5,-0.00000405,-0.00000019,-0.00031062,-0.00001449,-0.00016123,-0.00000
 020,0.00002351,0.00002101,-0.00002077,0.00001149,0.00000373,0.00001575
 ,-0.00005700,-0.00005500,0.00000993,-0.00000335,-0.00000589,-0.0000028
 7,0.00000156,0.00000534,-0.00000656,-0.00000099,0.00000832,0.00000286,
 -0.00000124,-0.00000046,0.00000044,-0.00000070,-0.00000131,-0.00000112
 ,0.00001019,-0.00000380,0.00000065,0.00000289,-0.00000046,-0.00000386,
 -0.00000180,-0.00000148,-0.00000026,0.00000002,0.00000023,0.00000045,-
 0.00000299,0.00000112,-0.00000061,-0.00000047,0.00000069,0.00302756,-0
 .00544480,0.00132823,0.00690358,-0.00492633,-0.01300592,-0.00059328,-0
 .00048428,-0.00022276,-0.06850240,0.01686668,0.07452298,-0.00197051,0.
 00230894,-0.00155679,0.00057964,-0.00514867,0.00333888,-0.00050915,0.0
 0055783,-0.00034926,-0.00154111,0.00939390,0.01941715,0.06363445,-0.00
 000502,0.00009227,-0.00002625,0.00071932,0.00049036,-0.00120556,-0.000
 02107,-0.00007475,0.00000635,0.00002951,-0.00000351,0.00000726,0.00000
 473,-0.00001163,0.00000824,-0.00004178,0.00005065,-0.00003831,-0.00000
 177,-0.00000430,0.00000226,-0.00003526,-0.00045408,0.00022001,0.000019
 69,0.00003461,0.00001246,0.00001482,-0.00009220,-0.00013520,-0.0000237
 3,0.00000214,-0.00001106,-0.00002549,-0.00000162,0.00002138,0.00000715
 ,-0.00000006,0.00000086,0.00001743,-0.00000157,-0.00000726,-0.00000172
 ,0.00000522,0.00000448,-0.00000375,0.00000440,0.00000249,-0.00000748,-
 0.00001276,0.00000694,-0.00001052,-0.00000495,-0.00000643,0.00001227,0
 .00000145,-0.00000993,0.00000217,-0.00000134,-0.00000370,0.00000420,0.
 00000431,0.00000069,0.00000327,0.00000080,-0.00000222,-0.00579031,-0.0
 0149611,-0.00214907,0.00835555,-0.00531286,-0.02448695,-0.00038662,-0.
 00062683,0.00024213,0.01684326,-0.08626042,-0.09163191,0.00204223,-0.0
 0074475,0.00152745,-0.00462133,0.00063423,0.00027781,0.00058871,-0.000
 23835,0.00020237,-0.00405922,0.00914378,0.01478517,-0.01504697,0.08505
 254,0.00000535,0.00016937,-0.00004640,0.00086811,0.00014855,-0.0004945
 4,-0.00005726,-0.00013907,-0.00000997,0.00001813,0.00000437,-0.0000016
 6,0.00000491,-0.00000960,0.00001459,-0.00001793,0.00004217,-0.00004280
 ,0.00000026,-0.00001161,0.00000360,-0.00032385,0.00002090,0.00001559,0
 .00001153,0.00003637,0.00001718,-0.00000834,-0.00005345,-0.00002155,-0
 .00000222,-0.00008239,-0.00013003,-0.00005052,-0.00000568,0.00004217,0
 .00001443,-0.00000051,-0.00000943,0.00001931,0.00000129,-0.00000568,-0
 .00000737,0.00000370,0.00000874,-0.00000435,0.00000409,0.00000412,-0.0
 0000590,-0.00002161,-0.00000064,-0.00001568,0.00000147,-0.00001080,0.0
 0002405,0.00000616,-0.00001037,0.00000317,-0.00000213,-0.00000635,0.00
 000299,0.00000732,-0.00000053,0.00000517,0.00000123,-0.00000361,0.0009
 5887,-0.00292638,0.00272864,0.00408121,-0.00197228,-0.00639304,-0.0003
 0031,0.00026828,0.00050334,0.07426241,-0.09180576,-0.27887763,-0.00182
 213,0.00116442,-0.00012243,0.00402123,0.00126160,0.00132536,-0.0003624
 4,0.00017604,-0.00030936,0.00235865,-0.00774519,-0.01100802,-0.0824085
 1,0.10096495,0.29335578,-0.00000199,0.00013967,-0.00003648,0.00043437,
 -0.00001561,0.00074971,-0.00004688,-0.00011145,-0.00000736,0.00001592,
 0.00000021,-0.00000805,0.00000400,-0.00000735,0.00001194,-0.00001282,0
 .00002547,-0.00002601,-0.00000099,-0.00000563,0.00000298,-0.00005341,-
 0.00000656,0.00006056,-0.00000692,0.00000931,0.00001427,0.00000772,-0.
 00003835,-0.00001882,-0.00002650,-0.00003926,-0.00005804,-0.00003416,-
 0.00000042,0.00003735,0.00001371,-0.00000347,-0.00001139,0.00001587,-0
 .00002030,-0.00000011,-0.00001127,-0.00000041,0.00000429,-0.00000292,0
 .00000400,0.00000409,-0.00001244,-0.00002417,-0.00000624,-0.00001151,-
 0.00000039,-0.00000827,0.00002429,-0.00000082,-0.00000475,0.00000257,-
 0.00000170,-0.00000445,0.00000416,0.00000778,0.00000365,0.00000655,-0.
 00000064,-0.00000291,0.00432741,-0.00434674,0.00042916,0.00006823,0.00
 023283,-0.00052358,-0.00588036,-0.00476603,0.00826087,0.00398168,-0.00
 102707,0.00282548,-0.00059952,0.00037565,-0.00029599,-0.17866026,-0.10
 021375,0.11148072,-0.00191928,0.00204744,-0.00182346,-0.00217907,-0.00
 463633,0.00239952,-0.00011955,-0.00032394,0.00021288,0.18281878,-0.000
 02147,0.00009723,-0.00001460,-0.00061287,0.00065966,0.00094236,-0.0000
 0874,-0.00008689,-0.00000618,0.00002430,0.00000282,-0.00000576,0.00000
 502,-0.00000837,0.00001001,-0.00002437,0.00002695,-0.00003042,0.000000
 44,-0.00000693,0.00000144,-0.00005936,0.00000344,0.00005136,0.00001178
 ,0.00002824,0.00001684,-0.00001308,-0.00005403,-0.00002236,-0.00000792
 ,-0.00002792,-0.00003981,-0.00002046,-0.00000026,0.00001388,0.00000698
 ,0.00000642,0.00000516,0.00000446,0.00002834,-0.00000552,0.00000307,0.
 00001104,0.00000099,-0.00000333,0.00000445,0.00000335,-0.00005355,0.00
 002416,-0.00001407,-0.00001132,-0.00000144,-0.00001194,0.00001632,0.00
 000913,-0.00002592,0.00000318,-0.00000088,-0.00000262,0.00002379,0.000
 00652,0.00001431,0.00000459,0.00000043,-0.00000349,-0.00395014,-0.0012
 1625,-0.00494620,0.00024116,-0.00051825,-0.00050044,-0.01810305,-0.008
 78665,0.01603824,-0.00151982,0.00161042,-0.00366125,0.00039470,-0.0002
 4996,0.00038731,-0.09998920,-0.11584271,0.06671370,0.00217321,-0.00075
 007,0.00111368,0.00859015,0.00890370,-0.00671772,0.00037051,0.00040410
 ,-0.00044094,0.11121070,0.11707364,-0.00000578,-0.00007314,0.00001300,
 -0.00024087,-0.00009272,0.00068631,0.00003381,0.00006477,0.00001388,-0
 .00001365,-0.00000204,0.00000748,-0.00000357,0.00000394,-0.00000684,0.
 00001570,-0.00002440,0.00001275,0.00000005,0.00000369,-0.00000135,0.00
 006771,-0.00001821,0.00000086,-0.00000137,-0.00002353,-0.00001596,0.00
 000557,0.00002837,-0.00000328,-0.00000427,0.00001404,0.00004414,0.0000
 2354,0.00001069,-0.00001258,-0.00000439,-0.00000284,0.00000017,-0.0000
 0039,-0.00002656,0.00000249,-0.00000218,-0.00000421,-0.00000370,0.0000
 0092,-0.00000339,-0.00000268,0.00002841,0.00000123,0.00000745,0.000008
 86,-0.00000520,0.00000135,-0.00001382,-0.00000328,0.00001358,-0.000001
 33,-0.00000076,0.00000014,-0.00002176,-0.00000559,-0.00001277,-0.00000
 159,0.,0.00000259,0.00094865,-0.00410060,0.00101421,-0.00048843,-0.000
 59062,-0.00041670,-0.00899132,-0.00655061,0.00938685,0.00212349,-0.004
 60419,-0.00310690,-0.00027041,0.00037601,-0.00009952,0.11173805,0.0672
 5463,-0.13904145,-0.00160470,0.00140320,-0.00003888,0.01965506,0.01575
 324,-0.01023099,0.00114358,0.00075660,-0.00068580,-0.12239902,-0.07028
 047,0.14249404,0.00000127,0.00005669,0.00004553,-0.00029126,0.00030117
 ,-0.00018241,-0.00003144,-0.00004904,-0.00003055,0.00003395,-0.0000174
 9,-0.00001225,0.00000471,-0.00001006,0.00000204,-0.00004501,0.00004448
 ,-0.00002754,-0.00000099,-0.00000438,0.00000006,-0.00005179,-0.0000160
 8,0.00003295,0.00003096,0.00001805,-0.00000260,-0.00000585,-0.00003428
 ,-0.00000726,0.00001353,-0.00000747,-0.00001078,-0.00000984,0.00000038
 ,0.00000502,0.00000373,0.00000547,0.00000078,0.00000429,-0.00000441,0.
 00000492,0.00000025,0.00000572,0.00000272,-0.00000311,-0.00000110,0.00
 000081,0.00000140,-0.00000375,-0.00000370,-0.00000889,0.00000361,-0.00
 000807,0.00001013,-0.00000175,-0.00000118,0.00000174,-0.00000187,-0.00
 000423,-0.00000060,-0.00000100,-0.00000031,0.00000125,0.00000054,-0.00
 000075,-0.00058660,0.00049162,0.00032146,0.00078842,-0.00317207,0.0049
 4026,0.00300263,-0.00139835,0.00340380,-0.00531982,-0.01734359,-0.0099
 8884,-0.00013259,-0.00101864,-0.00032303,0.00634211,0.00827589,0.00332
 609,0.00040259,0.00023720,0.00031823,-0.09559400,-0.11051529,-0.033666
 53,-0.00137705,0.00193463,-0.00121673,-0.00147050,0.00151787,-0.001584
 28,0.09424603,-0.00000671,0.00009820,-0.00001400,0.00051746,-0.0000000
 3,0.00016893,-0.00002555,-0.00008571,-0.00000668,0.00002106,0.00002112
 ,0.00000568,0.00000325,-0.00001384,0.00000716,-0.00001887,0.00003386,-
 0.00003461,0.00000002,-0.00001027,0.00000166,-0.00003049,-0.00001316,0
 .00001079,-0.00002596,0.00001459,0.00002223,0.00000176,-0.00002401,-0.
 00001242,-0.00002827,-0.00002870,-0.00004737,-0.00002267,0.00000319,0.
 00002102,0.00001596,0.00000479,-0.00000364,0.00001804,-0.00000221,0.00
 000231,-0.00000880,0.00000031,0.00001105,-0.00000585,-0.00000109,0.000
 00084,-0.00000227,-0.00002229,0.00000359,-0.00001531,-0.00000587,-0.00
 001500,0.00001360,0.00001194,-0.00000423,0.00000344,-0.00000316,-0.000
 00816,-0.00000052,0.00000263,-0.00000271,0.00000305,0.00000052,-0.0000
 0144,0.00049965,0.00012917,0.00037757,-0.00376541,0.00203989,0.0011037
 5,-0.00096146,0.00261358,-0.00284297,-0.00379351,-0.00851262,-0.007042
 49,-0.00034834,-0.00038605,-0.00048010,-0.00503121,-0.00533795,-0.0009
 1723,-0.00043750,-0.00028123,-0.00016253,-0.11059688,-0.24578380,-0.08
 977333,0.00160963,-0.00052740,0.00121452,0.00181856,-0.00054546,0.0007
 9721,0.12082692,0.25682630,0.00003077,0.00004836,-0.00002951,-0.000152
 86,0.00024264,-0.00003275,-0.00002907,-0.00004104,-0.00000101,0.000000
 22,0.00000069,0.00000403,-0.00000268,0.00000104,0.00000190,0.00000012,
 -0.00000687,-0.00000068,-0.00000080,-0.00000138,0.00000204,0.00001897,
 -0.00003956,-0.00000316,-0.00003168,0.00004902,0.00005922,-0.00004403,
 -0.00003124,0.00001576,-0.00000824,-0.00000566,-0.00000128,-0.00001331
 ,-0.00000217,0.00002776,0.00000794,0.00000333,-0.00000880,-0.00000041,
 -0.00000416,-0.00000458,-0.00000834,-0.00000143,0.00000540,-0.00000256
 ,-0.00000077,-0.00000024,0.00000595,-0.00001457,-0.00000446,-0.0000008
 0,-0.00000013,-0.00000922,0.00000991,0.00000510,0.00001159,0.00000143,
 -0.00000226,-0.00000436,-0.00000265,0.00000045,-0.00000086,0.00000136,
 0.00000047,-0.00000110,0.00031551,0.00041815,-0.00077170,0.00422328,0.
 00024335,-0.00066013,0.00409945,-0.00196197,-0.00340009,0.00728529,0.0
 1560955,0.00977738,0.00051033,0.00065150,0.00040975,-0.01390413,-0.023
 70058,-0.00505072,-0.00054210,-0.00132966,-0.00039852,-0.03370721,-0.0
 8969218,-0.09007383,-0.00162530,0.00067172,0.00002821,-0.00116844,0.00
 134100,0.00015504,0.03483069,0.09762545,0.08986156,-0.00480327,0.00045
 718,-0.00094735,-0.15954479,-0.05947801,0.11344857,0.00091403,0.001880
 76,0.00035513,-0.00083137,0.00019618,0.00043314,-0.00005757,0.00002598
 ,-0.00007653,0.00048038,-0.00062043,0.00016175,-0.00002306,0.00006484,
 -0.00011643,-0.01109873,-0.00765832,0.01387310,0.00102076,0.00077160,0
 .00319338,0.00018960,-0.00065093,-0.00241869,-0.00007648,0.00022211,0.
 00111627,0.00232002,-0.00006368,-0.00104929,-0.00040710,0.00022631,0.0
 0090015,-0.00096914,-0.00061689,0.00005880,0.00027170,-0.00004764,-0.0
 0021831,0.00003008,0.00000131,-0.00004969,0.00034703,0.00021515,-0.000
 30448,0.00012035,0.00000676,0.00007773,-0.00059698,-0.00002791,0.00039
 120,-0.00003964,0.00004509,0.00009205,-0.00003404,-0.00007918,-0.00001
 596,-0.00005594,-0.00000565,0.00002933,-0.01557353,-0.01214901,0.01336
 808,-0.00075878,0.00142751,-0.00095675,0.00224220,-0.00461336,-0.00088
 016,-0.00085504,0.00030287,0.00083825,0.00021971,-0.00129488,-0.001263
 49,0.00058497,0.00148223,0.00205250,-0.00018959,0.00030986,0.00026922,
 -0.00028142,-0.00208648,-0.00205351,0.00019023,-0.00020821,-0.00031832
 ,-0.00064257,-0.00011771,-0.00004307,0.00002557,-0.00025618,-0.0000974
 6,0.21054805,-0.00610175,-0.00924405,-0.00104216,-0.08997506,-0.123426
 31,0.04511257,0.01199874,0.00087777,0.00442239,0.00023430,0.00025059,0
 .00070815,0.00019875,-0.00010782,0.00000112,0.00019934,-0.00104677,-0.
 00004267,0.00007988,0.00028625,-0.00034885,0.00619028,0.00488900,-0.00
 420500,0.00051599,0.00012071,-0.00295620,0.00082832,0.00306717,-0.0005
 1860,0.00043021,0.00027451,-0.00033632,0.00180897,0.00098859,-0.001244
 86,-0.00021300,0.00041913,0.00074801,-0.00087136,-0.00065579,-0.000252
 10,0.00024183,-0.00001416,-0.00008634,-0.00007455,0.00005296,0.0000651
 3,0.00044352,0.00017954,-0.00034815,0.00002435,-0.00001143,0.00007798,
 -0.00038506,0.00002662,0.00034445,-0.00000206,0.00002679,0.00002300,0.
 00003214,-0.00003049,-0.00001986,-0.00001724,0.00001242,0.00000227,-0.
 03606737,-0.02240109,0.02595890,0.00014027,-0.00062905,0.00036749,-0.0
 0078268,-0.00300624,-0.00706937,-0.00165345,-0.00097810,0.00155236,-0.
 00152189,-0.00266822,-0.00077815,-0.00163158,-0.00024358,0.00164811,0.
 00002997,0.00009256,0.00054883,0.00024784,-0.00065210,-0.00087347,0.00
 000088,-0.00006773,-0.00031527,-0.00034784,-0.00076410,-0.00005151,-0.
 00010080,-0.00025692,-0.00005781,0.06621812,0.62658655,0.00466838,0.00
 462667,-0.00108514,0.11088341,0.02113903,-0.14602514,-0.00641723,-0.00
 085064,-0.00092114,-0.00092447,0.00006671,-0.00072497,-0.00046032,0.00
 047468,0.00012832,0.00045172,0.00119696,0.00072820,-0.00019073,-0.0005
 4818,0.00052366,0.03800306,0.01798031,-0.02428219,0.00031099,-0.004201
 10,-0.00711938,-0.00061792,0.00069485,0.00250848,-0.00104525,0.0010917
 9,0.00292896,-0.00120554,-0.00053434,0.00098873,0.00022941,-0.00036915
 ,-0.00051635,0.00058172,0.00040601,0.00006422,-0.00022713,-0.00004032,
 0.00025141,0.00001874,0.00007193,-0.00003875,-0.00026824,-0.00008303,0
 .00021247,0.00005413,0.00006751,0.00000809,0.00030309,0.00000657,-0.00
 025259,-0.00000384,-0.00002082,-0.00002556,-0.00000331,0.00002888,0.00
 002111,0.00001954,0.00000395,-0.00000135,-0.00397143,-0.00199155,0.006
 48534,-0.00091522,-0.00106134,-0.00093515,0.00236393,0.00020813,-0.000
 80446,-0.00094104,-0.00093290,0.00100245,-0.00226922,-0.00200673,0.000
 26568,-0.00056166,-0.00181933,-0.00079631,-0.00038907,-0.00016412,0.00
 014648,0.00014533,0.00113821,0.00085011,0.00006979,0.00001221,0.000139
 21,-0.00005187,0.00001462,-0.00012930,-0.00012947,0.00001173,0.0000728
 4,-0.16100308,0.01245319,0.19749337,-0.00893012,-0.00533535,-0.0031893
 8,-0.00767371,-0.03619216,-0.00214399,0.00643870,0.00132402,0.00371408
 ,0.00057432,0.00018822,0.00037472,0.00007668,0.00002790,0.00031070,-0.
 00011496,-0.00016849,-0.00009568,-0.00002747,0.00004535,-0.00015204,0.
 00008239,-0.00076240,-0.00025100,-0.00009750,0.00028932,-0.00035209,-0
 .00016336,0.00110655,0.00143908,0.00006861,0.00039220,-0.00050661,0.00
 095109,0.00112359,-0.00072799,0.00012682,0.00028067,0.00047006,-0.0002
 7700,-0.00052522,-0.00038742,0.00010547,0.00013713,0.00008119,-0.00013
 786,0.00006274,0.00012715,0.00026856,-0.00004775,-0.00028142,-0.000076
 72,-0.00002120,0.00002616,0.00010199,0.00012108,0.00000434,0.00005012,
 -0.00001370,-0.00008177,0.00008310,0.00005433,-0.00000900,0.00004629,0
 .00002111,-0.00002861,-0.00285761,-0.00355324,0.00458642,-0.00019100,0
 .00053899,0.00074044,-0.00005775,-0.00074628,-0.00096629,0.00000249,-0
 .00027807,-0.00023750,-0.00000048,0.00011223,-0.00010858,-0.00053930,-
 0.00035532,0.00014953,0.00005772,-0.00001942,0.00003904,0.00021854,0.0
 0049539,0.00030796,-0.00003276,0.00001524,0.00004921,-0.00003235,-0.00
 008582,-0.00009720,0.00001476,0.00002934,0.00000085,-0.02266566,0.0498
 8199,0.02349280,0.03460794,0.00464156,0.00563723,0.00235947,-0.0096341
 2,-0.02458630,0.00186414,-0.00567211,-0.00323380,-0.00347772,-0.000200
 64,-0.00022953,-0.00070488,0.00001280,-0.00009789,-0.00008992,-0.00017
 782,0.00016394,-0.00009236,0.00002646,0.00007249,0.00001757,0.00224261
 ,0.00369936,-0.00143216,0.00036931,-0.00012231,-0.00136403,-0.00010942
 ,0.00021629,0.00098177,0.00016170,-0.00012090,0.00023265,-0.00149142,-
 0.00119351,0.00071520,0.00012913,-0.00017098,-0.00052658,0.00048250,0.
 00039038,0.00027220,-0.00013526,-0.00004097,0.00004174,0.00005714,-0.0
 0001192,-0.00005131,-0.00027074,-0.00007117,0.00018953,-0.00000183,-0.
 00000732,-0.00002063,0.00017824,-0.00004292,-0.00015827,-0.00000752,-0
 .00000485,-0.00000026,-0.00003388,0.00001281,0.00000893,0.00000272,-0.
 00001000,0.00000579,0.00151443,0.00129109,0.00276318,0.00036434,0.0000
 6281,0.00025465,-0.00049500,-0.00019905,-0.00036552,0.00018491,-0.0000
 0065,-0.00003500,-0.00003174,-0.00007892,-0.00009324,-0.00013430,0.000
 21803,0.00022533,-0.00001814,-0.00004577,0.00002780,0.00001424,0.00007
 435,-0.00003553,0.00000642,0.00001635,0.00003505,0.00006661,-0.0000405
 2,-0.00000375,-0.00001883,0.00004167,-0.00001835,0.01612060,-0.4719472
 0,-0.04707038,-0.00814297,0.49035965,-0.00264593,-0.00058254,-0.000297
 79,0.00407146,0.02903860,0.00077394,0.00192137,-0.00042818,-0.00075448
 ,0.00030606,-0.00061809,0.00032020,0.00014380,0.00006607,0.00012281,-0
 .00009420,-0.00007691,-0.00015603,0.00002569,0.00018682,-0.00030401,-0
 .00193805,0.00265305,-0.00024058,-0.00018406,-0.00055962,0.00077494,0.
 00143689,-0.00144760,-0.00081332,0.00023617,-0.00009046,-0.00030619,-0
 .00003397,0.00054067,-0.00015153,0.00009481,0.00006416,0.00002107,0.00
 011574,-0.00000607,-0.00012879,0.00001041,0.00005970,-0.00002422,-0.00
 002918,-0.00005306,0.00005828,0.00001390,-0.00002983,-0.00000089,-0.00
 004135,-0.00001948,-0.00000475,0.00008258,0.00001615,-0.00006112,0.000
 01958,-0.00000693,-0.00002511,0.00002678,0.00001898,-0.00000444,0.0000
 1332,-0.00000002,-0.00000757,0.00164849,-0.00056010,-0.00205057,-0.000
 35468,-0.00051722,-0.00066170,0.00068653,0.00003335,0.00081759,-0.0000
 5861,0.00005075,0.00009802,-0.00021243,0.00027235,0.00075335,-0.000011
 11,-0.00026174,-0.00022760,0.00002285,0.00005572,-0.00007964,-0.000035
 52,0.00011897,0.00024009,-0.00001698,-0.00001999,0.00000409,-0.0000422
 3,0.00006147,-0.00004760,-0.00003485,-0.00001659,0.00002456,0.02115389
 ,-0.07348726,-0.03116136,-0.02629716,0.04554488,0.03350036\\-0.0000133
 0,-0.00000632,0.00000070,0.00000271,-0.00001051,-0.00000334,0.00000918
 ,0.00000069,-0.00000186,-0.00000120,-0.00000108,0.00000498,-0.00000014
 ,0.00000056,0.00000024,0.00000508,-0.00000184,-0.00000175,0.00000084,0
 .00000069,-0.00000093,-0.00000881,-0.00000499,-0.00001709,0.00000314,-
 0.00000265,0.00000346,0.00000064,0.00000542,0.00001102,0.00000209,0.00
 000123,0.00000120,0.00000796,0.00000453,0.00000160,0.00000110,-0.00000
 119,-0.00000109,-0.00000239,-0.00000201,-0.00000126,-0.00000042,-0.000
 00044,0.00000055,0.00000056,0.00000098,0.00000059,0.00000114,0.0000016
 0,-0.00000238,0.00000122,-0.00000007,0.00000077,-0.00000040,0.00000177
 ,-0.00000007,0.00000052,0.00000011,0.00000020,0.00000010,0.00000051,-0
 .00000008,-0.00000024,0.00000044,-0.00000029,-0.00000052,0.00002133,0.
 00001041,-0.00000060,-0.00000501,-0.00000718,0.00000128,-0.00000350,-0
 .00000091,0.00000200,0.00000455,-0.00000029,-0.00000173,0.00000040,0.0
 0000010,0.00000296,-0.00000064,-0.00000085,-0.00000135,-0.00000038,-0.
 00000057,-0.00000458,-0.00000278,0.00000088,-0.00000053,-0.00000016,-0
 .00000049,-0.00000094,0.00000036,-0.00000007,-0.00000054,0.00000027,-0
 .00000083,-0.00000160,-0.00000843,0.00000669,-0.00000324,0.00000654,-0
 .00000205\\\@


 WHERE THERE IS MUCH DESIRE TO LEARN, THERE OF NECESSITY WILL BE
 MUCH ARGUING, MUCH WRITING, MANY OPINIONS; FOR OPINION IN GOOD MEN
 IS BUT KNOWLEDGE IN THE MAKING. -- JOHN MILTON.
 Job cpu time:       0 days  6 hours 50 minutes 38.1 seconds.
 Elapsed time:       0 days  0 hours 12 minutes 55.3 seconds.
 File lengths (MBytes):  RWF=    975 Int=      0 D2E=      0 Chk=     27 Scr=      1
 Normal termination of Gaussian 16 at Tue May 14 00:27:36 2019.
