 Entering Gaussian System, Link 0=g16
 Initial command:
 /opt/software/gaussian/g16.b01/l1.exe "/localscratch/rzk.14641214.0/Gau-16258.inp" -scrdir="/localscratch/rzk.14641214.0/"
 Entering Link 1 = /opt/software/gaussian/g16.b01/l1.exe PID=     16259.
  
 Copyright (c) 1988-2017, Gaussian, Inc.  All Rights Reserved.
  
 This is part of the Gaussian(R) 16 program.  It is based on
 the Gaussian(R) 09 system (copyright 2009, Gaussian, Inc.),
 the Gaussian(R) 03 system (copyright 2003, Gaussian, Inc.),
 the Gaussian(R) 98 system (copyright 1998, Gaussian, Inc.),
 the Gaussian(R) 94 system (copyright 1995, Gaussian, Inc.),
 the Gaussian 92(TM) system (copyright 1992, Gaussian, Inc.),
 the Gaussian 90(TM) system (copyright 1990, Gaussian, Inc.),
 the Gaussian 88(TM) system (copyright 1988, Gaussian, Inc.),
 the Gaussian 86(TM) system (copyright 1986, Carnegie Mellon
 University), and the Gaussian 82(TM) system (copyright 1983,
 Carnegie Mellon University). Gaussian is a federally registered
 trademark of Gaussian, Inc.
  
 This software contains proprietary and confidential information,
 including trade secrets, belonging to Gaussian, Inc.
  
 This software is provided under written license and may be
 used, copied, transmitted, or stored only in accord with that
 written license.
  
 The following legend is applicable only to US Government
 contracts under FAR:
  
                    RESTRICTED RIGHTS LEGEND
  
 Use, reproduction and disclosure by the US Government is
 subject to restrictions as set forth in subparagraphs (a)
 and (c) of the Commercial Computer Software - Restricted
 Rights clause in FAR 52.227-19.
  
 Gaussian, Inc.
 340 Quinnipiac St., Bldg. 40, Wallingford CT 06492
  
  
 ---------------------------------------------------------------
 Warning -- This program may not be used in any manner that
 competes with the business of Gaussian, Inc. or will provide
 assistance to any competitor of Gaussian, Inc.  The licensee
 of this program is prohibited from giving any competitor of
 Gaussian, Inc. access to this program.  By using this program,
 the user acknowledges that Gaussian, Inc. is engaged in the
 business of creating and licensing software in the field of
 computational chemistry and represents and warrants to the
 licensee that it is not a competitor of Gaussian, Inc. and that
 it will not use this program in any manner prohibited above.
 ---------------------------------------------------------------
  

 Cite this work as:
 Gaussian 16, Revision B.01,
 M. J. Frisch, G. W. Trucks, H. B. Schlegel, G. E. Scuseria, 
 M. A. Robb, J. R. Cheeseman, G. Scalmani, V. Barone, 
 G. A. Petersson, H. Nakatsuji, X. Li, M. Caricato, A. V. Marenich, 
 J. Bloino, B. G. Janesko, R. Gomperts, B. Mennucci, H. P. Hratchian, 
 J. V. Ortiz, A. F. Izmaylov, J. L. Sonnenberg, D. Williams-Young, 
 F. Ding, F. Lipparini, F. Egidi, J. Goings, B. Peng, A. Petrone, 
 T. Henderson, D. Ranasinghe, V. G. Zakrzewski, J. Gao, N. Rega, 
 G. Zheng, W. Liang, M. Hada, M. Ehara, K. Toyota, R. Fukuda, 
 J. Hasegawa, M. Ishida, T. Nakajima, Y. Honda, O. Kitao, H. Nakai, 
 T. Vreven, K. Throssell, J. A. Montgomery, Jr., J. E. Peralta, 
 F. Ogliaro, M. J. Bearpark, J. J. Heyd, E. N. Brothers, K. N. Kudin, 
 V. N. Staroverov, T. A. Keith, R. Kobayashi, J. Normand, 
 K. Raghavachari, A. P. Rendell, J. C. Burant, S. S. Iyengar, 
 J. Tomasi, M. Cossi, J. M. Millam, M. Klene, C. Adamo, R. Cammi, 
 J. W. Ochterski, R. L. Martin, K. Morokuma, O. Farkas, 
 J. B. Foresman, and D. J. Fox, Gaussian, Inc., Wallingford CT, 2016.
 
 ******************************************
 Gaussian 16:  ES64L-G16RevB.01 20-Dec-2017
                11-May-2019 
 ******************************************
 %NProcShared=32
 Will use up to   32 processors via shared memory.
 %chk=ABH.chk
 ----------------------------------------------------------------------
 #p td=(nstates=24) ub3lyp/6-31g(d,p) scrf=(iefpcm,solvent=acetonitrile
 ) guess=(core,mix) empiricaldispersion=gd3
 ----------------------------------------------------------------------
 1/38=1,172=1/1;
 2/12=2,17=6,18=5,40=1/2;
 3/5=1,6=6,7=101,11=2,25=1,30=1,70=2201,72=2,74=-5,116=2,124=31/1,2,3,8;
 4/5=2,13=-1/1;
 5/5=2,38=5,53=2/2;
 8/6=1,10=2,108=24/1;
 9/41=24,42=1,70=2/14;
 6/7=2,8=2,9=2,10=2/1;
 99/5=1,9=1/99;
 Leave Link    1 at Sat May 11 01:05:02 2019, MaxMem=           0 cpu:               3.9 elap:               0.1
 (Enter /opt/software/gaussian/g16.b01/l101.exe)
 -------------------
 Title Card Required
 -------------------
 Symbolic Z-matrix:
 Charge =  0 Multiplicity = 1
 C                     0.56833   0.21082  -0.4047 
 H                     4.90274  -0.95786  -0.402 
 O                     1.2594   -0.78588  -0.61312 
 N                     3.81889  -0.33344   1.14533 
 H                     3.50096   0.59323   1.42235 
 N                     4.21805  -0.22116  -0.24515 
 H                     3.41369  -0.45009  -0.83165 
 H                     2.98939  -0.92602   1.20901 
 C                     1.18804   1.59216  -0.38607 
 H                     0.71512   2.23599  -1.13463 
 H                     1.03617   2.06554   0.58974 
 H                     2.25554   1.52027  -0.59245 
 C                    -0.89882   0.07122  -0.16117 
 C                    -1.46194  -1.21651  -0.17624 
 C                    -1.72782   1.17837   0.08347 
 C                    -2.82339  -1.39442   0.04776 
 H                    -0.81242  -2.06419  -0.3654 
 C                    -3.09245   0.99861   0.30822 
 H                    -1.31682   2.1816    0.10067 
 C                    -3.6416   -0.2857    0.29062 
 H                    -3.24972  -2.39273   0.03424 
 H                    -3.72612   1.85949   0.49672 
 H                    -4.70436  -0.42336   0.46572 
 
 ITRead=  0  0  0  0  0  0  0  0  0  0  0  0  0  0  0  0  0  0  0  0
 ITRead=  0  0  0
 MicOpt= -1 -1 -1 -1 -1 -1 -1 -1 -1 -1 -1 -1 -1 -1 -1 -1 -1 -1 -1 -1
 MicOpt= -1 -1 -1
 NAtoms=     23 NQM=       23 NQMF=       0 NMMI=      0 NMMIF=      0
                NMic=       0 NMicF=      0.
                    Isotopes and Nuclear Properties:
 (Nuclear quadrupole moments (NQMom) in fm**2, nuclear magnetic moments (NMagM)
  in nuclear magnetons)

  Atom         1           2           3           4           5           6           7           8           9          10
 IAtWgt=          12           1          16          14           1          14           1           1          12           1
 AtmWgt=  12.0000000   1.0078250  15.9949146  14.0030740   1.0078250  14.0030740   1.0078250   1.0078250  12.0000000   1.0078250
 NucSpn=           0           1           0           2           1           2           1           1           0           1
 AtZEff=  -0.0000000  -0.0000000  -0.0000000  -0.0000000  -0.0000000  -0.0000000  -0.0000000  -0.0000000  -0.0000000  -0.0000000
 NQMom=    0.0000000   0.0000000   0.0000000   2.0440000   0.0000000   2.0440000   0.0000000   0.0000000   0.0000000   0.0000000
 NMagM=    0.0000000   2.7928460   0.0000000   0.4037610   2.7928460   0.4037610   2.7928460   2.7928460   0.0000000   2.7928460
 AtZNuc=   6.0000000   1.0000000   8.0000000   7.0000000   1.0000000   7.0000000   1.0000000   1.0000000   6.0000000   1.0000000

  Atom        11          12          13          14          15          16          17          18          19          20
 IAtWgt=           1           1          12          12          12          12           1          12           1          12
 AtmWgt=   1.0078250   1.0078250  12.0000000  12.0000000  12.0000000  12.0000000   1.0078250  12.0000000   1.0078250  12.0000000
 NucSpn=           1           1           0           0           0           0           1           0           1           0
 AtZEff=  -0.0000000  -0.0000000  -0.0000000  -0.0000000  -0.0000000  -0.0000000  -0.0000000  -0.0000000  -0.0000000  -0.0000000
 NQMom=    0.0000000   0.0000000   0.0000000   0.0000000   0.0000000   0.0000000   0.0000000   0.0000000   0.0000000   0.0000000
 NMagM=    2.7928460   2.7928460   0.0000000   0.0000000   0.0000000   0.0000000   2.7928460   0.0000000   2.7928460   0.0000000
 AtZNuc=   1.0000000   1.0000000   6.0000000   6.0000000   6.0000000   6.0000000   1.0000000   6.0000000   1.0000000   6.0000000

  Atom        21          22          23
 IAtWgt=           1           1           1
 AtmWgt=   1.0078250   1.0078250   1.0078250
 NucSpn=           1           1           1
 AtZEff=  -0.0000000  -0.0000000  -0.0000000
 NQMom=    0.0000000   0.0000000   0.0000000
 NMagM=    2.7928460   2.7928460   2.7928460
 AtZNuc=   1.0000000   1.0000000   1.0000000
 Leave Link  101 at Sat May 11 01:05:03 2019, MaxMem=   104857600 cpu:               8.1 elap:               0.3
 (Enter /opt/software/gaussian/g16.b01/l202.exe)
                          Input orientation:                          
 ---------------------------------------------------------------------
 Center     Atomic      Atomic             Coordinates (Angstroms)
 Number     Number       Type             X           Y           Z
 ---------------------------------------------------------------------
      1          6           0        0.568326    0.210816   -0.404695
      2          1           0        4.902740   -0.957863   -0.402000
      3          8           0        1.259404   -0.785877   -0.613115
      4          7           0        3.818887   -0.333442    1.145330
      5          1           0        3.500957    0.593234    1.422347
      6          7           0        4.218046   -0.221155   -0.245149
      7          1           0        3.413694   -0.450090   -0.831653
      8          1           0        2.989393   -0.926021    1.209005
      9          6           0        1.188036    1.592164   -0.386071
     10          1           0        0.715121    2.235994   -1.134627
     11          1           0        1.036166    2.065539    0.589738
     12          1           0        2.255536    1.520265   -0.592445
     13          6           0       -0.898822    0.071220   -0.161174
     14          6           0       -1.461944   -1.216508   -0.176239
     15          6           0       -1.727815    1.178365    0.083471
     16          6           0       -2.823394   -1.394418    0.047758
     17          1           0       -0.812423   -2.064189   -0.365400
     18          6           0       -3.092445    0.998613    0.308223
     19          1           0       -1.316817    2.181601    0.100673
     20          6           0       -3.641595   -0.285698    0.290616
     21          1           0       -3.249722   -2.392727    0.034242
     22          1           0       -3.726118    1.859493    0.496723
     23          1           0       -4.704364   -0.423359    0.465721
 ---------------------------------------------------------------------
                    Distance matrix (angstroms):
                    1          2          3          4          5
     1  C    0.000000
     2  H    4.489205   0.000000
     3  O    1.230620   3.653498   0.000000
     4  N    3.642107   1.989691   3.138117   0.000000
     5  H    3.476298   2.774732   3.327103   1.018109   0.000000
     6  N    3.678656   1.017913   3.034448   1.450989   1.989470
     7  H    2.952153   1.630857   2.191227   2.021447   2.485288
     8  H    3.123778   2.501449   2.516470   1.021403   1.617204
     9  C    1.514104   4.505765   2.389921   3.602017   3.101264
    10  H    2.157706   5.317294   3.114470   4.629640   4.122822
    11  H    2.155868   5.007484   3.102783   3.715821   2.989333
    12  H    2.143965   3.631126   2.512170   2.983313   2.543589
    13  C    1.493758   5.897044   2.365757   4.911973   4.705113
    14  C    2.492277   6.373937   2.789631   5.514846   5.519151
    15  C    2.539039   6.983080   3.642383   5.846282   5.429091
    16  C    3.779584   7.751517   4.180468   6.815441   6.770352
    17  H    2.661515   5.821373   2.447021   5.169799   5.372447
    18  C    3.811840   8.261670   4.792897   7.088133   6.699146
    19  H    2.773654   6.985113   3.994037   5.813106   5.242202
    20  C    4.295744   8.598673   5.008662   7.509435   7.284874
    21  H    4.642046   8.289257   4.830451   7.445831   7.510956
    22  H    4.687530   9.121534   5.751969   7.883956   7.395323
    23  H    5.381548   9.661008   6.071395   8.550775   8.323214
                    6          7          8          9         10
     6  N    0.000000
     7  H    1.021460   0.000000
     8  H    2.030022   2.137949   0.000000
     9  C    3.533970   3.053342   3.482874   0.000000
    10  H    4.370267   3.819573   4.545686   1.094761   0.000000
    11  H    4.006291   3.741842   3.626020   1.095149   1.762260
    12  H    2.646621   2.298010   3.125393   1.089640   1.783005
    13  C    5.125902   4.395350   4.241473   2.592070   2.870308
    14  C    5.766954   4.978836   4.670940   3.867178   4.192599
    15  C    6.117182   5.470323   5.286522   2.982262   2.927504
    16  C    7.144524   6.369175   5.946123   5.019905   5.205671
    17  H    5.358811   4.547832   4.269424   4.167875   4.627815
    18  C    7.432182   6.762241   6.442389   4.376856   4.255642
    19  H    6.043802   5.492974   5.424865   2.618901   2.378591
    20  C    7.878145   7.145881   6.724839   5.225859   5.231751
    21  H    7.782117   6.994621   6.515969   5.979107   6.205747
    22  H    8.245557   7.620740   7.305102   4.999970   4.746331
    23  H    8.952967   8.221117   7.745905   6.285560   6.245325
                   11         12         13         14         15
    11  H    0.000000
    12  H    1.783744   0.000000
    13  C    2.878429   3.497957   0.000000
    14  C    4.195129   4.634955   1.405552   0.000000
    15  C    2.946689   4.054731   1.404582   2.423541   0.000000
    16  C    5.211645   5.890736   2.428111   1.391177   2.796566
    17  H    4.624308   4.723583   2.146892   1.084538   3.399056
    18  C    4.273524   5.448323   2.427421   2.792848   1.394647
    19  H    2.406072   3.698579   2.167254   3.412461   1.084296
    20  C    5.243972   6.230365   2.802554   2.415624   2.418459
    21  H    6.209150   6.783223   3.411151   2.150336   3.882180
    22  H    4.767647   6.089462   3.409450   3.878291   2.151262
    23  H    6.258089   7.303259   3.888413   3.399189   3.401688
                   16         17         18         19         20
    16  C    0.000000
    17  H    2.159467   0.000000
    18  C    2.422154   3.877244   0.000000
    19  H    3.880784   4.300973   2.143687   0.000000
    20  C    1.399176   3.405525   1.396900   3.395326   0.000000
    21  H    1.085615   2.491601   3.406022   4.966388   2.158440
    22  H    3.406526   4.962676   1.085444   2.462791   2.156726
    23  H    2.157706   4.304682   2.155248   4.288887   1.085859
                   21         22         23
    21  H    0.000000
    22  H    4.303745   0.000000
    23  H    2.486075   2.483816   0.000000
 Stoichiometry    C8H12N2O
 Framework group  C1[X(C8H12N2O)]
 Deg. of freedom    63
 Full point group                 C1      NOp   1
 Largest Abelian subgroup         C1      NOp   1
 Largest concise Abelian subgroup C1      NOp   1
                         Standard orientation:                         
 ---------------------------------------------------------------------
 Center     Atomic      Atomic             Coordinates (Angstroms)
 Number     Number       Type             X           Y           Z
 ---------------------------------------------------------------------
      1          6           0        0.568326    0.210816   -0.404695
      2          1           0        4.902740   -0.957863   -0.402000
      3          8           0        1.259404   -0.785877   -0.613115
      4          7           0        3.818887   -0.333442    1.145330
      5          1           0        3.500957    0.593234    1.422347
      6          7           0        4.218046   -0.221155   -0.245149
      7          1           0        3.413694   -0.450090   -0.831653
      8          1           0        2.989393   -0.926021    1.209005
      9          6           0        1.188036    1.592164   -0.386071
     10          1           0        0.715121    2.235994   -1.134627
     11          1           0        1.036166    2.065539    0.589738
     12          1           0        2.255536    1.520265   -0.592445
     13          6           0       -0.898822    0.071220   -0.161174
     14          6           0       -1.461944   -1.216508   -0.176239
     15          6           0       -1.727815    1.178365    0.083471
     16          6           0       -2.823394   -1.394418    0.047758
     17          1           0       -0.812423   -2.064189   -0.365400
     18          6           0       -3.092445    0.998613    0.308223
     19          1           0       -1.316817    2.181601    0.100673
     20          6           0       -3.641595   -0.285698    0.290616
     21          1           0       -3.249722   -2.392727    0.034242
     22          1           0       -3.726118    1.859493    0.496723
     23          1           0       -4.704364   -0.423359    0.465721
 ---------------------------------------------------------------------
 Rotational constants (GHZ):           2.7287111           0.4626245           0.4212131
 Leave Link  202 at Sat May 11 01:05:03 2019, MaxMem=   104857600 cpu:               0.2 elap:               0.0
 (Enter /opt/software/gaussian/g16.b01/l301.exe)
 Standard basis: 6-31G(d,p) (6D, 7F)
 Ernie: Thresh=  0.10000D-02 Tol=  0.10000D-05 Strict=F.
 There are   225 symmetry adapted cartesian basis functions of A   symmetry.
 There are   225 symmetry adapted basis functions of A   symmetry.
   225 basis functions,   392 primitive gaussians,   225 cartesian basis functions
    41 alpha electrons       41 beta electrons
       nuclear repulsion energy       569.4143960803 Hartrees.
 IExCor=  402 DFT=T Ex+Corr=B3LYP ExCW=0 ScaHFX=  0.200000
 ScaDFX=  0.800000  0.720000  1.000000  0.810000 ScalE2=  1.000000  1.000000
 IRadAn=      5 IRanWt=     -1 IRanGd=            0 ICorTp=0 IEmpDi=131
 NAtoms=   23 NActive=   23 NUniq=   23 SFac= 1.00D+00 NAtFMM=   60 NAOKFM=F Big=F
 Integral buffers will be    131072 words long.
 Raffenetti 2 integral format.
 Two-electron integral symmetry is turned on.
 R6Disp:  Grimme-D3 Dispersion energy=       -0.0174004410 Hartrees.
 Nuclear repulsion after empirical dispersion term =      569.3969956392 Hartrees.
 ------------------------------------------------------------------------------
 Polarizable Continuum Model (PCM)
 =================================
 Model                : PCM.
 Atomic radii         : UFF (Universal Force Field).
 Polarization charges : Total charges.
 Charge compensation  : None.
 Solution method      : On-the-fly selection.
 Cavity type          : Scaled VdW (van der Waals Surface) (Alpha=1.100).
 Cavity algorithm     : GePol (No added spheres)
                        Default sphere list used, NSphG=   23.
                        Lebedev-Laikov grids with approx.  5.0 points / Ang**2.
                        Smoothing algorithm: York/Karplus (Gamma=1.0000).
                        Polarization charges: spherical gaussians, with
                                              point-specific exponents (IZeta= 3).
                        Self-potential: point-specific (ISelfS= 7).
                        Self-field    : sphere-specific E.n sum rule (ISelfD= 2).
 Solvent              : Acetonitrile, Eps=  35.688000 Eps(inf)=   1.806874
 ------------------------------------------------------------------------------
 GePol: Number of generator spheres                  =      23
 GePol: Total number of spheres                      =      23
 GePol: Number of exposed spheres                    =      23 (100.00%)
 GePol: Number of points                             =    1844
 GePol: Average weight of points                     =       0.13
 GePol: Minimum weight of points                     =   0.10D-10
 GePol: Maximum weight of points                     =    0.20577
 GePol: Number of points with low weight             =     117
 GePol: Fraction of low-weight points (<1% of avg)   =       6.34%
 GePol: Cavity surface area                          =    240.276 Ang**2
 GePol: Cavity volume                                =    243.489 Ang**3
 Leave Link  301 at Sat May 11 01:05:03 2019, MaxMem=   104857600 cpu:               3.6 elap:               0.1
 (Enter /opt/software/gaussian/g16.b01/l302.exe)
 NPDir=0 NMtPBC=     1 NCelOv=     1 NCel=       1 NClECP=     1 NCelD=      1
         NCelK=      1 NCelE2=     1 NClLst=     1 CellRange=     0.0.
 One-electron integrals computed using PRISM.
 One-electron integral symmetry used in STVInt
 PrsmSu:  requested number of processors reduced to:  29 ShMem   1 Linda.
 NBasis=   225 RedAO= T EigKep=  4.70D-04  NBF=   225
 NBsUse=   225 1.00D-06 EigRej= -1.00D+00 NBFU=   225
 Precomputing XC quadrature grid using
 IXCGrd= 4 IRadAn=           5 IRanWt=          -1 IRanGd=           0 AccXCQ= 0.00D+00.
 Generated NRdTot=       0 NPtTot=           0 NUsed=           0 NTot=          32
 NSgBfM=   224   224   224   224   224 MxSgAt=    23 MxSgA2=    23.
 Leave Link  302 at Sat May 11 01:05:03 2019, MaxMem=   104857600 cpu:               7.1 elap:               0.2
 (Enter /opt/software/gaussian/g16.b01/l303.exe)
 DipDrv:  MaxL=1.
 Leave Link  303 at Sat May 11 01:05:03 2019, MaxMem=   104857600 cpu:               1.6 elap:               0.1
 (Enter /opt/software/gaussian/g16.b01/l308.exe)
 Leave Link  308 at Sat May 11 01:05:03 2019, MaxMem=   104857600 cpu:               2.6 elap:               0.1
 (Enter /opt/software/gaussian/g16.b01/l401.exe)
 Core hamiltonian diagonalized for initial guess.
 JPrj=0 DoOrth=F DoCkMO=T.
 Mixing orbitals, IMix= 1 IMixAn=  0 NRI=1 NE=   41 Coef=  7.07106781D-01  7.07106781D-01
 Mixing orbitals, IMix= 1 IMixAn=  0 NRI=1 NE=   41 Coef= -7.07106781D-01  7.07106781D-01
 Initial guess <Sx>= 0.0000 <Sy>= 0.0000 <Sz>= 0.0000 <S**2>= 1.0000 S= 0.6180
 Leave Link  401 at Sat May 11 01:05:03 2019, MaxMem=   104857600 cpu:               2.1 elap:               0.1
 (Enter /opt/software/gaussian/g16.b01/l502.exe)
 Integral symmetry usage will be decided dynamically.
 UHF open shell SCF:
 Using DIIS extrapolation, IDIIS=  1040.
 NGot=   104857600 LenX=   104746616 LenY=   104695550
 Requested convergence on RMS density matrix=1.00D-08 within 128 cycles.
 Requested convergence on MAX density matrix=1.00D-06.
 Requested convergence on             energy=1.00D-06.
 No special actions if energy rises.
 Fock matrices will be formed incrementally for  20 cycles.

 Cycle   1  Pass 1  IDiag  1:
 FoFJK:  IHMeth= 1 ICntrl=       0 DoSepK=F KAlg= 0 I1Cent=           0 FoldK=F
 IRaf= 840000000 NMat=       1 IRICut=       1 DoRegI=T DoRafI=F ISym2E= 0 IDoP0=0 IntGTp=1.
 FoFCou: FMM=F IPFlag=           0 FMFlag=      100000 FMFlg1=           0
         NFxFlg=           0 DoJE=F BraDBF=F KetDBF=F FulRan=T
         wScrn=  0.000000 ICntrl=         0 IOpCl=  1 I1Cent=           0 NGrid=           0
         NMat0=    1 NMatS0=      1 NMatT0=    0 NMatD0=    1 NMtDS0=    0 NMtDT0=    0
 Symmetry not used in FoFCou.
 Inv3:  Mode=1 IEnd=    10201008.
 Iteration    1 A*A^-1 deviation from unit magnitude is 3.77D-15 for   1339.
 Iteration    1 A*A^-1 deviation from orthogonality  is 2.22D-15 for   1753   1329.
 Iteration    1 A^-1*A deviation from unit magnitude is 3.77D-15 for   1339.
 Iteration    1 A^-1*A deviation from orthogonality  is 5.72D-14 for    997    930.
 E= -318.688592596685    
 DIIS: error= 4.44D-01 at cycle   1 NSaved=   1.
 NSaved= 1 IEnMin= 1 EnMin= -318.688592596685     IErMin= 1 ErrMin= 4.44D-01
 ErrMax= 4.44D-01  0.00D+00 EMaxC= 1.00D-01 BMatC= 3.37D+02 BMatP= 3.37D+02
 IDIUse=3 WtCom= 0.00D+00 WtEn= 1.00D+00
 Coeff-Com:  0.100D+01
 Coeff-En:   0.100D+01
 Coeff:      0.100D+01
 Gap=     0.143 Goal=   None    Shift=    0.000
 Gap=     0.060 Goal=   None    Shift=    0.000
 GapD=    0.060 DampG=0.500 DampE=0.250 DampFc=0.2500 IDamp=-1.
 Damping current iteration by 2.50D-01
 RMSDP=9.35D-02 MaxDP=4.55D+00              OVMax= 1.00D+00

 Cycle   2  Pass 1  IDiag  1:
 RMSU=  1.30D-02    CP:  7.60D-01
 E= -399.759018474562     Delta-E=      -81.070425877877 Rises=F Damp=T
 DIIS: error= 2.55D-01 at cycle   2 NSaved=   2.
 NSaved= 2 IEnMin= 2 EnMin= -399.759018474562     IErMin= 2 ErrMin= 2.55D-01
 ErrMax= 2.55D-01  0.00D+00 EMaxC= 1.00D-01 BMatC= 1.13D+02 BMatP= 3.37D+02
 IDIUse=3 WtCom= 0.00D+00 WtEn= 1.00D+00
 Coeff-Com: -0.122D+01 0.222D+01
 Coeff-En:   0.000D+00 0.100D+01
 Coeff:      0.000D+00 0.100D+01
 Gap=    -0.283 Goal=   None    Shift=    0.000
 Gap=    -0.278 Goal=   None    Shift=    0.000
 RMSDP=1.45D-01 MaxDP=8.04D+00 DE=-8.11D+01 OVMax= 9.99D-01

 Cycle   3  Pass 1  IDiag  1:
 RMSU=  1.37D-01    CP:  2.20D-01  2.25D+00
 E= -425.681485911220     Delta-E=      -25.922467436658 Rises=F Damp=F
 DIIS: error= 1.66D-01 at cycle   3 NSaved=   3.
 NSaved= 3 IEnMin= 3 EnMin= -425.681485911220     IErMin= 3 ErrMin= 1.66D-01
 ErrMax= 1.66D-01  0.00D+00 EMaxC= 1.00D-01 BMatC= 8.14D+01 BMatP= 1.13D+02
 IDIUse=3 WtCom= 0.00D+00 WtEn= 1.00D+00
 EnCoef did   100 forward-backward iterations
 Coeff-Com: -0.103D+01 0.189D+01 0.140D+00
 Coeff-En:   0.327D+00 0.102D-01 0.663D+00
 Coeff:      0.327D+00 0.102D-01 0.663D+00
 Gap=    -0.448 Goal=   None    Shift=    0.000
 Gap=    -0.515 Goal=   None    Shift=    0.000
 RMSDP=1.44D-01 MaxDP=8.20D+00 DE=-2.59D+01 OVMax= 9.95D-01

 Cycle   4  Pass 1  IDiag  1:
 RMSU=  5.52D-02    CP:  1.98D-01  3.99D-01  4.22D-02
 E= -463.431550077603     Delta-E=      -37.750064166383 Rises=F Damp=F
 DIIS: error= 1.37D-01 at cycle   4 NSaved=   4.
 NSaved= 4 IEnMin= 4 EnMin= -463.431550077603     IErMin= 4 ErrMin= 1.37D-01
 ErrMax= 1.37D-01  0.00D+00 EMaxC= 1.00D-01 BMatC= 5.87D+01 BMatP= 8.14D+01
 IDIUse=3 WtCom= 0.00D+00 WtEn= 1.00D+00
 Coeff-Com: -0.834D+00 0.151D+01 0.127D+00 0.196D+00
 Coeff-En:   0.000D+00 0.000D+00 0.344D+00 0.656D+00
 Coeff:      0.000D+00 0.000D+00 0.344D+00 0.656D+00
 Gap=     0.551 Goal=   None    Shift=    0.000
 Gap=     0.592 Goal=   None    Shift=    0.000
 RMSDP=7.40D-02 MaxDP=1.80D+00 DE=-3.78D+01 OVMax= 9.67D-01

 Cycle   5  Pass 1  IDiag  1:
 RMSU=  5.44D-02    CP:  2.50D-01  3.83D-01  7.21D-02  9.81D-02
 E= -388.931166849054     Delta-E=       74.500383228549 Rises=F Damp=F
 DIIS: error= 4.13D-01 at cycle   5 NSaved=   5.
 NSaved= 5 IEnMin= 4 EnMin= -463.431550077603     IErMin= 4 ErrMin= 1.37D-01
 ErrMax= 4.13D-01  0.00D+00 EMaxC= 1.00D-01 BMatC= 1.99D+02 BMatP= 5.87D+01
 IDIUse=2 WtCom= 0.00D+00 WtEn= 1.00D+00
 EnCoef did     6 forward-backward iterations
 Coeff-En:   0.000D+00 0.000D+00 0.253D+00 0.573D+00 0.174D+00
 Coeff:      0.000D+00 0.000D+00 0.253D+00 0.573D+00 0.174D+00
 Gap=     0.158 Goal=   None    Shift=    0.000
 Gap=     0.158 Goal=   None    Shift=    0.000
 RMSDP=5.40D-02 MaxDP=2.32D+00 DE= 7.45D+01 OVMax= 9.98D-01

 Cycle   6  Pass 1  IDiag  1:
 RMSU=  1.83D-02    CP:  8.48D-02  4.06D-01  2.16D-02  7.91D-02  1.10D-01
 E= -492.830894621162     Delta-E=     -103.899727772109 Rises=F Damp=F
 DIIS: error= 8.38D-02 at cycle   6 NSaved=   6.
 NSaved= 6 IEnMin= 6 EnMin= -492.830894621162     IErMin= 6 ErrMin= 8.38D-02
 ErrMax= 8.38D-02  0.00D+00 EMaxC= 1.00D-01 BMatC= 1.20D+01 BMatP= 5.87D+01
 IDIUse=3 WtCom= 1.62D-01 WtEn= 8.38D-01
 Coeff-Com: -0.352D+00 0.643D+00 0.194D-01 0.158D+00-0.183D-01 0.550D+00
 Coeff-En:   0.000D+00 0.000D+00 0.000D+00 0.142D+00 0.000D+00 0.858D+00
 Coeff:     -0.570D-01 0.104D+00 0.313D-02 0.144D+00-0.297D-02 0.808D+00
 Gap=    -0.234 Goal=   None    Shift=    0.000
 Gap=    -0.232 Goal=   None    Shift=    0.000
 RMSDP=1.39D-02 MaxDP=5.50D-01 DE=-1.04D+02 OVMax= 7.90D-01

 Cycle   7  Pass 1  IDiag  1:
 RMSU=  1.24D-02    CP:  8.57D-02  3.33D-01  1.10D-02  1.19D-01  5.60D-02
                    CP:  7.37D-01
 E= -493.105861549709     Delta-E=       -0.274966928547 Rises=F Damp=F
 DIIS: error= 7.84D-02 at cycle   7 NSaved=   7.
 NSaved= 7 IEnMin= 7 EnMin= -493.105861549709     IErMin= 7 ErrMin= 7.84D-02
 ErrMax= 7.84D-02  0.00D+00 EMaxC= 1.00D-01 BMatC= 1.19D+01 BMatP= 1.20D+01
 IDIUse=3 WtCom= 2.16D-01 WtEn= 7.84D-01
 Coeff-Com: -0.137D+00 0.242D+00 0.179D-01 0.274D-01-0.116D-01 0.448D+00
 Coeff-Com:  0.414D+00
 Coeff-En:   0.000D+00 0.000D+00 0.000D+00 0.000D+00 0.000D+00 0.485D+00
 Coeff-En:   0.515D+00
 Coeff:     -0.297D-01 0.523D-01 0.386D-02 0.591D-02-0.251D-02 0.477D+00
 Coeff:      0.493D+00
 Gap=    -0.308 Goal=   None    Shift=    0.000
 Gap=    -0.309 Goal=   None    Shift=    0.000
 RMSDP=8.29D-03 MaxDP=3.48D-01 DE=-2.75D-01 OVMax= 7.97D-01

 Cycle   8  Pass 1  IDiag  1:
 RMSU=  5.95D-03    CP:  7.54D-02  3.95D-01  1.06D-02  9.94D-02  5.78D-02
                    CP:  8.21D-01  5.68D-01
 E= -496.271502516740     Delta-E=       -3.165640967030 Rises=F Damp=F
 DIIS: error= 4.31D-02 at cycle   8 NSaved=   8.
 NSaved= 8 IEnMin= 8 EnMin= -496.271502516740     IErMin= 8 ErrMin= 4.31D-02
 ErrMax= 4.31D-02  0.00D+00 EMaxC= 1.00D-01 BMatC= 2.21D+00 BMatP= 1.19D+01
 IDIUse=3 WtCom= 5.69D-01 WtEn= 4.31D-01
 Coeff-Com: -0.406D-01 0.725D-01-0.842D-02-0.106D-01-0.183D-02 0.265D+00
 Coeff-Com:  0.214D+00 0.510D+00
 Coeff-En:   0.000D+00 0.000D+00 0.000D+00 0.000D+00 0.000D+00 0.817D-01
 Coeff-En:   0.000D+00 0.918D+00
 Coeff:     -0.231D-01 0.413D-01-0.480D-02-0.606D-02-0.104D-02 0.186D+00
 Coeff:      0.122D+00 0.686D+00
 Gap=     0.618 Goal=   None    Shift=    0.000
 Gap=     0.618 Goal=   None    Shift=    0.000
 RMSDP=6.50D-03 MaxDP=3.58D-01 DE=-3.17D+00 OVMax= 9.27D-01

 Cycle   9  Pass 1  IDiag  1:
 RMSU=  5.13D-03    CP:  7.63D-02  3.47D-01  1.09D-02  9.39D-02  6.69D-02
                    CP:  8.45D-01  5.46D-01  3.51D-01
 E= -495.373855152122     Delta-E=        0.897647364618 Rises=F Damp=F
 DIIS: error= 6.79D-02 at cycle   9 NSaved=   9.
 NSaved= 9 IEnMin= 8 EnMin= -496.271502516740     IErMin= 8 ErrMin= 4.31D-02
 ErrMax= 6.79D-02  0.00D+00 EMaxC= 1.00D-01 BMatC= 3.33D+00 BMatP= 2.21D+00
 IDIUse=2 WtCom= 0.00D+00 WtEn= 1.00D+00
 Coeff-En:   0.000D+00 0.000D+00 0.000D+00 0.000D+00 0.000D+00 0.000D+00
 Coeff-En:   0.000D+00 0.700D+00 0.300D+00
 Coeff:      0.000D+00 0.000D+00 0.000D+00 0.000D+00 0.000D+00 0.000D+00
 Coeff:      0.000D+00 0.700D+00 0.300D+00
 Gap=    -0.145 Goal=   None    Shift=    0.000
 Gap=    -0.145 Goal=   None    Shift=    0.000
 RMSDP=5.58D-03 MaxDP=1.98D-01 DE= 8.98D-01 OVMax= 6.87D-01

 Cycle  10  Pass 1  IDiag  1:
 RMSU=  3.42D-03    CP:  7.61D-02  3.75D-01  1.29D-02  9.74D-02  7.03D-02
                    CP:  8.67D-01  3.82D-01  7.98D-01  4.54D-01
 E= -496.580455020511     Delta-E=       -1.206599868389 Rises=F Damp=F
 DIIS: error= 2.81D-02 at cycle  10 NSaved=  10.
 NSaved=10 IEnMin=10 EnMin= -496.580455020511     IErMin=10 ErrMin= 2.81D-02
 ErrMax= 2.81D-02  0.00D+00 EMaxC= 1.00D-01 BMatC= 9.66D-01 BMatP= 2.21D+00
 IDIUse=3 WtCom= 7.19D-01 WtEn= 2.81D-01
 EnCoef did     2 forward-backward iterations
 Coeff-Com: -0.774D-02 0.160D-01-0.212D-02-0.322D-02 0.919D-03-0.949D-02
 Coeff-Com:  0.600D-01 0.334D+00 0.138D+00 0.474D+00
 Coeff-En:   0.000D+00 0.000D+00 0.000D+00 0.000D+00 0.000D+00 0.000D+00
 Coeff-En:   0.000D+00 0.287D+00 0.518D-02 0.708D+00
 Coeff:     -0.556D-02 0.115D-01-0.152D-02-0.231D-02 0.660D-03-0.682D-02
 Coeff:      0.431D-01 0.321D+00 0.101D+00 0.540D+00
 Gap=     0.251 Goal=   None    Shift=    0.000
 Gap=     0.251 Goal=   None    Shift=    0.000
 RMSDP=3.02D-03 MaxDP=1.33D-01 DE=-1.21D+00 OVMax= 1.72D-01

 Cycle  11  Pass 1  IDiag  1:
 RMSU=  1.57D-03    CP:  7.55D-02  3.70D-01  1.02D-02  9.44D-02  6.29D-02
                    CP:  8.47D-01  4.95D-01  8.03D-01  2.48D-01  4.84D-01
 E= -496.788286213051     Delta-E=       -0.207831192540 Rises=F Damp=F
 DIIS: error= 1.11D-02 at cycle  11 NSaved=  11.
 NSaved=11 IEnMin=11 EnMin= -496.788286213051     IErMin=11 ErrMin= 1.11D-02
 ErrMax= 1.11D-02  0.00D+00 EMaxC= 1.00D-01 BMatC= 1.28D-01 BMatP= 9.66D-01
 IDIUse=3 WtCom= 8.89D-01 WtEn= 1.11D-01
 Coeff-Com:  0.145D-03 0.185D-03-0.145D-02 0.156D-02 0.652D-03-0.214D-01
 Coeff-Com:  0.863D-02 0.975D-01 0.382D-01 0.323D+00 0.553D+00
 Coeff-En:   0.000D+00 0.000D+00 0.000D+00 0.000D+00 0.000D+00 0.000D+00
 Coeff-En:   0.000D+00 0.000D+00 0.000D+00 0.689D-01 0.931D+00
 Coeff:      0.129D-03 0.165D-03-0.129D-02 0.139D-02 0.580D-03-0.190D-01
 Coeff:      0.768D-02 0.867D-01 0.340D-01 0.295D+00 0.595D+00
 Gap=     0.185 Goal=   None    Shift=    0.000
 Gap=     0.185 Goal=   None    Shift=    0.000
 RMSDP=1.07D-03 MaxDP=7.12D-02 DE=-2.08D-01 OVMax= 8.19D-02

 Cycle  12  Pass 1  IDiag  1:
 RMSU=  5.64D-04    CP:  7.48D-02  3.72D-01  1.06D-02  9.57D-02  6.41D-02
                    CP:  8.48D-01  4.72D-01  8.26D-01  3.16D-01  6.55D-01
                    CP:  6.77D-01
 E= -496.803099979980     Delta-E=       -0.014813766928 Rises=F Damp=F
 DIIS: error= 7.44D-03 at cycle  12 NSaved=  12.
 NSaved=12 IEnMin=12 EnMin= -496.803099979980     IErMin=12 ErrMin= 7.44D-03
 ErrMax= 7.44D-03  0.00D+00 EMaxC= 1.00D-01 BMatC= 4.99D-02 BMatP= 1.28D-01
 IDIUse=3 WtCom= 9.26D-01 WtEn= 7.44D-02
 Coeff-Com: -0.123D-03-0.141D-03-0.459D-03-0.299D-03-0.200D-03 0.291D-04
 Coeff-Com:  0.459D-03-0.130D-01 0.791D-02 0.230D-01 0.407D+00 0.576D+00
 Coeff-En:   0.000D+00 0.000D+00 0.000D+00 0.000D+00 0.000D+00 0.000D+00
 Coeff-En:   0.000D+00 0.000D+00 0.000D+00 0.000D+00 0.322D+00 0.678D+00
 Coeff:     -0.114D-03-0.131D-03-0.425D-03-0.277D-03-0.185D-03 0.269D-04
 Coeff:      0.425D-03-0.120D-01 0.732D-02 0.213D-01 0.401D+00 0.583D+00
 Gap=     0.194 Goal=   None    Shift=    0.000
 Gap=     0.194 Goal=   None    Shift=    0.000
 RMSDP=5.10D-04 MaxDP=2.82D-02 DE=-1.48D-02 OVMax= 3.67D-02

 Cycle  13  Pass 1  IDiag  1:
 RMSU=  1.70D-04    CP:  7.48D-02  3.71D-01  1.04D-02  9.49D-02  6.36D-02
                    CP:  8.49D-01  4.81D-01  8.02D-01  2.94D-01  5.94D-01
                    CP:  8.65D-01  5.90D-01
 E= -496.812567570912     Delta-E=       -0.009467590932 Rises=F Damp=F
 DIIS: error= 9.87D-04 at cycle  13 NSaved=  13.
 NSaved=13 IEnMin=13 EnMin= -496.812567570912     IErMin=13 ErrMin= 9.87D-04
 ErrMax= 9.87D-04  0.00D+00 EMaxC= 1.00D-01 BMatC= 1.48D-03 BMatP= 4.99D-02
 IDIUse=3 WtCom= 9.90D-01 WtEn= 9.87D-03
 Coeff-Com:  0.113D-03-0.348D-03-0.560D-04-0.957D-04-0.669D-05 0.107D-02
 Coeff-Com: -0.205D-02-0.133D-01 0.346D-02-0.171D-01 0.163D+00 0.315D+00
 Coeff-Com:  0.550D+00
 Coeff-En:   0.000D+00 0.000D+00 0.000D+00 0.000D+00 0.000D+00 0.000D+00
 Coeff-En:   0.000D+00 0.000D+00 0.000D+00 0.000D+00 0.000D+00 0.000D+00
 Coeff-En:   0.100D+01
 Coeff:      0.112D-03-0.344D-03-0.554D-04-0.948D-04-0.662D-05 0.106D-02
 Coeff:     -0.203D-02-0.132D-01 0.342D-02-0.169D-01 0.161D+00 0.312D+00
 Coeff:      0.554D+00
 Gap=     0.176 Goal=   None    Shift=    0.000
 Gap=     0.176 Goal=   None    Shift=    0.000
 RMSDP=9.29D-05 MaxDP=4.63D-03 DE=-9.47D-03 OVMax= 6.31D-03

 Cycle  14  Pass 1  IDiag  1:
 RMSU=  4.79D-05    CP:  7.48D-02  3.71D-01  1.04D-02  9.50D-02  6.36D-02
                    CP:  8.48D-01  4.82D-01  8.05D-01  2.94D-01  5.94D-01
                    CP:  8.70D-01  6.72D-01  6.47D-01
 E= -496.812879990018     Delta-E=       -0.000312419107 Rises=F Damp=F
 DIIS: error= 3.40D-04 at cycle  14 NSaved=  14.
 NSaved=14 IEnMin=14 EnMin= -496.812879990018     IErMin=14 ErrMin= 3.40D-04
 ErrMax= 3.40D-04  0.00D+00 EMaxC= 1.00D-01 BMatC= 1.22D-04 BMatP= 1.48D-03
 IDIUse=3 WtCom= 9.97D-01 WtEn= 3.40D-03
 EnCoef did     2 forward-backward iterations
 Coeff-Com: -0.226D-04 0.404D-04 0.560D-04 0.285D-04 0.138D-04 0.261D-03
 Coeff-Com: -0.331D-03-0.204D-02 0.355D-03-0.119D-02 0.123D-01 0.493D-01
 Coeff-Com:  0.229D+00 0.712D+00
 Coeff-En:   0.000D+00 0.000D+00 0.000D+00 0.000D+00 0.000D+00 0.000D+00
 Coeff-En:   0.000D+00 0.000D+00 0.000D+00 0.000D+00 0.000D+00 0.000D+00
 Coeff-En:   0.524D-03 0.999D+00
 Coeff:     -0.226D-04 0.402D-04 0.558D-04 0.284D-04 0.138D-04 0.260D-03
 Coeff:     -0.330D-03-0.204D-02 0.354D-03-0.118D-02 0.123D-01 0.491D-01
 Coeff:      0.228D+00 0.713D+00
 Gap=     0.176 Goal=   None    Shift=    0.000
 Gap=     0.176 Goal=   None    Shift=    0.000
 RMSDP=2.78D-05 MaxDP=1.06D-03 DE=-3.12D-04 OVMax= 2.17D-03

 Cycle  15  Pass 1  IDiag  1:
 RMSU=  1.23D-05    CP:  7.48D-02  3.71D-01  1.04D-02  9.50D-02  6.36D-02
                    CP:  8.48D-01  4.81D-01  8.04D-01  2.96D-01  5.97D-01
                    CP:  8.67D-01  6.68D-01  7.13D-01  7.48D-01
 E= -496.812911812324     Delta-E=       -0.000031822305 Rises=F Damp=F
 DIIS: error= 6.52D-05 at cycle  15 NSaved=  15.
 NSaved=15 IEnMin=15 EnMin= -496.812911812324     IErMin=15 ErrMin= 6.52D-05
 ErrMax= 6.52D-05  0.00D+00 EMaxC= 1.00D-01 BMatC= 6.95D-06 BMatP= 1.22D-04
 IDIUse=1 WtCom= 1.00D+00 WtEn= 0.00D+00
 Coeff-Com:  0.278D-04-0.505D-04 0.186D-04-0.170D-04-0.462D-05 0.107D-03
 Coeff-Com: -0.225D-04-0.392D-03-0.711D-04 0.306D-03-0.810D-03 0.133D-01
 Coeff-Com:  0.880D-01 0.330D+00 0.570D+00
 Coeff:      0.278D-04-0.505D-04 0.186D-04-0.170D-04-0.462D-05 0.107D-03
 Coeff:     -0.225D-04-0.392D-03-0.711D-04 0.306D-03-0.810D-03 0.133D-01
 Coeff:      0.880D-01 0.330D+00 0.570D+00
 Gap=     0.176 Goal=   None    Shift=    0.000
 Gap=     0.176 Goal=   None    Shift=    0.000
 RMSDP=5.61D-06 MaxDP=3.07D-04 DE=-3.18D-05 OVMax= 3.89D-04

 Cycle  16  Pass 1  IDiag  1:
 RMSU=  4.23D-06    CP:  7.48D-02  3.71D-01  1.04D-02  9.50D-02  6.36D-02
                    CP:  8.48D-01  4.81D-01  8.04D-01  2.96D-01  5.97D-01
                    CP:  8.66D-01  6.70D-01  7.12D-01  7.66D-01  7.70D-01
 E= -496.812913196471     Delta-E=       -0.000001384147 Rises=F Damp=F
 DIIS: error= 2.22D-05 at cycle  16 NSaved=  16.
 NSaved=16 IEnMin=16 EnMin= -496.812913196471     IErMin=16 ErrMin= 2.22D-05
 ErrMax= 2.22D-05  0.00D+00 EMaxC= 1.00D-01 BMatC= 7.51D-07 BMatP= 6.95D-06
 IDIUse=1 WtCom= 1.00D+00 WtEn= 0.00D+00
 Coeff-Com:  0.399D-05-0.108D-04 0.235D-05-0.112D-04-0.617D-05-0.791D-05
 Coeff-Com:  0.363D-04 0.813D-04-0.443D-04 0.632D-03-0.174D-02 0.632D-03
 Coeff-Com:  0.154D-01 0.611D-01 0.256D+00 0.667D+00
 Coeff:      0.399D-05-0.108D-04 0.235D-05-0.112D-04-0.617D-05-0.791D-05
 Coeff:      0.363D-04 0.813D-04-0.443D-04 0.632D-03-0.174D-02 0.632D-03
 Coeff:      0.154D-01 0.611D-01 0.256D+00 0.667D+00
 Gap=     0.176 Goal=   None    Shift=    0.000
 Gap=     0.176 Goal=   None    Shift=    0.000
 RMSDP=2.09D-06 MaxDP=8.94D-05 DE=-1.38D-06 OVMax= 1.66D-04

 Cycle  17  Pass 1  IDiag  1:
 RMSU=  1.20D-06    CP:  7.48D-02  3.71D-01  1.04D-02  9.50D-02  6.36D-02
                    CP:  8.48D-01  4.81D-01  8.04D-01  2.96D-01  5.98D-01
                    CP:  8.65D-01  6.70D-01  7.14D-01  7.67D-01  8.26D-01
                    CP:  8.36D-01
 E= -496.812913375008     Delta-E=       -0.000000178537 Rises=F Damp=F
 DIIS: error= 5.33D-06 at cycle  17 NSaved=  17.
 NSaved=17 IEnMin=17 EnMin= -496.812913375008     IErMin=17 ErrMin= 5.33D-06
 ErrMax= 5.33D-06  0.00D+00 EMaxC= 1.00D-01 BMatC= 5.62D-08 BMatP= 7.51D-07
 IDIUse=1 WtCom= 1.00D+00 WtEn= 0.00D+00
 Coeff-Com: -0.452D-06 0.393D-06 0.109D-05 0.110D-05-0.230D-05-0.597D-05
 Coeff-Com: -0.872D-05 0.578D-04 0.519D-05 0.134D-03-0.557D-03-0.608D-03
 Coeff-Com:  0.667D-03-0.327D-02 0.579D-01 0.275D+00 0.671D+00
 Coeff:     -0.452D-06 0.393D-06 0.109D-05 0.110D-05-0.230D-05-0.597D-05
 Coeff:     -0.872D-05 0.578D-04 0.519D-05 0.134D-03-0.557D-03-0.608D-03
 Coeff:      0.667D-03-0.327D-02 0.579D-01 0.275D+00 0.671D+00
 Gap=     0.176 Goal=   None    Shift=    0.000
 Gap=     0.176 Goal=   None    Shift=    0.000
 RMSDP=5.83D-07 MaxDP=2.39D-05 DE=-1.79D-07 OVMax= 3.99D-05

 Cycle  18  Pass 1  IDiag  1:
 RMSU=  4.29D-07    CP:  7.48D-02  3.71D-01  1.04D-02  9.50D-02  6.36D-02
                    CP:  8.48D-01  4.81D-01  8.04D-01  2.96D-01  5.98D-01
                    CP:  8.65D-01  6.69D-01  7.15D-01  7.64D-01  8.32D-01
                    CP:  8.58D-01  7.93D-01
 E= -496.812913385194     Delta-E=       -0.000000010185 Rises=F Damp=F
 DIIS: error= 4.74D-06 at cycle  18 NSaved=  18.
 NSaved=18 IEnMin=18 EnMin= -496.812913385194     IErMin=18 ErrMin= 4.74D-06
 ErrMax= 4.74D-06  0.00D+00 EMaxC= 1.00D-01 BMatC= 1.22D-08 BMatP= 5.62D-08
 IDIUse=1 WtCom= 1.00D+00 WtEn= 0.00D+00
 Coeff-Com: -0.405D-06 0.983D-06-0.116D-06 0.623D-06-0.122D-06 0.344D-05
 Coeff-Com: -0.354D-05 0.245D-04 0.213D-05-0.264D-04 0.142D-04 0.111D-05
 Coeff-Com: -0.698D-04-0.462D-02 0.380D-02 0.765D-01 0.305D+00 0.620D+00
 Coeff:     -0.405D-06 0.983D-06-0.116D-06 0.623D-06-0.122D-06 0.344D-05
 Coeff:     -0.354D-05 0.245D-04 0.213D-05-0.264D-04 0.142D-04 0.111D-05
 Coeff:     -0.698D-04-0.462D-02 0.380D-02 0.765D-01 0.305D+00 0.620D+00
 Gap=     0.176 Goal=   None    Shift=    0.000
 Gap=     0.176 Goal=   None    Shift=    0.000
 RMSDP=2.40D-07 MaxDP=8.37D-06 DE=-1.02D-08 OVMax= 1.44D-05

 Cycle  19  Pass 1  IDiag  1:
 RMSU=  1.41D-07    CP:  7.48D-02  3.71D-01  1.04D-02  9.50D-02  6.36D-02
                    CP:  8.48D-01  4.81D-01  8.04D-01  2.96D-01  5.97D-01
                    CP:  8.66D-01  6.70D-01  7.15D-01  7.64D-01  8.30D-01
                    CP:  8.62D-01  8.16D-01  8.14D-01
 E= -496.812913387972     Delta-E=       -0.000000002779 Rises=F Damp=F
 DIIS: error= 8.59D-07 at cycle  19 NSaved=  19.
 NSaved=19 IEnMin=19 EnMin= -496.812913387972     IErMin=19 ErrMin= 8.59D-07
 ErrMax= 8.59D-07  0.00D+00 EMaxC= 1.00D-01 BMatC= 4.54D-10 BMatP= 1.22D-08
 IDIUse=1 WtCom= 1.00D+00 WtEn= 0.00D+00
 Coeff-Com: -0.202D-06 0.375D-06-0.186D-06-0.151D-06 0.189D-06 0.459D-07
 Coeff-Com:  0.717D-06 0.872D-05-0.174D-05-0.960D-05 0.390D-05 0.122D-04
 Coeff-Com: -0.130D-03-0.140D-02-0.170D-03 0.225D-01 0.822D-01 0.218D+00
 Coeff-Com:  0.679D+00
 Coeff:     -0.202D-06 0.375D-06-0.186D-06-0.151D-06 0.189D-06 0.459D-07
 Coeff:      0.717D-06 0.872D-05-0.174D-05-0.960D-05 0.390D-05 0.122D-04
 Coeff:     -0.130D-03-0.140D-02-0.170D-03 0.225D-01 0.822D-01 0.218D+00
 Coeff:      0.679D+00
 Gap=     0.176 Goal=   None    Shift=    0.000
 Gap=     0.176 Goal=   None    Shift=    0.000
 RMSDP=6.14D-08 MaxDP=2.72D-06 DE=-2.78D-09 OVMax= 4.91D-06

 Cycle  20  Pass 1  IDiag  1:
 RMSU=  4.75D-08    CP:  7.48D-02  3.71D-01  1.04D-02  9.50D-02  6.36D-02
                    CP:  8.48D-01  4.81D-01  8.04D-01  2.96D-01  5.97D-01
                    CP:  8.65D-01  6.70D-01  7.15D-01  7.64D-01  8.30D-01
                    CP:  8.64D-01  8.18D-01  8.37D-01  8.80D-01
 E= -496.812913388096     Delta-E=       -0.000000000124 Rises=F Damp=F
 DIIS: error= 2.90D-07 at cycle  20 NSaved=  20.
 NSaved=20 IEnMin=20 EnMin= -496.812913388096     IErMin=20 ErrMin= 2.90D-07
 ErrMax= 2.90D-07  0.00D+00 EMaxC= 1.00D-01 BMatC= 6.75D-11 BMatP= 4.54D-10
 IDIUse=1 WtCom= 1.00D+00 WtEn= 0.00D+00
 Coeff-Com:  0.589D-09-0.508D-08-0.140D-07 0.450D-08-0.897D-10 0.500D-07
 Coeff-Com:  0.237D-06-0.186D-05-0.191D-07-0.323D-05 0.125D-05 0.131D-04
 Coeff-Com: -0.537D-04 0.287D-04-0.769D-03-0.127D-02-0.104D-01-0.209D-01
 Coeff-Com:  0.271D+00 0.762D+00
 Coeff:      0.589D-09-0.508D-08-0.140D-07 0.450D-08-0.897D-10 0.500D-07
 Coeff:      0.237D-06-0.186D-05-0.191D-07-0.323D-05 0.125D-05 0.131D-04
 Coeff:     -0.537D-04 0.287D-04-0.769D-03-0.127D-02-0.104D-01-0.209D-01
 Coeff:      0.271D+00 0.762D+00
 Gap=     0.176 Goal=   None    Shift=    0.000
 Gap=     0.176 Goal=   None    Shift=    0.000
 RMSDP=2.68D-08 MaxDP=1.50D-06 DE=-1.24D-10 OVMax= 2.90D-06

 Cycle  21  Pass 1  IDiag  1:
 Restarting incremental Fock formation.
 E= -496.812913388125     Delta-E=       -0.000000000029 Rises=F Damp=F
 DIIS: error= 1.69D-07 at cycle  21 NSaved=  20.
 NSaved=20 IEnMin=20 EnMin= -496.812913388125     IErMin=20 ErrMin= 1.69D-07
 ErrMax= 1.69D-07  0.00D+00 EMaxC= 1.00D-01 BMatC= 8.27D-12 BMatP= 6.75D-11
 IDIUse=1 WtCom= 1.00D+00 WtEn= 0.00D+00
 Coeff-Com: -0.150D-08 0.694D-08 0.108D-07-0.105D-07 0.270D-07 0.683D-07
 Coeff-Com: -0.123D-05 0.108D-06-0.684D-06-0.673D-07 0.176D-05-0.723D-05
 Coeff-Com:  0.120D-03-0.245D-03-0.181D-02-0.835D-02-0.192D-01 0.355D-01
 Coeff-Com:  0.204D+00 0.790D+00
 Coeff:     -0.150D-08 0.694D-08 0.108D-07-0.105D-07 0.270D-07 0.683D-07
 Coeff:     -0.123D-05 0.108D-06-0.684D-06-0.673D-07 0.176D-05-0.723D-05
 Coeff:      0.120D-03-0.245D-03-0.181D-02-0.835D-02-0.192D-01 0.355D-01
 Coeff:      0.204D+00 0.790D+00
 Gap=     0.176 Goal=   None    Shift=    0.000
 Gap=     0.176 Goal=   None    Shift=    0.000
 RMSDP=1.52D-08 MaxDP=8.79D-07 DE=-2.89D-11 OVMax= 2.30D-06

 Cycle  22  Pass 1  IDiag  1:
 RMSU=  1.52D-08    CP:  1.00D+00
 E= -496.812913388137     Delta-E=       -0.000000000011 Rises=F Damp=F
 DIIS: error= 1.13D-07 at cycle  22 NSaved=  20.
 NSaved=20 IEnMin=20 EnMin= -496.812913388137     IErMin=20 ErrMin= 1.13D-07
 ErrMax= 1.13D-07  0.00D+00 EMaxC= 1.00D-01 BMatC= 5.72D-12 BMatP= 8.27D-12
 IDIUse=1 WtCom= 1.00D+00 WtEn= 0.00D+00
 Coeff-Com: -0.237D-08 0.129D-07-0.487D-08-0.761D-07-0.516D-07 0.279D-06
 Coeff-Com: -0.246D-08 0.171D-05-0.133D-05-0.832D-05 0.268D-04 0.912D-04
 Coeff-Com:  0.319D-03-0.623D-03-0.497D-03-0.789D-03-0.140D+00-0.327D+00
 Coeff-Com:  0.584D+00 0.884D+00
 Coeff:     -0.237D-08 0.129D-07-0.487D-08-0.761D-07-0.516D-07 0.279D-06
 Coeff:     -0.246D-08 0.171D-05-0.133D-05-0.832D-05 0.268D-04 0.912D-04
 Coeff:      0.319D-03-0.623D-03-0.497D-03-0.789D-03-0.140D+00-0.327D+00
 Coeff:      0.584D+00 0.884D+00
 Gap=     0.176 Goal=   None    Shift=    0.000
 Gap=     0.176 Goal=   None    Shift=    0.000
 RMSDP=1.76D-08 MaxDP=1.01D-06 DE=-1.13D-11 OVMax= 2.69D-06

 Cycle  23  Pass 1  IDiag  1:
 RMSU=  1.33D-08    CP:  1.00D+00  1.76D+00
 E= -496.812913388141     Delta-E=       -0.000000000004 Rises=F Damp=F
 DIIS: error= 5.88D-08 at cycle  23 NSaved=  20.
 NSaved=20 IEnMin=20 EnMin= -496.812913388141     IErMin=20 ErrMin= 5.88D-08
 ErrMax= 5.88D-08  0.00D+00 EMaxC= 1.00D-01 BMatC= 8.92D-13 BMatP= 5.72D-12
 IDIUse=1 WtCom= 1.00D+00 WtEn= 0.00D+00
 Coeff-Com: -0.878D-09-0.315D-09 0.229D-08-0.918D-07 0.628D-06 0.868D-08
 Coeff-Com:  0.715D-06 0.733D-06-0.118D-05 0.478D-05-0.525D-04 0.739D-04
 Coeff-Com:  0.231D-03 0.240D-02 0.614D-02-0.318D-01-0.991D-01-0.239D+00
 Coeff-Com:  0.756D-01 0.129D+01
 Coeff:     -0.878D-09-0.315D-09 0.229D-08-0.918D-07 0.628D-06 0.868D-08
 Coeff:      0.715D-06 0.733D-06-0.118D-05 0.478D-05-0.525D-04 0.739D-04
 Coeff:      0.231D-03 0.240D-02 0.614D-02-0.318D-01-0.991D-01-0.239D+00
 Coeff:      0.756D-01 0.129D+01
 Gap=     0.176 Goal=   None    Shift=    0.000
 Gap=     0.176 Goal=   None    Shift=    0.000
 RMSDP=1.28D-08 MaxDP=6.57D-07 DE=-4.43D-12 OVMax= 1.80D-06

 Cycle  24  Pass 1  IDiag  1:
 RMSU=  3.50D-09    CP:  1.00D+00  2.46D+00  1.48D+00
 E= -496.812913388141     Delta-E=       -0.000000000000 Rises=F Damp=F
 DIIS: error= 9.82D-09 at cycle  24 NSaved=  20.
 NSaved=20 IEnMin=20 EnMin= -496.812913388141     IErMin=20 ErrMin= 9.82D-09
 ErrMax= 9.82D-09  0.00D+00 EMaxC= 1.00D-01 BMatC= 9.63D-14 BMatP= 8.92D-13
 IDIUse=1 WtCom= 1.00D+00 WtEn= 0.00D+00
 Coeff-Com:  0.595D-10 0.286D-08-0.245D-08 0.303D-07-0.357D-08-0.740D-07
 Coeff-Com:  0.152D-06 0.134D-05-0.323D-05-0.174D-04-0.219D-04 0.384D-04
 Coeff-Com:  0.130D-03-0.202D-03 0.122D-01 0.384D-01-0.560D-01-0.983D-01
 Coeff-Com: -0.119D-01 0.112D+01
 Coeff:      0.595D-10 0.286D-08-0.245D-08 0.303D-07-0.357D-08-0.740D-07
 Coeff:      0.152D-06 0.134D-05-0.323D-05-0.174D-04-0.219D-04 0.384D-04
 Coeff:      0.130D-03-0.202D-03 0.122D-01 0.384D-01-0.560D-01-0.983D-01
 Coeff:     -0.119D-01 0.112D+01
 Gap=     0.176 Goal=   None    Shift=    0.000
 Gap=     0.176 Goal=   None    Shift=    0.000
 RMSDP=2.63D-09 MaxDP=1.18D-07 DE=-2.27D-13 OVMax= 3.26D-07

 Error on total polarization charges =  0.00822
 SCF Done:  E(UB3LYP) =  -496.812913388     A.U. after   24 cycles
            NFock= 24  Conv=0.26D-08     -V/T= 2.0096
 <Sx>= 0.0000 <Sy>= 0.0000 <Sz>= 0.0000 <S**2>=-0.0000 S=-0.0000
 <L.S>=  0.00000000000    
 KE= 4.920740279312D+02 PE=-2.293930008047D+03 EE= 7.356460710884D+02
 Annihilation of the first spin contaminant:
 S**2 before annihilation    -0.0000,   after    -0.0000
 Leave Link  502 at Sat May 11 01:05:24 2019, MaxMem=   104857600 cpu:             637.8 elap:              20.3
 (Enter /opt/software/gaussian/g16.b01/l801.exe)
 DoSCS=F DFT=T ScalE2(SS,OS)=  1.000000  1.000000
 ExpMin= 1.61D-01 ExpMax= 5.48D+03 ExpMxC= 8.25D+02 IAcc=3 IRadAn=         5 AccDes= 0.00D+00
 HarFok:  IExCor=  205 AccDes= 0.00D+00 IRadAn=         5 IDoV=-2 UseB2=F ITyADJ=14
 ICtDFT= 12500011 ScaDFX=  1.000000  1.000000  1.000000  1.000000
 Largest valence mixing into a core orbital is  5.79D-05
 Largest core mixing into a valence orbital is  1.43D-05
 Largest valence mixing into a core orbital is  5.79D-05
 Largest core mixing into a valence orbital is  1.43D-05
 Range of M.O.s used for correlation:    12   225
 NBasis=   225 NAE=    41 NBE=    41 NFC=    11 NFV=     0
 NROrb=    214 NOA=    30 NOB=    30 NVA=   184 NVB=   184

 **** Warning!!: The largest alpha MO coefficient is  0.10966625D+02


 **** Warning!!: The largest beta MO coefficient is  0.10966625D+02

 Leave Link  801 at Sat May 11 01:05:24 2019, MaxMem=   104857600 cpu:               2.9 elap:               0.1
 (Enter /opt/software/gaussian/g16.b01/l914.exe)
 UHF ground state
 Two-electron integrals replicated using symmetry.
 MDV=   104857600 DFT=T DoStab=F Mixed=T DoRPA=T DoScal=F NonHer=T
 NEqPCM:  Using non-equilibrium solvation (IEInf=1, Eps=  35.6880, EpsInf=   1.8069)
 Inv3:  Mode=1 IEnd=    10201008.
 Iteration    1 A*A^-1 deviation from unit magnitude is 2.89D-15 for    367.
 Iteration    1 A*A^-1 deviation from orthogonality  is 1.55D-15 for   1660    728.
 Iteration    1 A^-1*A deviation from unit magnitude is 3.11D-15 for    952.
 Iteration    1 A^-1*A deviation from orthogonality  is 2.44D-15 for   1689    240.
 Making orbital integer symmetry assigments:
 Orbital symmetries:
 Alpha Orbitals:
       Occupied  (A) (A) (A) (A) (A) (A) (A) (A) (A) (A) (A) (A)
                 (A) (A) (A) (A) (A) (A) (A) (A) (A) (A) (A) (A)
                 (A) (A) (A) (A) (A) (A) (A) (A) (A) (A) (A) (A)
                 (A) (A) (A) (A) (A)
       Virtual   (A) (A) (A) (A) (A) (A) (A) (A) (A) (A) (A) (A)
                 (A) (A) (A) (A) (A) (A) (A) (A) (A) (A) (A) (A)
                 (A) (A) (A) (A) (A) (A) (A) (A) (A) (A) (A) (A)
                 (A) (A) (A) (A) (A) (A) (A) (A) (A) (A) (A) (A)
                 (A) (A) (A) (A) (A) (A) (A) (A) (A) (A) (A) (A)
                 (A) (A) (A) (A) (A) (A) (A) (A) (A) (A) (A) (A)
                 (A) (A) (A) (A) (A) (A) (A) (A) (A) (A) (A) (A)
                 (A) (A) (A) (A) (A) (A) (A) (A) (A) (A) (A) (A)
                 (A) (A) (A) (A) (A) (A) (A) (A) (A) (A) (A) (A)
                 (A) (A) (A) (A) (A) (A) (A) (A) (A) (A) (A) (A)
                 (A) (A) (A) (A) (A) (A) (A) (A) (A) (A) (A) (A)
                 (A) (A) (A) (A) (A) (A) (A) (A) (A) (A) (A) (A)
                 (A) (A) (A) (A) (A) (A) (A) (A) (A) (A) (A) (A)
                 (A) (A) (A) (A) (A) (A) (A) (A) (A) (A) (A) (A)
                 (A) (A) (A) (A) (A) (A) (A) (A) (A) (A) (A) (A)
                 (A) (A) (A) (A)
 Beta  Orbitals:
       Occupied  (A) (A) (A) (A) (A) (A) (A) (A) (A) (A) (A) (A)
                 (A) (A) (A) (A) (A) (A) (A) (A) (A) (A) (A) (A)
                 (A) (A) (A) (A) (A) (A) (A) (A) (A) (A) (A) (A)
                 (A) (A) (A) (A) (A)
       Virtual   (A) (A) (A) (A) (A) (A) (A) (A) (A) (A) (A) (A)
                 (A) (A) (A) (A) (A) (A) (A) (A) (A) (A) (A) (A)
                 (A) (A) (A) (A) (A) (A) (A) (A) (A) (A) (A) (A)
                 (A) (A) (A) (A) (A) (A) (A) (A) (A) (A) (A) (A)
                 (A) (A) (A) (A) (A) (A) (A) (A) (A) (A) (A) (A)
                 (A) (A) (A) (A) (A) (A) (A) (A) (A) (A) (A) (A)
                 (A) (A) (A) (A) (A) (A) (A) (A) (A) (A) (A) (A)
                 (A) (A) (A) (A) (A) (A) (A) (A) (A) (A) (A) (A)
                 (A) (A) (A) (A) (A) (A) (A) (A) (A) (A) (A) (A)
                 (A) (A) (A) (A) (A) (A) (A) (A) (A) (A) (A) (A)
                 (A) (A) (A) (A) (A) (A) (A) (A) (A) (A) (A) (A)
                 (A) (A) (A) (A) (A) (A) (A) (A) (A) (A) (A) (A)
                 (A) (A) (A) (A) (A) (A) (A) (A) (A) (A) (A) (A)
                 (A) (A) (A) (A) (A) (A) (A) (A) (A) (A) (A) (A)
                 (A) (A) (A) (A) (A) (A) (A) (A) (A) (A) (A) (A)
                 (A) (A) (A) (A)
    96 initial guesses have been made.
 Convergence on wavefunction:    0.001000000000000
 Davidson Disk Diagonalization:  ConvIn= 1.00D-03 SkipCon=T Conv= 1.00D-03.
 Max sub-space:  2000 roots to seek:    96 dimension of matrix:        11040
 Iteration     1 Dimension    96 NMult     0 NNew     96
 CISAX will form     8 AO SS matrices at one time.
 NMat=     8 NSing=     8 JSym2X= 0.
 FoFJK:  IHMeth= 1 ICntrl=       0 DoSepK=F KAlg= 0 I1Cent=           0 FoldK=F
 IRaf= 840000000 NMat=      16 IRICut=       1 DoRegI=T DoRafI=F ISym2E= 0 IDoP0=0 IntGTp=1.
 NMat=     8 NSing=     8 JSym2X= 0.
 NMat=     8 NSing=     8 JSym2X= 0.
 NMat=     8 NSing=     8 JSym2X= 0.
 NMat=     8 NSing=     8 JSym2X= 0.
 NMat=     8 NSing=     8 JSym2X= 0.
 NMat=     8 NSing=     8 JSym2X= 0.
 NMat=     8 NSing=     8 JSym2X= 0.
 NMat=     8 NSing=     8 JSym2X= 0.
 NMat=     8 NSing=     8 JSym2X= 0.
 NMat=     8 NSing=     8 JSym2X= 0.
 NMat=     8 NSing=     8 JSym2X= 0.
 New state      1 was old state      7
 New state      2 was old state      9
 New state      3 was old state      8
 New state      4 was old state      6
 New state      5 was old state      1
 New state      6 was old state      2
 New state      7 was old state      3
 New state      8 was old state      4
 New state      9 was old state     16
 New state     10 was old state      5
 New state     11 was old state     20
 New state     12 was old state     10
 New state     13 was old state     11
 New state     14 was old state     12
 New state     15 was old state     27
 New state     16 was old state     14
 New state     17 was old state     13
 New state     18 was old state     19
 New state     19 was old state     17
 New state     20 was old state     25
 New state     21 was old state     29
 New state     22 was old state     26
 New state     23 was old state     31
 New state     24 was old state     30
 Excitation Energies [eV] at current iteration:
 Root      1 :     3.475211454546368
 Root      2 :     3.621300804477149
 Root      3 :     3.915431039970106
 Root      4 :     3.970836167216889
 Root      5 :     4.171190545859301
 Root      6 :     4.181911696161411
 Root      7 :     4.467694784285013
 Root      8 :     4.497626310488768
 Root      9 :     4.631922778703655
 Root     10 :     4.799509518135746
 Root     11 :     5.206587201645408
 Root     12 :     5.626854843397703
 Root     13 :     5.776617779179682
 Root     14 :     5.776990826620798
 Root     15 :     5.837530120432882
 Root     16 :     5.915573912174755
 Root     17 :     5.925361251647690
 Root     18 :     6.159860346021257
 Root     19 :     6.161189983220402
 Root     20 :     6.465013568171649
 Root     21 :     6.546285408034534
 Root     22 :     6.593513260578002
 Root     23 :     6.620355710311139
 Root     24 :     6.686992937540668
 Root     25 :     6.696580530096500
 Root     26 :     6.838758450495065
 Root     27 :     6.874376337477787
 Root     28 :     6.934170963543429
 Root     29 :     6.939717781016040
 Root     30 :     7.034469213885520
 Root     31 :     7.202343788128023
 Root     32 :     7.246283243049001
 Root     33 :     7.260164559032281
 Root     34 :     7.318847932516609
 Root     35 :     7.490156240657020
 Root     36 :     7.567169314288915
 Root     37 :     7.571699962019440
 Root     38 :     7.711630282375018
 Root     39 :     7.739233567425171
 Root     40 :     7.782113636143393
 Root     41 :     7.869488754562049
 Root     42 :     7.888843477834829
 Root     43 :     7.901964976909849
 Root     44 :     7.933668010422575
 Root     45 :     7.969051389761477
 Root     46 :     7.992322674564162
 Root     47 :     8.144194450289275
 Root     48 :     8.222913759967799
 Root     49 :     8.260719826958635
 Root     50 :     8.336587354608554
 Root     51 :     8.371364274959939
 Root     52 :     8.417719900776980
 Root     53 :     8.451859198336743
 Root     54 :     8.478403949023527
 Root     55 :     8.495191050867236
 Root     56 :     8.502784325907086
 Root     57 :     8.543709869193062
 Root     58 :     8.596098637839777
 Root     59 :     8.634583498749992
 Root     60 :     8.711665390176968
 Root     61 :     8.722567266857006
 Root     62 :     8.738963011786891
 Root     63 :     8.763915946908517
 Root     64 :     8.841798640185422
 Root     65 :     8.901207986348723
 Root     66 :     8.959721506486421
 Root     67 :     8.986850959584824
 Root     68 :     9.005330712008899
 Root     69 :     9.011588547896299
 Root     70 :     9.011991921110784
 Root     71 :     9.057972888655446
 Root     72 :     9.068968019488954
 Root     73 :     9.088742123108430
 Root     74 :     9.132833232526163
 Root     75 :     9.203196757927198
 Root     76 :     9.215355720474859
 Root     77 :     9.276349593985096
 Root     78 :     9.289264031669518
 Root     79 :     9.313535966094751
 Root     80 :     9.344960988484605
 Root     81 :     9.360423884733144
 Root     82 :     9.360816909791705
 Root     83 :     9.383125997586014
 Root     84 :     9.410103902146629
 Root     85 :     9.415626394960997
 Root     86 :     9.468481846435484
 Root     87 :     9.501608934576055
 Root     88 :     9.510137553181174
 Root     89 :     9.535179818311596
 Root     90 :     9.630713146840439
 Root     91 :     9.720560385066699
 Root     92 :     9.728986848851065
 Root     93 :     9.799996527327554
 Root     94 :     9.803257529910157
 Root     95 :    10.092588458672177
 Root     96 :    11.017563123751946
 Iteration     2 Dimension   144 NMult    96 NNew     48
 CISAX will form     8 AO SS matrices at one time.
 NMat=     8 NSing=     8 JSym2X= 0.
 NMat=     8 NSing=     8 JSym2X= 0.
 NMat=     8 NSing=     8 JSym2X= 0.
 NMat=     8 NSing=     8 JSym2X= 0.
 NMat=     8 NSing=     8 JSym2X= 0.
 NMat=     8 NSing=     8 JSym2X= 0.
 New state      1 was old state      2
 Root      1 not converged, maximum delta is    0.102513401271922
 New state      2 was old state      1
 Root      2 not converged, maximum delta is    0.054266568659925
 Root      3 not converged, maximum delta is    0.019998761363534
 Root      4 not converged, maximum delta is    0.034199629591258
 Root      5 not converged, maximum delta is    0.032078105809682
 Root      6 not converged, maximum delta is    0.019363886941417
 Root      7 not converged, maximum delta is    0.367358193867003
 Root      8 not converged, maximum delta is    0.026982144367545
 Root      9 not converged, maximum delta is    0.374748101566293
 Root     10 not converged, maximum delta is    0.036906521808093
 New state     11 was old state     12
 Root     11 not converged, maximum delta is    0.069594451580961
 New state     12 was old state     11
 Root     12 not converged, maximum delta is    0.040183759814565
 New state     13 was old state     15
 Root     13 not converged, maximum delta is    0.141409172410143
 New state     14 was old state     13
 Root     14 not converged, maximum delta is    0.016418707380141
 New state     15 was old state     14
 Root     15 not converged, maximum delta is    0.011735212451695
 Root     16 not converged, maximum delta is    0.022292969526919
 Root     17 not converged, maximum delta is    0.022323861048360
 New state     18 was old state     19
 Root     18 not converged, maximum delta is    0.081764197955190
 New state     19 was old state     18
 Root     19 not converged, maximum delta is    0.023408927953702
 New state     20 was old state     21
 Root     20 not converged, maximum delta is    0.109584002681872
 New state     21 was old state     20
 Root     21 not converged, maximum delta is    0.041205369708289
 New state     22 was old state     24
 Root     22 not converged, maximum delta is    0.383496538714188
 Root     23 not converged, maximum delta is    0.148245272270761
 New state     24 was old state     22
 Root     24 not converged, maximum delta is    0.020397609852672
 Excitation Energies [eV] at current iteration:
 Root      1 :     3.323002376877892   Change is   -0.298298427599257
 Root      2 :     3.387323309392112   Change is   -0.087888145154255
 Root      3 :     3.871598024667944   Change is   -0.043833015302162
 Root      4 :     3.918920797478974   Change is   -0.051915369737915
 Root      5 :     4.166305045907487   Change is   -0.004885499951814
 Root      6 :     4.177049427547585   Change is   -0.004862268613825
 Root      7 :     4.417281895921500   Change is   -0.050412888363513
 Root      8 :     4.485416390156144   Change is   -0.012209920332624
 Root      9 :     4.497136801056149   Change is   -0.134785977647506
 Root     10 :     4.667655927360888   Change is   -0.131853590774858
 Root     11 :     5.125545848633962   Change is   -0.501308994763741
 Root     12 :     5.165673647009108   Change is   -0.040913554636300
 Root     13 :     5.444079687878892   Change is   -0.393450432553990
 Root     14 :     5.774529954309477   Change is   -0.002087824870205
 Root     15 :     5.775420939651266   Change is   -0.001569886969532
 Root     16 :     5.903802429999764   Change is   -0.011771482174992
 Root     17 :     5.917562917645203   Change is   -0.007798334002487
 Root     18 :     6.149469284760278   Change is   -0.011720698460124
 Root     19 :     6.153870707100137   Change is   -0.005989638921119
 Root     20 :     6.320726182009150   Change is   -0.225559226025385
 Root     21 :     6.387526913620522   Change is   -0.077486654551128
 Root     22 :     6.501733885500474   Change is   -0.185259052040195
 Root     23 :     6.505089206723649   Change is   -0.115266503587489
 Root     24 :     6.559283868064041   Change is   -0.034229392513962
 Iteration     3 Dimension   192 NMult   144 NNew     48
 CISAX will form     8 AO SS matrices at one time.
 NMat=     8 NSing=     8 JSym2X= 0.
 NMat=     8 NSing=     8 JSym2X= 0.
 NMat=     8 NSing=     8 JSym2X= 0.
 NMat=     8 NSing=     8 JSym2X= 0.
 NMat=     8 NSing=     8 JSym2X= 0.
 NMat=     8 NSing=     8 JSym2X= 0.
 Root      1 not converged, maximum delta is    0.002651851613733
 Root      2 not converged, maximum delta is    0.002634137017645
 Root      3 not converged, maximum delta is    0.002156651424475
 Root      4 has converged.
 Root      5 has converged.
 Root      6 has converged.
 Root      7 not converged, maximum delta is    0.006302508934970
 Root      8 not converged, maximum delta is    0.001578892489323
 Root      9 not converged, maximum delta is    0.007187694537944
 Root     10 not converged, maximum delta is    0.005014854931902
 Root     11 not converged, maximum delta is    0.009990164226106
 Root     12 not converged, maximum delta is    0.002624954327919
 Root     13 not converged, maximum delta is    0.003790590825156
 Root     14 has converged.
 Root     15 not converged, maximum delta is    0.001049248175268
 Root     16 not converged, maximum delta is    0.001574977378971
 Root     17 not converged, maximum delta is    0.003145506869972
 Root     18 not converged, maximum delta is    0.011002551413104
 Root     19 not converged, maximum delta is    0.001019130736292
 Root     20 not converged, maximum delta is    0.020232582532924
 Root     21 not converged, maximum delta is    0.008619475422825
 Root     22 not converged, maximum delta is    0.159340512363139
 Root     23 not converged, maximum delta is    0.131663816898024
 Root     24 not converged, maximum delta is    0.002452088421560
 Excitation Energies [eV] at current iteration:
 Root      1 :     3.317608902204861   Change is   -0.005393474673031
 Root      2 :     3.386261126709500   Change is   -0.001062182682612
 Root      3 :     3.870238555570547   Change is   -0.001359469097396
 Root      4 :     3.918018142404194   Change is   -0.000902655074780
 Root      5 :     4.166193961935726   Change is   -0.000111083971761
 Root      6 :     4.176888831344745   Change is   -0.000160596202840
 Root      7 :     4.415281300272761   Change is   -0.002000595648739
 Root      8 :     4.484926970704287   Change is   -0.000489419451856
 Root      9 :     4.496117214820356   Change is   -0.001019586235793
 Root     10 :     4.663312099880980   Change is   -0.004343827479907
 Root     11 :     5.105761719284066   Change is   -0.019784129349896
 Root     12 :     5.164787053049225   Change is   -0.000886593959883
 Root     13 :     5.433300111549976   Change is   -0.010779576328916
 Root     14 :     5.774456970208361   Change is   -0.000072984101116
 Root     15 :     5.775353380470468   Change is   -0.000067559180798
 Root     16 :     5.903415344186253   Change is   -0.000387085813510
 Root     17 :     5.917246944436338   Change is   -0.000315973208864
 Root     18 :     6.148223173424500   Change is   -0.001246111335778
 Root     19 :     6.153657564915595   Change is   -0.000213142184542
 Root     20 :     6.308498559818089   Change is   -0.012227622191060
 Root     21 :     6.384680312133884   Change is   -0.002846601486637
 Root     22 :     6.479417214819097   Change is   -0.022316670681376
 Root     23 :     6.500776224756726   Change is   -0.004312981966923
 Root     24 :     6.558539228359321   Change is   -0.000744639704719
 Iteration     4 Dimension   232 NMult   192 NNew     40
 CISAX will form     8 AO SS matrices at one time.
 NMat=     8 NSing=     8 JSym2X= 0.
 NMat=     8 NSing=     8 JSym2X= 0.
 NMat=     8 NSing=     8 JSym2X= 0.
 NMat=     8 NSing=     8 JSym2X= 0.
 NMat=     8 NSing=     8 JSym2X= 0.
 Root      1 has converged.
 Root      2 has converged.
 Root      3 has converged.
 Root      4 has converged.
 Root      5 has converged.
 Root      6 has converged.
 Root      7 has converged.
 Root      8 has converged.
 Root      9 has converged.
 Root     10 has converged.
 Root     11 not converged, maximum delta is    0.002783830504081
 Root     12 has converged.
 Root     13 not converged, maximum delta is    0.001381336647587
 Root     14 has converged.
 Root     15 has converged.
 Root     16 has converged.
 Root     17 has converged.
 Root     18 has converged.
 Root     19 has converged.
 Root     20 not converged, maximum delta is    0.002545129901351
 Root     21 not converged, maximum delta is    0.001543783931935
 Root     22 not converged, maximum delta is    0.021399107824233
 Root     23 not converged, maximum delta is    0.003886290598465
 Root     24 has converged.
 Excitation Energies [eV] at current iteration:
 Root      1 :     3.317534739784305   Change is   -0.000074162420556
 Root      2 :     3.386244322681954   Change is   -0.000016804027546
 Root      3 :     3.870195735676502   Change is   -0.000042819894046
 Root      4 :     3.918009156509073   Change is   -0.000008985895121
 Root      5 :     4.166192015672296   Change is   -0.000001946263430
 Root      6 :     4.176878717873228   Change is   -0.000010113471517
 Root      7 :     4.415242138240910   Change is   -0.000039162031851
 Root      8 :     4.484879786812790   Change is   -0.000047183891497
 Root      9 :     4.496100230944982   Change is   -0.000016983875374
 Root     10 :     4.663132499933272   Change is   -0.000179599947709
 Root     11 :     5.103943131681894   Change is   -0.001818587602172
 Root     12 :     5.164759929378821   Change is   -0.000027123670404
 Root     13 :     5.432774352611240   Change is   -0.000525758938736
 Root     14 :     5.774453196711312   Change is   -0.000003773497048
 Root     15 :     5.775350471558060   Change is   -0.000002908912408
 Root     16 :     5.903392057350001   Change is   -0.000023286836252
 Root     17 :     5.917232099951953   Change is   -0.000014844484387
 Root     18 :     6.148167130894369   Change is   -0.000056042530131
 Root     19 :     6.153643908915273   Change is   -0.000013656000323
 Root     20 :     6.307966288276593   Change is   -0.000532271541496
 Root     21 :     6.384415773690863   Change is   -0.000264538443021
 Root     22 :     6.475545780182884   Change is   -0.003871434636213
 Root     23 :     6.500441220883096   Change is   -0.000335003873630
 Root     24 :     6.558484296954970   Change is   -0.000054931404351
 Iteration     5 Dimension   244 NMult   232 NNew     12
 CISAX will form     6 AO SS matrices at one time.
 NMat=     6 NSing=     6 JSym2X= 0.
 NMat=     6 NSing=     6 JSym2X= 0.
 Root      1 has converged.
 Root      2 has converged.
 Root      3 has converged.
 Root      4 has converged.
 Root      5 has converged.
 Root      6 has converged.
 Root      7 has converged.
 Root      8 has converged.
 Root      9 has converged.
 Root     10 has converged.
 Root     11 has converged.
 Root     12 has converged.
 Root     13 has converged.
 Root     14 has converged.
 Root     15 has converged.
 Root     16 has converged.
 Root     17 has converged.
 Root     18 has converged.
 Root     19 has converged.
 Root     20 has converged.
 Root     21 has converged.
 Root     22 not converged, maximum delta is    0.001944878511543
 Root     23 has converged.
 Root     24 has converged.
 Excitation Energies [eV] at current iteration:
 Root      1 :     3.317534204355852   Change is   -0.000000535428453
 Root      2 :     3.386244251168929   Change is   -0.000000071513024
 Root      3 :     3.870195726600550   Change is   -0.000000009075952
 Root      4 :     3.918008992443982   Change is   -0.000000164065091
 Root      5 :     4.166191959341175   Change is   -0.000000056331121
 Root      6 :     4.176878616144268   Change is   -0.000000101728960
 Root      7 :     4.415241523516295   Change is   -0.000000614724615
 Root      8 :     4.484879263245856   Change is   -0.000000523566934
 Root      9 :     4.496100159885994   Change is   -0.000000071058988
 Root     10 :     4.663130849818688   Change is   -0.000001650114583
 Root     11 :     5.103876149415126   Change is   -0.000066982266768
 Root     12 :     5.164759752940761   Change is   -0.000000176438059
 Root     13 :     5.432751040121468   Change is   -0.000023312489772
 Root     14 :     5.774453154723211   Change is   -0.000000041988102
 Root     15 :     5.775350384195548   Change is   -0.000000087362512
 Root     16 :     5.903391811608836   Change is   -0.000000245741165
 Root     17 :     5.917231807062294   Change is   -0.000000292889659
 Root     18 :     6.148164236225144   Change is   -0.000002894669226
 Root     19 :     6.153643695262859   Change is   -0.000000213652414
 Root     20 :     6.307931702101622   Change is   -0.000034586174970
 Root     21 :     6.384395672954019   Change is   -0.000020100736844
 Root     22 :     6.475302338141973   Change is   -0.000243442040911
 Root     23 :     6.500418602743049   Change is   -0.000022618140047
 Root     24 :     6.558484260399581   Change is   -0.000000036555389
 Iteration     6 Dimension   246 NMult   244 NNew      2
 CISAX will form     2 AO SS matrices at one time.
 NMat=     2 NSing=     2 JSym2X= 0.
 Root      1 has converged.
 Root      2 has converged.
 Root      3 has converged.
 Root      4 has converged.
 Root      5 has converged.
 Root      6 has converged.
 Root      7 has converged.
 Root      8 has converged.
 Root      9 has converged.
 Root     10 has converged.
 Root     11 has converged.
 Root     12 has converged.
 Root     13 has converged.
 Root     14 has converged.
 Root     15 has converged.
 Root     16 has converged.
 Root     17 has converged.
 Root     18 has converged.
 Root     19 has converged.
 Root     20 has converged.
 Root     21 has converged.
 Root     22 has converged.
 Root     23 has converged.
 Root     24 has converged.
 Excitation Energies [eV] at current iteration:
 Root      1 :     3.317534188188358   Change is   -0.000000016167493
 Root      2 :     3.386244250979278   Change is   -0.000000000189651
 Root      3 :     3.870195726600550   Change is    0.000000000000000
 Root      4 :     3.918008773100601   Change is   -0.000000219343381
 Root      5 :     4.166191955239277   Change is   -0.000000004101899
 Root      6 :     4.176878616144347   Change is    0.000000000000079
 Root      7 :     4.415241521626520   Change is   -0.000000001889776
 Root      8 :     4.484879263245856   Change is    0.000000000000000
 Root      9 :     4.496100156634006   Change is   -0.000000003251988
 Root     10 :     4.663130849818707   Change is    0.000000000000018
 Root     11 :     5.103876149415061   Change is   -0.000000000000064
 Root     12 :     5.164759746175397   Change is   -0.000000006765364
 Root     13 :     5.432750867701813   Change is   -0.000000172419655
 Root     14 :     5.774453152029794   Change is   -0.000000002693416
 Root     15 :     5.775350384195548   Change is    0.000000000000000
 Root     16 :     5.903391808529483   Change is   -0.000000003079354
 Root     17 :     5.917231807062278   Change is   -0.000000000000014
 Root     18 :     6.148164236225170   Change is    0.000000000000026
 Root     19 :     6.153643691810665   Change is   -0.000000003452194
 Root     20 :     6.307931702101635   Change is    0.000000000000013
 Root     21 :     6.384395665650764   Change is   -0.000000007303255
 Root     22 :     6.475284382959114   Change is   -0.000017955182860
 Root     23 :     6.500418491041622   Change is   -0.000000111701426
 Root     24 :     6.558484260399594   Change is    0.000000000000013
 Convergence achieved on expansion vectors.
 ***********************************************************************
 Excited states from <AA,BB:AA,BB> singles matrix:
 ***********************************************************************
 
 ExtSpn:  IState=     1 X2= 1.036 Y2= 0.036 X2-Y2-1= 6.66D-16
          S2Grnd= -0.000 Ra=  0.500 Rb=  0.500 T=  1.000 S2Ext=  2.000 S2=  2.000
 ExtSpn:  IState=     2 X2= 1.003 Y2= 0.003 X2-Y2-1= 4.44D-16
          S2Grnd= -0.000 Ra=  0.500 Rb=  0.500 T=  1.000 S2Ext=  2.000 S2=  2.000
 ExtSpn:  IState=     3 X2= 1.001 Y2= 0.001 X2-Y2-1= 2.22D-16
          S2Grnd= -0.000 Ra=  0.500 Rb=  0.500 T= -1.000 S2Ext=  0.000 S2=  0.000
 ExtSpn:  IState=     4 X2= 1.004 Y2= 0.004 X2-Y2-1= 0.00D+00
          S2Grnd= -0.000 Ra=  0.500 Rb=  0.500 T=  1.000 S2Ext=  2.000 S2=  2.000
 ExtSpn:  IState=     5 X2= 1.000 Y2= 0.000 X2-Y2-1=-2.22D-16
          S2Grnd= -0.000 Ra=  0.500 Rb=  0.500 T=  1.000 S2Ext=  2.000 S2=  2.000
 ExtSpn:  IState=     6 X2= 1.000 Y2= 0.000 X2-Y2-1= 0.00D+00
          S2Grnd= -0.000 Ra=  0.500 Rb=  0.500 T= -1.000 S2Ext=  0.000 S2=  0.000
 ExtSpn:  IState=     7 X2= 1.009 Y2= 0.009 X2-Y2-1= 2.22D-15
          S2Grnd= -0.000 Ra=  0.500 Rb=  0.500 T=  1.000 S2Ext=  2.000 S2=  2.000
 ExtSpn:  IState=     8 X2= 1.000 Y2= 0.000 X2-Y2-1= 4.44D-16
          S2Grnd= -0.000 Ra=  0.500 Rb=  0.500 T= -1.000 S2Ext=  0.000 S2=  0.000
 ExtSpn:  IState=     9 X2= 1.005 Y2= 0.005 X2-Y2-1=-1.11D-16
          S2Grnd= -0.000 Ra=  0.500 Rb=  0.500 T=  1.000 S2Ext=  2.000 S2=  2.000
 ExtSpn:  IState=    10 X2= 1.004 Y2= 0.004 X2-Y2-1= 2.22D-16
          S2Grnd= -0.000 Ra=  0.500 Rb=  0.500 T= -1.000 S2Ext=  0.000 S2= -0.000
 ExtSpn:  IState=    11 X2= 1.011 Y2= 0.011 X2-Y2-1= 8.88D-16
          S2Grnd= -0.000 Ra=  0.500 Rb=  0.500 T= -1.000 S2Ext=  0.000 S2=  0.000
 ExtSpn:  IState=    12 X2= 1.003 Y2= 0.003 X2-Y2-1= 6.66D-16
          S2Grnd= -0.000 Ra=  0.500 Rb=  0.500 T=  1.000 S2Ext=  2.000 S2=  2.000
 ExtSpn:  IState=    13 X2= 1.016 Y2= 0.016 X2-Y2-1= 4.44D-16
          S2Grnd= -0.000 Ra=  0.500 Rb=  0.500 T=  1.000 S2Ext=  2.000 S2=  2.000
 ExtSpn:  IState=    14 X2= 1.000 Y2= 0.000 X2-Y2-1= 6.66D-16
          S2Grnd= -0.000 Ra=  0.500 Rb=  0.500 T=  1.000 S2Ext=  2.000 S2=  2.000
 ExtSpn:  IState=    15 X2= 1.000 Y2= 0.000 X2-Y2-1= 4.44D-16
          S2Grnd= -0.000 Ra=  0.500 Rb=  0.500 T= -1.000 S2Ext=  0.000 S2=  0.000
 ExtSpn:  IState=    16 X2= 1.000 Y2= 0.000 X2-Y2-1= 6.66D-16
          S2Grnd= -0.000 Ra=  0.500 Rb=  0.500 T=  1.000 S2Ext=  2.000 S2=  2.000
 ExtSpn:  IState=    17 X2= 1.000 Y2= 0.000 X2-Y2-1=-4.44D-16
          S2Grnd= -0.000 Ra=  0.500 Rb=  0.500 T= -1.000 S2Ext=  0.000 S2=  0.000
 ExtSpn:  IState=    18 X2= 1.001 Y2= 0.001 X2-Y2-1= 4.44D-16
          S2Grnd= -0.000 Ra=  0.500 Rb=  0.500 T= -1.000 S2Ext=  0.000 S2= -0.000
 ExtSpn:  IState=    19 X2= 1.000 Y2= 0.000 X2-Y2-1= 4.44D-16
          S2Grnd= -0.000 Ra=  0.500 Rb=  0.500 T=  1.000 S2Ext=  2.000 S2=  2.000
 ExtSpn:  IState=    20 X2= 1.008 Y2= 0.008 X2-Y2-1=-5.55D-16
          S2Grnd= -0.000 Ra=  0.500 Rb=  0.500 T= -1.000 S2Ext=  0.000 S2=  0.000
 ExtSpn:  IState=    21 X2= 1.001 Y2= 0.001 X2-Y2-1=-1.11D-16
          S2Grnd= -0.000 Ra=  0.500 Rb=  0.500 T=  1.000 S2Ext=  2.000 S2=  2.000
 ExtSpn:  IState=    22 X2= 1.005 Y2= 0.005 X2-Y2-1= 4.44D-16
          S2Grnd= -0.000 Ra=  0.500 Rb=  0.500 T=  1.000 S2Ext=  2.000 S2=  2.000
 ExtSpn:  IState=    23 X2= 1.001 Y2= 0.001 X2-Y2-1= 8.88D-16
          S2Grnd= -0.000 Ra=  0.500 Rb=  0.500 T=  1.000 S2Ext=  2.000 S2=  2.000
 ExtSpn:  IState=    24 X2= 1.000 Y2= 0.000 X2-Y2-1= 0.00D+00
          S2Grnd= -0.000 Ra=  0.500 Rb=  0.500 T= -1.000 S2Ext=  0.000 S2=  0.000
 1PDM for each excited state written to RWF  633
 Ground to excited state transition densities written to RWF  633
 Ground to excited state transition electric dipole moments (Au):
       state          X           Y           Z        Dip. S.      Osc.
         1        -0.0000      0.0000      0.0000      0.0000      0.0000
         2         0.0000     -0.0000     -0.0000      0.0000      0.0000
         3        -0.0104     -0.0036      0.0222      0.0006      0.0001
         4         0.0000     -0.0000     -0.0000      0.0000      0.0000
         5         0.0000     -0.0000      0.0000      0.0000      0.0000
         6         0.1790     -0.0042      0.0190      0.0324      0.0033
         7         0.0000     -0.0000     -0.0000      0.0000      0.0000
         8         0.3588      0.0162      0.0049      0.1290      0.0142
         9         0.0000      0.0000      0.0000      0.0000      0.0000
        10        -0.0540     -0.4667     -0.0342      0.2219      0.0253
        11        -1.6082     -0.1072      0.2384      2.6547      0.3319
        12         0.0000      0.0000     -0.0000      0.0000      0.0000
        13        -0.0000     -0.0000      0.0000      0.0000      0.0000
        14         0.0000     -0.0000     -0.0000      0.0000      0.0000
        15         0.0099     -0.0501     -0.0085      0.0027      0.0004
        16        -0.0000      0.0000      0.0000      0.0000      0.0000
        17         0.0275     -0.0971     -0.0130      0.0103      0.0015
        18         0.0610     -0.2490     -0.0364      0.0670      0.0101
        19        -0.0000      0.0000      0.0000      0.0000      0.0000
        20        -0.1415      0.7654      0.0925      0.6144      0.0950
        21        -0.0000      0.0000      0.0000      0.0000      0.0000
        22        -0.0000      0.0000      0.0000      0.0000      0.0000
        23         0.0000     -0.0000      0.0000      0.0000      0.0000
        24        -0.0084     -0.0015      0.0023      0.0001      0.0000
 Ground to excited state transition velocity dipole moments (Au):
       state          X           Y           Z        Dip. S.      Osc.
         1         0.0000     -0.0000     -0.0000      0.0000      0.0000
         2        -0.0000     -0.0000      0.0000      0.0000      0.0000
         3         0.0025      0.0009     -0.0025      0.0000      0.0001
         4        -0.0000      0.0000     -0.0000      0.0000      0.0000
         5        -0.0000      0.0000     -0.0000      0.0000      0.0000
         6        -0.0257      0.0023     -0.0037      0.0007      0.0030
         7        -0.0000      0.0000      0.0000      0.0000      0.0000
[...]
    21  H    0.003493  -0.036963   0.000768   0.373762  -0.005221   0.004367
    22  H    0.003484   0.000796  -0.035308   0.004299   0.000016   0.372486
    23  H    0.000657   0.004324   0.004686  -0.039633  -0.000157  -0.039441
              19         20         21         22         23
     1  C   -0.012027   0.000139  -0.000150  -0.000136   0.000008
     2  H   -0.000000  -0.000000  -0.000000  -0.000000  -0.000000
     3  O    0.000059  -0.000010   0.000002   0.000000   0.000000
     4  N   -0.000000  -0.000000  -0.000000   0.000000   0.000000
     5  H   -0.000001  -0.000000  -0.000000   0.000000  -0.000000
     6  N    0.000000  -0.000000   0.000000   0.000000  -0.000000
     7  H   -0.000000   0.000000  -0.000000  -0.000000   0.000000
     8  H   -0.000001   0.000000  -0.000000  -0.000000   0.000000
     9  C    0.006920  -0.000014   0.000002   0.000012  -0.000000
    10  H    0.000811   0.000001   0.000000  -0.000004   0.000000
    11  H    0.000776   0.000001   0.000000  -0.000004   0.000000
    12  H   -0.000054   0.000000  -0.000000  -0.000000  -0.000000
    13  C   -0.038004  -0.034892   0.003493   0.003484   0.000657
    14  C    0.005260  -0.036906  -0.036963   0.000796   0.004324
    15  C    0.370263  -0.039952   0.000768  -0.035308   0.004686
    16  C    0.000274   0.530324   0.373762   0.004299  -0.039633
    17  H   -0.000151   0.004600  -0.005221   0.000016  -0.000157
    18  C   -0.039511   0.541010   0.004367   0.372486  -0.039441
    19  H    0.591835   0.004649   0.000015  -0.005606  -0.000168
    20  C    0.004649   4.821421  -0.040168  -0.039834   0.373991
    21  H    0.000015  -0.040168   0.593410  -0.000168  -0.005511
    22  H   -0.005606  -0.039834  -0.000168   0.592287  -0.005566
    23  H   -0.000168   0.373991  -0.005511  -0.005566   0.592172
          Atomic-Atomic Spin Densities.
               1          2          3          4          5          6
     1  C    0.000000   0.000000   0.000000  -0.000000   0.000000  -0.000000
     2  H    0.000000  -0.000000   0.000000   0.000000  -0.000000  -0.000000
     3  O    0.000000   0.000000  -0.000000   0.000000   0.000000  -0.000000
     4  N   -0.000000   0.000000   0.000000  -0.000000  -0.000000  -0.000000
     5  H    0.000000  -0.000000   0.000000  -0.000000   0.000000  -0.000000
     6  N   -0.000000  -0.000000  -0.000000  -0.000000  -0.000000   0.000000
     7  H   -0.000000   0.000000   0.000000  -0.000000  -0.000000  -0.000000
     8  H    0.000000   0.000000  -0.000000  -0.000000  -0.000000  -0.000000
     9  C   -0.000000  -0.000000  -0.000000   0.000000  -0.000000   0.000000
    10  H   -0.000000   0.000000   0.000000  -0.000000  -0.000000  -0.000000
    11  H   -0.000000  -0.000000  -0.000000   0.000000  -0.000000   0.000000
    12  H   -0.000000   0.000000   0.000000   0.000000  -0.000000  -0.000000
    13  C   -0.000000   0.000000  -0.000000  -0.000000   0.000000  -0.000000
    14  C   -0.000000  -0.000000   0.000000   0.000000  -0.000000   0.000000
    15  C   -0.000000  -0.000000  -0.000000   0.000000  -0.000000   0.000000
    16  C    0.000000  -0.000000   0.000000   0.000000  -0.000000   0.000000
    17  H    0.000000  -0.000000   0.000000   0.000000  -0.000000   0.000000
    18  C    0.000000   0.000000   0.000000   0.000000   0.000000  -0.000000
    19  H    0.000000  -0.000000  -0.000000  -0.000000   0.000000   0.000000
    20  C    0.000000   0.000000  -0.000000  -0.000000   0.000000  -0.000000
    21  H   -0.000000  -0.000000   0.000000  -0.000000  -0.000000   0.000000
    22  H   -0.000000  -0.000000   0.000000  -0.000000  -0.000000   0.000000
    23  H    0.000000   0.000000  -0.000000   0.000000  -0.000000  -0.000000
               7          8          9         10         11         12
     1  C   -0.000000   0.000000  -0.000000  -0.000000  -0.000000  -0.000000
     2  H    0.000000   0.000000  -0.000000   0.000000  -0.000000   0.000000
     3  O    0.000000  -0.000000  -0.000000   0.000000  -0.000000   0.000000
     4  N   -0.000000  -0.000000   0.000000  -0.000000   0.000000   0.000000
     5  H   -0.000000  -0.000000  -0.000000  -0.000000  -0.000000  -0.000000
     6  N   -0.000000  -0.000000   0.000000  -0.000000   0.000000  -0.000000
     7  H   -0.000000   0.000000  -0.000000   0.000000  -0.000000   0.000000
     8  H    0.000000  -0.000000  -0.000000   0.000000  -0.000000  -0.000000
     9  C   -0.000000  -0.000000  -0.000000  -0.000000   0.000000   0.000000
    10  H    0.000000   0.000000  -0.000000   0.000000  -0.000000  -0.000000
    11  H   -0.000000  -0.000000   0.000000  -0.000000  -0.000000   0.000000
    12  H    0.000000  -0.000000   0.000000  -0.000000   0.000000   0.000000
    13  C    0.000000   0.000000  -0.000000   0.000000  -0.000000   0.000000
    14  C   -0.000000  -0.000000   0.000000  -0.000000   0.000000  -0.000000
    15  C   -0.000000  -0.000000   0.000000   0.000000   0.000000   0.000000
    16  C   -0.000000  -0.000000   0.000000  -0.000000   0.000000  -0.000000
    17  H   -0.000000  -0.000000   0.000000  -0.000000   0.000000  -0.000000
    18  C    0.000000  -0.000000  -0.000000   0.000000  -0.000000   0.000000
    19  H   -0.000000   0.000000  -0.000000  -0.000000   0.000000  -0.000000
    20  C    0.000000   0.000000  -0.000000   0.000000  -0.000000   0.000000
    21  H   -0.000000   0.000000   0.000000  -0.000000   0.000000  -0.000000
    22  H   -0.000000  -0.000000   0.000000  -0.000000   0.000000  -0.000000
    23  H    0.000000  -0.000000  -0.000000   0.000000  -0.000000   0.000000
              13         14         15         16         17         18
     1  C   -0.000000  -0.000000  -0.000000   0.000000   0.000000   0.000000
     2  H    0.000000  -0.000000  -0.000000  -0.000000  -0.000000   0.000000
     3  O   -0.000000   0.000000  -0.000000   0.000000   0.000000   0.000000
     4  N   -0.000000   0.000000   0.000000   0.000000   0.000000   0.000000
     5  H    0.000000  -0.000000  -0.000000  -0.000000  -0.000000   0.000000
     6  N   -0.000000   0.000000   0.000000   0.000000   0.000000  -0.000000
     7  H    0.000000  -0.000000  -0.000000  -0.000000  -0.000000   0.000000
     8  H    0.000000  -0.000000  -0.000000  -0.000000  -0.000000  -0.000000
     9  C   -0.000000   0.000000   0.000000   0.000000   0.000000  -0.000000
    10  H    0.000000  -0.000000   0.000000  -0.000000  -0.000000   0.000000
    11  H   -0.000000   0.000000   0.000000   0.000000   0.000000  -0.000000
    12  H    0.000000  -0.000000   0.000000  -0.000000  -0.000000   0.000000
    13  C   -0.000000  -0.000000   0.000000  -0.000000  -0.000000   0.000000
    14  C   -0.000000   0.000000  -0.000000   0.000000  -0.000000   0.000000
    15  C    0.000000  -0.000000   0.000000   0.000000  -0.000000   0.000000
    16  C   -0.000000   0.000000   0.000000  -0.000000   0.000000   0.000000
    17  H   -0.000000  -0.000000  -0.000000   0.000000  -0.000000  -0.000000
    18  C    0.000000   0.000000   0.000000   0.000000  -0.000000  -0.000000
    19  H   -0.000000   0.000000   0.000000  -0.000000   0.000000   0.000000
    20  C   -0.000000  -0.000000  -0.000000  -0.000000   0.000000   0.000000
    21  H    0.000000  -0.000000   0.000000  -0.000000   0.000000  -0.000000
    22  H    0.000000   0.000000  -0.000000  -0.000000   0.000000  -0.000000
    23  H   -0.000000  -0.000000  -0.000000   0.000000   0.000000   0.000000
              19         20         21         22         23
     1  C    0.000000   0.000000  -0.000000  -0.000000   0.000000
     2  H   -0.000000   0.000000  -0.000000  -0.000000   0.000000
     3  O   -0.000000  -0.000000   0.000000   0.000000  -0.000000
     4  N   -0.000000  -0.000000  -0.000000  -0.000000   0.000000
     5  H    0.000000   0.000000  -0.000000  -0.000000  -0.000000
     6  N    0.000000  -0.000000   0.000000   0.000000  -0.000000
     7  H   -0.000000   0.000000  -0.000000  -0.000000   0.000000
     8  H    0.000000   0.000000   0.000000  -0.000000  -0.000000
     9  C   -0.000000  -0.000000   0.000000   0.000000  -0.000000
    10  H   -0.000000   0.000000  -0.000000  -0.000000   0.000000
    11  H    0.000000  -0.000000   0.000000   0.000000  -0.000000
    12  H   -0.000000   0.000000  -0.000000  -0.000000   0.000000
    13  C   -0.000000  -0.000000   0.000000   0.000000  -0.000000
    14  C    0.000000  -0.000000  -0.000000   0.000000  -0.000000
    15  C    0.000000  -0.000000   0.000000  -0.000000  -0.000000
    16  C   -0.000000  -0.000000  -0.000000  -0.000000   0.000000
    17  H    0.000000   0.000000   0.000000   0.000000   0.000000
    18  C    0.000000   0.000000  -0.000000  -0.000000   0.000000
    19  H   -0.000000   0.000000   0.000000   0.000000   0.000000
    20  C    0.000000   0.000000  -0.000000  -0.000000  -0.000000
    21  H    0.000000  -0.000000   0.000000  -0.000000  -0.000000
    22  H    0.000000  -0.000000  -0.000000   0.000000  -0.000000
    23  H    0.000000  -0.000000  -0.000000  -0.000000  -0.000000
 Mulliken charges and spin densities:
               1          2
     1  C    0.404531   0.000000
     2  H    0.259569  -0.000000
     3  O   -0.501811  -0.000000
     4  N   -0.531496  -0.000000
     5  H    0.261860   0.000000
     6  N   -0.537097   0.000000
     7  H    0.260410   0.000000
     8  H    0.253593  -0.000000
     9  C   -0.413346  -0.000000
    10  H    0.150353   0.000000
    11  H    0.151902  -0.000000
    12  H    0.139925   0.000000
    13  C    0.051393  -0.000000
    14  C   -0.106304   0.000000
    15  C   -0.125323   0.000000
    16  C   -0.099164  -0.000000
    17  H    0.114045  -0.000000
    18  C   -0.103591  -0.000000
    19  H    0.114660  -0.000000
    20  C   -0.084358   0.000000
    21  H    0.112363   0.000000
    22  H    0.113246   0.000000
    23  H    0.114639  -0.000000
 Sum of Mulliken charges =  -0.00000   0.00000
 Mulliken charges and spin densities with hydrogens summed into heavy atoms:
               1          2
     1  C    0.404531   0.000000
     3  O   -0.501811  -0.000000
     4  N   -0.016043  -0.000000
     6  N   -0.017118   0.000000
     9  C    0.028834  -0.000000
    13  C    0.051393  -0.000000
    14  C    0.007741   0.000000
    15  C   -0.010663   0.000000
    16  C    0.013199  -0.000000
    18  C    0.009655  -0.000000
    20  C    0.030281   0.000000
 Electronic spatial extent (au):  <R**2>=           2631.4332
 Charge=             -0.0000 electrons
 Dipole moment (field-independent basis, Debye):
    X=             -5.6814    Y=              1.6261    Z=             -0.0316  Tot=              5.9096
 Quadrupole moment (field-independent basis, Debye-Ang):
   XX=            -76.1353   YY=            -58.0862   ZZ=            -68.2986
   XY=             -0.7793   XZ=             -5.1594   YZ=              1.4950
 Traceless Quadrupole moment (field-independent basis, Debye-Ang):
   XX=             -8.6286   YY=              9.4205   ZZ=             -0.7919
   XY=             -0.7793   XZ=             -5.1594   YZ=              1.4950
 Octapole moment (field-independent basis, Debye-Ang**2):
  XXX=           -115.4763  YYY=             -1.3322  ZZZ=             -4.9755  XYY=             -0.3028
  XXY=            -18.6526  XXZ=            -17.9854  XZZ=              6.3157  YZZ=              2.9427
  YYZ=              0.5752  XYZ=              7.3262
 Hexadecapole moment (field-independent basis, Debye-Ang**3):
 XXXX=          -3019.8496 YYYY=           -443.6395 ZZZZ=           -172.3723 XXXY=            -93.6767
 XXXZ=           -166.3169 YYYX=             -7.4244 YYYZ=              4.4389 ZZZX=            -13.5904
 ZZZY=              5.2048 XXYY=           -491.8014 XXZZ=           -555.7170 YYZZ=           -108.3598
 XXYZ=             49.2773 YYXZ=             -2.0906 ZZXY=              5.0089
 N-N= 5.693969956392D+02 E-N=-2.293930007565D+03  KE= 4.920740279312D+02
 Leave Link  601 at Sat May 11 01:07:59 2019, MaxMem=   104857600 cpu:               2.6 elap:               0.1
 (Enter /opt/software/gaussian/g16.b01/l9999.exe)
 Electronic transition elements 
                 1             2             3             4             5 
      1  -0.496691D+03 -0.496688D+03 -0.496671D+03 -0.496669D+03 -0.496660D+03
      2   0.000000D+00  0.000000D+00 -0.103788D-01  0.000000D+00  0.123118D-05
      3   0.000000D+00  0.000000D+00 -0.359622D-02  0.000000D+00  0.000000D+00
      4   0.000000D+00  0.000000D+00  0.222159D-01  0.000000D+00  0.000000D+00
      5   0.000000D+00  0.000000D+00  0.250805D-02  0.000000D+00  0.000000D+00
      6   0.000000D+00  0.000000D+00  0.902900D-03  0.000000D+00  0.000000D+00
      7   0.000000D+00  0.000000D+00 -0.248400D-02  0.000000D+00  0.000000D+00
      8   0.000000D+00  0.000000D+00 -0.528264D+00  0.000000D+00  0.000000D+00
      9   0.000000D+00  0.000000D+00  0.621458D+00  0.000000D+00  0.000000D+00
     10   0.000000D+00  0.000000D+00  0.148965D+00  0.000000D+00  0.000000D+00
     11   0.000000D+00  0.000000D+00  0.553601D-03  0.000000D+00  0.000000D+00
     12   0.000000D+00  0.000000D+00  0.343230D-02  0.000000D+00  0.000000D+00
     13   0.000000D+00  0.000000D+00  0.371141D-02  0.000000D+00  0.000000D+00
     14   0.000000D+00  0.000000D+00 -0.440614D-03  0.000000D+00  0.000000D+00
     15   0.000000D+00  0.000000D+00 -0.402774D-01  0.000000D+00  0.000000D+00
     16   0.000000D+00  0.000000D+00 -0.316857D-01  0.000000D+00  0.000000D+00
                 6             7             8             9            10 
      1  -0.496659D+03 -0.496651D+03 -0.496648D+03 -0.496648D+03 -0.496642D+03
      2   0.178972D+00  0.000000D+00  0.358781D+00  0.159905D-05 -0.540421D-01
      3  -0.418015D-02  0.000000D+00  0.161602D-01  0.000000D+00 -0.466687D+00
      4   0.189802D-01  0.000000D+00  0.487805D-02  0.000000D+00 -0.342163D-01
      5  -0.256963D-01  0.000000D+00 -0.602691D-01  0.000000D+00  0.873394D-02
      6   0.229755D-02  0.000000D+00 -0.210709D-02  0.000000D+00  0.837493D-01
      7  -0.369837D-02  0.000000D+00  0.291719D-02  0.000000D+00  0.640450D-02
      8   0.101797D+00  0.000000D+00 -0.508189D-01  0.000000D+00 -0.672340D-01
      9  -0.501133D-01  0.000000D+00  0.121717D+00  0.000000D+00  0.526875D-01
     10  -0.421254D-01  0.000000D+00  0.475049D-02  0.000000D+00 -0.669386D+00
     11  -0.145211D-02  0.000000D+00 -0.946999D-01  0.000000D+00  0.218150D-01
     12   0.401239D-02  0.000000D+00  0.263416D-01  0.000000D+00 -0.409557D-01
     13  -0.106560D-01  0.000000D+00 -0.170144D-02  0.000000D+00 -0.264784D-02
     14   0.264254D-01  0.000000D+00  0.325235D-01  0.000000D+00 -0.330731D+00
     15  -0.364199D-01  0.000000D+00 -0.323006D-01  0.000000D+00 -0.367352D-01
     16   0.135739D-01  0.000000D+00 -0.221465D-01  0.000000D+00  0.141175D-02
                11            12            13            14            15 
      1  -0.496625D+03 -0.496623D+03 -0.496613D+03 -0.496601D+03 -0.496601D+03
      2  -0.160821D+01  0.000000D+00  0.000000D+00  0.000000D+00  0.989313D-02
      3  -0.107173D+00  0.000000D+00  0.000000D+00 -0.187843D-05 -0.500653D-01
      4   0.238416D+00  0.000000D+00  0.000000D+00  0.000000D+00 -0.854447D-02
      5   0.292367D+00  0.000000D+00  0.000000D+00  0.000000D+00 -0.133208D-02
      6   0.245175D-01  0.000000D+00  0.000000D+00  0.000000D+00  0.106987D-01
      7  -0.420095D-01  0.000000D+00  0.000000D+00  0.000000D+00  0.305812D-02
      8  -0.217618D-01  0.000000D+00  0.000000D+00 -0.109662D-05 -0.285945D-01
      9  -0.191344D+00  0.000000D+00  0.000000D+00  0.000000D+00  0.832240D-02
     10  -0.142353D+00  0.000000D+00  0.000000D+00 -0.323773D-05 -0.850063D-01
     11  -0.113215D+01  0.000000D+00  0.000000D+00  0.000000D+00  0.207760D-01
     12  -0.526728D-02  0.000000D+00  0.000000D+00  0.000000D+00 -0.498771D-02
     13   0.221783D-01  0.000000D+00  0.000000D+00  0.000000D+00  0.212382D-03
     14  -0.143461D+00  0.000000D+00  0.000000D+00 -0.193601D-05 -0.506606D-01
     15   0.630134D-01  0.000000D+00  0.000000D+00  0.000000D+00 -0.128528D-01
     16   0.623363D-02  0.000000D+00  0.000000D+00  0.000000D+00 -0.537712D-02
                16            17            18            19            20 
      1  -0.496596D+03 -0.496595D+03 -0.496587D+03 -0.496587D+03 -0.496581D+03
      2   0.000000D+00  0.275327D-01  0.609901D-01  0.000000D+00 -0.141509D+00
      3   0.000000D+00 -0.970517D-01 -0.248987D+00  0.000000D+00  0.765402D+00
      4   0.000000D+00 -0.130231D-01 -0.364078D-01  0.000000D+00  0.925413D-01
      5   0.000000D+00 -0.550234D-02 -0.119469D-01  0.000000D+00  0.283031D-01
      6   0.000000D+00  0.216308D-01  0.569895D-01  0.000000D+00 -0.179165D+00
      7   0.000000D+00  0.689253D-03  0.889486D-02  0.000000D+00 -0.207024D-01
      8   0.000000D+00  0.664119D-01 -0.889260D-01  0.000000D+00  0.704483D-01
      9   0.000000D+00  0.174672D-01  0.366864D-01  0.000000D+00 -0.114926D+00
     10   0.000000D+00 -0.174901D+00 -0.370982D+00  0.000000D+00  0.110820D+01
     11   0.000000D+00  0.533720D-01  0.992807D-01  0.000000D+00 -0.280084D+00
     12   0.000000D+00 -0.152991D-01 -0.315330D-01  0.000000D+00  0.118050D+00
     13   0.000000D+00 -0.796615D-04  0.822852D-03  0.000000D+00  0.334885D-02
     14   0.000000D+00 -0.980358D-01 -0.266763D+00  0.000000D+00  0.849119D+00
     15   0.000000D+00  0.678330D-02 -0.427027D-01  0.000000D+00  0.109781D+00
     16   0.000000D+00  0.173898D-01 -0.401036D-02  0.000000D+00 -0.271155D-01
                21            22            23            24 
      1  -0.496578D+03 -0.496575D+03 -0.496574D+03 -0.496572D+03
      2   0.000000D+00  0.000000D+00  0.000000D+00 -0.844413D-02
      3   0.000000D+00  0.000000D+00  0.000000D+00 -0.148369D-02
      4   0.000000D+00  0.000000D+00  0.000000D+00  0.226564D-02
      5   0.000000D+00  0.000000D+00  0.000000D+00  0.197833D-02
      6   0.000000D+00  0.000000D+00  0.000000D+00  0.384750D-03
      7   0.000000D+00  0.000000D+00  0.000000D+00 -0.681795D-03
      8   0.000000D+00  0.000000D+00  0.000000D+00  0.136537D+00
      9   0.000000D+00  0.000000D+00  0.000000D+00 -0.127205D+00
     10   0.000000D+00  0.000000D+00  0.000000D+00 -0.308749D-01
     11   0.000000D+00  0.000000D+00  0.000000D+00  0.943996D-02
     12   0.000000D+00  0.000000D+00  0.000000D+00 -0.124087D-02
     13   0.000000D+00  0.000000D+00  0.000000D+00 -0.183437D-02
     14   0.000000D+00  0.000000D+00  0.000000D+00 -0.103209D-03
     15   0.000000D+00  0.000000D+00  0.000000D+00  0.150305D-01
     16   0.000000D+00  0.000000D+00  0.000000D+00  0.215461D-02
 1\1\GINC-GRA639\SP\UB3LYP TD-FC\6-31G(d,p)\C8H12N2O1\RZK\11-May-2019\0
 \\#p td=(nstates=24) ub3lyp/6-31g(d,p) scrf=(iefpcm,solvent=acetonitri
 le) guess=(core,mix) empiricaldispersion=gd3\\Title Card Required\\0,1
 \C,0,0.568326,0.210816,-0.404695\H,0,4.90274,-0.957863,-0.402\O,0,1.25
 9404,-0.785877,-0.613115\N,0,3.818887,-0.333442,1.14533\H,0,3.500957,0
 .593234,1.422347\N,0,4.218046,-0.221155,-0.245149\H,0,3.413694,-0.4500
 9,-0.831653\H,0,2.989393,-0.926021,1.209005\C,0,1.188036,1.592164,-0.3
 86071\H,0,0.715121,2.235994,-1.134627\H,0,1.036166,2.065539,0.589738\H
 ,0,2.255536,1.520265,-0.592445\C,0,-0.898822,0.07122,-0.161174\C,0,-1.
 461944,-1.216508,-0.176239\C,0,-1.727815,1.178365,0.083471\C,0,-2.8233
 94,-1.394418,0.047758\H,0,-0.812423,-2.064189,-0.3654\C,0,-3.092445,0.
 998613,0.308223\H,0,-1.316817,2.181601,0.100673\C,0,-3.641595,-0.28569
 8,0.290616\H,0,-3.249722,-2.392727,0.034242\H,0,-3.726118,1.859493,0.4
 96723\H,0,-4.704364,-0.423359,0.465721\\Version=ES64L-G16RevB.01\State
 =1-A\HF=-496.8129134\S2=0.\S2-1=0.\S2A=0.\RMSD=2.627e-09\PG=C01 [X(C8H
 12N2O1)]\\@


 "MATHEMATICS IS THE ART OF GIVING THE SAME NAME
 TO DIFFERENT THINGS."
                    - H. POINCARE
 Job cpu time:       0 days  1 hours 33 minutes 55.8 seconds.
 Elapsed time:       0 days  0 hours  2 minutes 57.0 seconds.
 File lengths (MBytes):  RWF=    758 Int=      0 D2E=      0 Chk=     73 Scr=      1
 Normal termination of Gaussian 16 at Sat May 11 01:08:00 2019.
