 Entering Gaussian System, Link 0=g16
 Initial command:
 /opt/software/gaussian/g16.b01/l1.exe "/localscratch/hpham196.14893261.0/Gau-20284.inp" -scrdir="/localscratch/hpham196.14893261.0/"
 Entering Link 1 = /opt/software/gaussian/g16.b01/l1.exe PID=     20285.
  
 Copyright (c) 1988-2017, Gaussian, Inc.  All Rights Reserved.
  
 This is part of the Gaussian(R) 16 program.  It is based on
 the Gaussian(R) 09 system (copyright 2009, Gaussian, Inc.),
 the Gaussian(R) 03 system (copyright 2003, Gaussian, Inc.),
 the Gaussian(R) 98 system (copyright 1998, Gaussian, Inc.),
 the Gaussian(R) 94 system (copyright 1995, Gaussian, Inc.),
 the Gaussian 92(TM) system (copyright 1992, Gaussian, Inc.),
 the Gaussian 90(TM) system (copyright 1990, Gaussian, Inc.),
 the Gaussian 88(TM) system (copyright 1988, Gaussian, Inc.),
 the Gaussian 86(TM) system (copyright 1986, Carnegie Mellon
 University), and the Gaussian 82(TM) system (copyright 1983,
 Carnegie Mellon University). Gaussian is a federally registered
 trademark of Gaussian, Inc.
  
 This software contains proprietary and confidential information,
 including trade secrets, belonging to Gaussian, Inc.
  
 This software is provided under written license and may be
 used, copied, transmitted, or stored only in accord with that
 written license.
  
 The following legend is applicable only to US Government
 contracts under FAR:
  
                    RESTRICTED RIGHTS LEGEND
  
 Use, reproduction and disclosure by the US Government is
 subject to restrictions as set forth in subparagraphs (a)
 and (c) of the Commercial Computer Software - Restricted
 Rights clause in FAR 52.227-19.
  
 Gaussian, Inc.
 340 Quinnipiac St., Bldg. 40, Wallingford CT 06492
  
  
 ---------------------------------------------------------------
 Warning -- This program may not be used in any manner that
 competes with the business of Gaussian, Inc. or will provide
 assistance to any competitor of Gaussian, Inc.  The licensee
 of this program is prohibited from giving any competitor of
 Gaussian, Inc. access to this program.  By using this program,
 the user acknowledges that Gaussian, Inc. is engaged in the
 business of creating and licensing software in the field of
 computational chemistry and represents and warrants to the
 licensee that it is not a competitor of Gaussian, Inc. and that
 it will not use this program in any manner prohibited above.
 ---------------------------------------------------------------
  

 Cite this work as:
 Gaussian 16, Revision B.01,
 M. J. Frisch, G. W. Trucks, H. B. Schlegel, G. E. Scuseria, 
 M. A. Robb, J. R. Cheeseman, G. Scalmani, V. Barone, 
 G. A. Petersson, H. Nakatsuji, X. Li, M. Caricato, A. V. Marenich, 
 J. Bloino, B. G. Janesko, R. Gomperts, B. Mennucci, H. P. Hratchian, 
 J. V. Ortiz, A. F. Izmaylov, J. L. Sonnenberg, D. Williams-Young, 
 F. Ding, F. Lipparini, F. Egidi, J. Goings, B. Peng, A. Petrone, 
 T. Henderson, D. Ranasinghe, V. G. Zakrzewski, J. Gao, N. Rega, 
 G. Zheng, W. Liang, M. Hada, M. Ehara, K. Toyota, R. Fukuda, 
 J. Hasegawa, M. Ishida, T. Nakajima, Y. Honda, O. Kitao, H. Nakai, 
 T. Vreven, K. Throssell, J. A. Montgomery, Jr., J. E. Peralta, 
 F. Ogliaro, M. J. Bearpark, J. J. Heyd, E. N. Brothers, K. N. Kudin, 
 V. N. Staroverov, T. A. Keith, R. Kobayashi, J. Normand, 
 K. Raghavachari, A. P. Rendell, J. C. Burant, S. S. Iyengar, 
 J. Tomasi, M. Cossi, J. M. Millam, M. Klene, C. Adamo, R. Cammi, 
 J. W. Ochterski, R. L. Martin, K. Morokuma, O. Farkas, 
 J. B. Foresman, and D. J. Fox, Gaussian, Inc., Wallingford CT, 2016.
 
 ******************************************
 Gaussian 16:  ES64L-G16RevB.01 20-Dec-2017
                17-May-2019 
 ******************************************
 %NProcShared=32
 Will use up to   32 processors via shared memory.
 %chk=AH-BnoH-opt.chk
 ----------------------------------------------------------------------
 #p opt freq ub3lyp/6-31g(d,p) scrf=(iefpcm,solvent=acetonitrile) empir
 icaldispersion=gd3
 ----------------------------------------------------------------------
 1/18=20,19=15,26=3,38=1/1,3;
 2/9=110,12=2,17=6,18=5,40=1/2;
 3/5=1,6=6,7=101,11=2,25=1,30=1,70=2201,71=1,72=2,74=-5,116=2,124=31/1,2,3;
 4//1;
 5/5=2,38=5,53=2/2;
 6/7=2,8=2,9=2,10=2,28=1/1;
 7//1,2,3,16;
 1/18=20,19=15,26=3/3(2);
 2/9=110/2;
 99//99;
 2/9=110/2;
 3/5=1,6=6,7=101,11=2,25=1,30=1,70=2205,71=1,72=2,74=-5,116=2,124=31/1,2,3;
 4/5=5,16=3,69=1/1;
 5/5=2,38=5,53=2/2;
 7//1,2,3,16;
 1/18=20,19=15,26=3/3(-5);
 2/9=110/2;
 6/7=2,8=2,9=2,10=2,19=2,28=1/1;
 99/9=1/99;
 Leave Link    1 at Fri May 17 16:10:20 2019, MaxMem=           0 cpu:               2.1 elap:               0.1
 (Enter /opt/software/gaussian/g16.b01/l101.exe)
 -------------------
 Title Card Required
 -------------------
 Symbolic Z-matrix:
 Charge =  0 Multiplicity = 3
 C                    -0.06092  -1.87351   0.64592 
 O                    -0.68654  -2.51634  -0.19389 
 C                    -0.59005  -1.74531   2.05864 
 H                     0.12902  -2.14462   2.7813 
 H                    -0.75885  -0.69332   2.30681 
 H                    -1.53158  -2.28871   2.1346 
 C                     1.22381  -1.19957   0.28792 
 C                     1.72564  -1.36192  -1.01417 
 C                     1.92687  -0.39486   1.19652 
 C                     2.90394  -0.73274  -1.40071 
 H                     1.16988  -1.98251  -1.70864 
 C                     3.10693   0.2391    0.80759 
 H                     1.55395  -0.24763   2.20364 
 C                     3.59663   0.07185  -0.48896 
 H                     3.28387  -0.86304  -2.40944 
 H                     3.64045   0.86639   1.51483 
 H                     4.51471   0.56743  -0.79033 
 H                    -0.21537  -3.02473  -0.85807 
 N                     1.98431  -5.30776   0.12699 
 H                     2.31763  -6.25057   0.12699 
 H                     2.31765  -4.83636   0.94349 
 N                     2.45099  -4.6478   -1.0161 
 H                     2.11914  -5.12025  -1.8326 
 
 Add virtual bond connecting atoms N22        and H11        Dist= 5.74D+00.
 Add virtual bond connecting atoms N22        and H18        Dist= 5.91D+00.
 ITRead=  0  0  0  0  0  0  0  0  0  0  0  0  0  0  0  0  0  0  0  0
 ITRead=  0  0  0
 MicOpt= -1 -1 -1 -1 -1 -1 -1 -1 -1 -1 -1 -1 -1 -1 -1 -1 -1 -1 -1 -1
 MicOpt= -1 -1 -1
 NAtoms=     23 NQM=       23 NQMF=       0 NMMI=      0 NMMIF=      0
                NMic=       0 NMicF=      0.
                    Isotopes and Nuclear Properties:
 (Nuclear quadrupole moments (NQMom) in fm**2, nuclear magnetic moments (NMagM)
  in nuclear magnetons)

  Atom         1           2           3           4           5           6           7           8           9          10
 IAtWgt=          12          16          12           1           1           1          12          12          12          12
 AtmWgt=  12.0000000  15.9949146  12.0000000   1.0078250   1.0078250   1.0078250  12.0000000  12.0000000  12.0000000  12.0000000
 NucSpn=           0           0           0           1           1           1           0           0           0           0
 AtZEff=  -0.0000000  -0.0000000  -0.0000000  -0.0000000  -0.0000000  -0.0000000  -0.0000000  -0.0000000  -0.0000000  -0.0000000
 NQMom=    0.0000000   0.0000000   0.0000000   0.0000000   0.0000000   0.0000000   0.0000000   0.0000000   0.0000000   0.0000000
 NMagM=    0.0000000   0.0000000   0.0000000   2.7928460   2.7928460   2.7928460   0.0000000   0.0000000   0.0000000   0.0000000
 AtZNuc=   6.0000000   8.0000000   6.0000000   1.0000000   1.0000000   1.0000000   6.0000000   6.0000000   6.0000000   6.0000000

  Atom        11          12          13          14          15          16          17          18          19          20
 IAtWgt=           1          12           1          12           1           1           1           1          14           1
 AtmWgt=   1.0078250  12.0000000   1.0078250  12.0000000   1.0078250   1.0078250   1.0078250   1.0078250  14.0030740   1.0078250
 NucSpn=           1           0           1           0           1           1           1           1           2           1
 AtZEff=  -0.0000000  -0.0000000  -0.0000000  -0.0000000  -0.0000000  -0.0000000  -0.0000000  -0.0000000  -0.0000000  -0.0000000
 NQMom=    0.0000000   0.0000000   0.0000000   0.0000000   0.0000000   0.0000000   0.0000000   0.0000000   2.0440000   0.0000000
 NMagM=    2.7928460   0.0000000   2.7928460   0.0000000   2.7928460   2.7928460   2.7928460   2.7928460   0.4037610   2.7928460
 AtZNuc=   1.0000000   6.0000000   1.0000000   6.0000000   1.0000000   1.0000000   1.0000000   1.0000000   7.0000000   1.0000000

  Atom        21          22          23
 IAtWgt=           1          14           1
 AtmWgt=   1.0078250  14.0030740   1.0078250
 NucSpn=           1           2           1
 AtZEff=  -0.0000000  -0.0000000  -0.0000000
 NQMom=    0.0000000   2.0440000   0.0000000
 NMagM=    2.7928460   0.4037610   2.7928460
 AtZNuc=   1.0000000   7.0000000   1.0000000
 Leave Link  101 at Fri May 17 16:10:20 2019, MaxMem=   104857600 cpu:               4.1 elap:               0.2
 (Enter /opt/software/gaussian/g16.b01/l103.exe)

 GradGradGradGradGradGradGradGradGradGradGradGradGradGradGradGradGradGrad
 Berny optimization.
 Initialization pass.
                           ----------------------------
                           !    Initial Parameters    !
                           ! (Angstroms and Degrees)  !
 --------------------------                            --------------------------
 ! Name  Definition              Value          Derivative Info.                !
 --------------------------------------------------------------------------------
 ! R1    R(1,2)                  1.2288         estimate D2E/DX2                !
 ! R2    R(1,3)                  1.514          estimate D2E/DX2                !
 ! R3    R(1,7)                  1.4943         estimate D2E/DX2                !
 ! R4    R(2,18)                 0.96           estimate D2E/DX2                !
 ! R5    R(3,4)                  1.0949         estimate D2E/DX2                !
 ! R6    R(3,5)                  1.094          estimate D2E/DX2                !
 ! R7    R(3,6)                  1.0897         estimate D2E/DX2                !
 ! R8    R(7,8)                  1.4049         estimate D2E/DX2                !
 ! R9    R(7,9)                  1.4026         estimate D2E/DX2                !
 ! R10   R(8,10)                 1.3906         estimate D2E/DX2                !
 ! R11   R(8,11)                 1.0846         estimate D2E/DX2                !
 ! R12   R(9,12)                 1.3949         estimate D2E/DX2                !
 ! R13   R(9,13)                 1.084          estimate D2E/DX2                !
 ! R14   R(10,14)                1.3994         estimate D2E/DX2                !
 ! R15   R(10,15)                1.0858         estimate D2E/DX2                !
 ! R16   R(11,22)                3.0372         estimate D2E/DX2                !
 ! R17   R(12,14)                1.396          estimate D2E/DX2                !
 ! R18   R(12,16)                1.0855         estimate D2E/DX2                !
 ! R19   R(14,17)                1.086          estimate D2E/DX2                !
 ! R20   R(18,22)                3.1255         estimate D2E/DX2                !
 ! R21   R(19,20)                1.0            estimate D2E/DX2                !
 ! R22   R(19,21)                1.0            estimate D2E/DX2                !
 ! R23   R(19,22)                1.4            estimate D2E/DX2                !
 ! R24   R(22,23)                1.0            estimate D2E/DX2                !
 ! A1    A(2,1,3)              120.2708         estimate D2E/DX2                !
 ! A2    A(2,1,7)              120.6602         estimate D2E/DX2                !
 ! A3    A(3,1,7)              119.0674         estimate D2E/DX2                !
 ! A4    A(1,2,18)             120.0            estimate D2E/DX2                !
 ! A5    A(1,3,4)              110.8223         estimate D2E/DX2                !
 ! A6    A(1,3,5)              110.3057         estimate D2E/DX2                !
 ! A7    A(1,3,6)              108.9518         estimate D2E/DX2                !
 ! A8    A(4,3,5)              107.5977         estimate D2E/DX2                !
 ! A9    A(4,3,6)              109.8506         estimate D2E/DX2                !
 ! A10   A(5,3,6)              109.2923         estimate D2E/DX2                !
 ! A11   A(1,7,8)              118.4924         estimate D2E/DX2                !
 ! A12   A(1,7,9)              122.31           estimate D2E/DX2                !
 ! A13   A(8,7,9)              119.1863         estimate D2E/DX2                !
 ! A14   A(7,8,10)             120.5326         estimate D2E/DX2                !
 ! A15   A(7,8,11)             118.4612         estimate D2E/DX2                !
 ! A16   A(10,8,11)            121.0052         estimate D2E/DX2                !
 ! A17   A(7,9,12)             120.2758         estimate D2E/DX2                !
 ! A18   A(7,9,13)             120.4859         estimate D2E/DX2                !
 ! A19   A(12,9,13)            119.2334         estimate D2E/DX2                !
 ! A20   A(8,10,14)            119.8975         estimate D2E/DX2                !
 ! A21   A(8,10,15)            120.0305         estimate D2E/DX2                !
 ! A22   A(14,10,15)           120.0716         estimate D2E/DX2                !
 ! A23   A(8,11,22)             98.0468         estimate D2E/DX2                !
 ! A24   A(9,12,14)            120.0845         estimate D2E/DX2                !
 ! A25   A(9,12,16)            119.7866         estimate D2E/DX2                !
 ! A26   A(14,12,16)           120.1283         estimate D2E/DX2                !
 ! A27   A(10,14,12)           120.0228         estimate D2E/DX2                !
 ! A28   A(10,14,17)           120.002          estimate D2E/DX2                !
 ! A29   A(12,14,17)           119.9752         estimate D2E/DX2                !
 ! A30   A(2,18,22)            136.7769         estimate D2E/DX2                !
 ! A31   A(20,19,21)           109.4712         estimate D2E/DX2                !
 ! A32   A(20,19,22)           109.4712         estimate D2E/DX2                !
 ! A33   A(21,19,22)           109.4713         estimate D2E/DX2                !
 ! A34   A(11,22,18)            36.4844         estimate D2E/DX2                !
 ! A35   A(11,22,19)           117.3385         estimate D2E/DX2                !
 ! A36   A(11,22,23)            95.0746         estimate D2E/DX2                !
 ! A37   A(18,22,19)            85.3621         estimate D2E/DX2                !
 ! A38   A(18,22,23)            90.2024         estimate D2E/DX2                !
 ! A39   A(19,22,23)           109.4712         estimate D2E/DX2                !
 ! D1    D(3,1,2,18)          -144.6307         estimate D2E/DX2                !
 ! D2    D(7,1,2,18)            35.8472         estimate D2E/DX2                !
 ! D3    D(2,1,3,4)            120.9782         estimate D2E/DX2                !
 ! D4    D(2,1,3,5)           -119.9691         estimate D2E/DX2                !
 ! D5    D(2,1,3,6)              0.0            estimate D2E/DX2                !
 ! D6    D(7,1,3,4)            -59.4921         estimate D2E/DX2                !
 ! D7    D(7,1,3,5)             59.5606         estimate D2E/DX2                !
 ! D8    D(7,1,3,6)            179.5297         estimate D2E/DX2                !
 ! D9    D(2,1,7,8)             -2.4894         estimate D2E/DX2                !
 ! D10   D(2,1,7,9)            176.2807         estimate D2E/DX2                !
 ! D11   D(3,1,7,8)            177.9828         estimate D2E/DX2                !
 ! D12   D(3,1,7,9)             -3.2471         estimate D2E/DX2                !
 ! D13   D(1,2,18,22)           33.8657         estimate D2E/DX2                !
 ! D14   D(1,7,8,10)           178.7464         estimate D2E/DX2                !
 ! D15   D(1,7,8,11)            -0.8769         estimate D2E/DX2                !
 ! D16   D(9,7,8,10)            -0.063          estimate D2E/DX2                !
 ! D17   D(9,7,8,11)          -179.6863         estimate D2E/DX2                !
 ! D18   D(1,7,9,12)          -178.5279         estimate D2E/DX2                !
 ! D19   D(1,7,9,13)             0.6679         estimate D2E/DX2                !
 ! D20   D(8,7,9,12)             0.234          estimate D2E/DX2                !
 ! D21   D(8,7,9,13)           179.4298         estimate D2E/DX2                !
 ! D22   D(7,8,10,14)           -0.1436         estimate D2E/DX2                !
 ! D23   D(7,8,10,15)         -179.9374         estimate D2E/DX2                !
 ! D24   D(11,8,10,14)         179.47           estimate D2E/DX2                !
 ! D25   D(11,8,10,15)          -0.3239         estimate D2E/DX2                !
 ! D26   D(7,8,11,22)          -88.2909         estimate D2E/DX2                !
 ! D27   D(10,8,11,22)          92.0877         estimate D2E/DX2                !
 ! D28   D(7,9,12,14)           -0.1983         estimate D2E/DX2                !
 ! D29   D(7,9,12,16)          179.5158         estimate D2E/DX2                !
 ! D30   D(13,9,12,14)        -179.4041         estimate D2E/DX2                !
 ! D31   D(13,9,12,16)           0.31           estimate D2E/DX2                !
 ! D32   D(8,10,14,12)           0.1808         estimate D2E/DX2                !
 ! D33   D(8,10,14,17)        -179.737          estimate D2E/DX2                !
 ! D34   D(15,10,14,12)        179.9746         estimate D2E/DX2                !
 ! D35   D(15,10,14,17)          0.0567         estimate D2E/DX2                !
 ! D36   D(8,11,22,18)         111.9613         estimate D2E/DX2                !
 ! D37   D(8,11,22,19)          80.4082         estimate D2E/DX2                !
 ! D38   D(8,11,22,23)        -164.591          estimate D2E/DX2                !
 ! D39   D(9,12,14,10)          -0.0103         estimate D2E/DX2                !
 ! D40   D(9,12,14,17)         179.9076         estimate D2E/DX2                !
 ! D41   D(16,12,14,10)       -179.7235         estimate D2E/DX2                !
 ! D42   D(16,12,14,17)          0.1944         estimate D2E/DX2                !
 ! D43   D(2,18,22,11)        -100.1678         estimate D2E/DX2                !
 ! D44   D(2,18,22,19)          52.0334         estimate D2E/DX2                !
 ! D45   D(2,18,22,23)         161.5538         estimate D2E/DX2                !
 ! D46   D(20,19,22,11)        166.6509         estimate D2E/DX2                !
 ! D47   D(20,19,22,18)        148.4608         estimate D2E/DX2                !
 ! D48   D(20,19,22,23)         59.8889         estimate D2E/DX2                !
 ! D49   D(21,19,22,11)        -73.3491         estimate D2E/DX2                !
 ! D50   D(21,19,22,18)        -91.5392         estimate D2E/DX2                !
 ! D51   D(21,19,22,23)        179.8889         estimate D2E/DX2                !
 --------------------------------------------------------------------------------
 Trust Radius=3.00D-01 FncErr=1.00D-07 GrdErr=1.00D-06 EigMax=2.50D+02 EigMin=1.00D-04
 Number of steps in this run=    124 maximum allowed number of steps=    138.
 GradGradGradGradGradGradGradGradGradGradGradGradGradGradGradGradGradGrad

 Leave Link  103 at Fri May 17 16:10:20 2019, MaxMem=   104857600 cpu:               1.8 elap:               0.1
 (Enter /opt/software/gaussian/g16.b01/l202.exe)
                          Input orientation:                          
 ---------------------------------------------------------------------
 Center     Atomic      Atomic             Coordinates (Angstroms)
 Number     Number       Type             X           Y           Z
 ---------------------------------------------------------------------
      1          6           0       -0.060921   -1.873512    0.645917
      2          8           0       -0.686544   -2.516338   -0.193889
      3          6           0       -0.590049   -1.745309    2.058644
      4          1           0        0.129016   -2.144621    2.781296
      5          1           0       -0.758850   -0.693322    2.306807
      6          1           0       -1.531584   -2.288709    2.134602
      7          6           0        1.223811   -1.199566    0.287918
      8          6           0        1.725636   -1.361920   -1.014173
      9          6           0        1.926867   -0.394857    1.196524
     10          6           0        2.903939   -0.732737   -1.400711
     11          1           0        1.169876   -1.982506   -1.708641
     12          6           0        3.106927    0.239095    0.807591
     13          1           0        1.553948   -0.247629    2.203638
     14          6           0        3.596626    0.071845   -0.488962
     15          1           0        3.283870   -0.863037   -2.409441
     16          1           0        3.640448    0.866394    1.514832
     17          1           0        4.514708    0.567430   -0.790326
     18          1           0       -0.215373   -3.024731   -0.858068
     19          7           0        1.984311   -5.307757    0.126991
     20          1           0        2.317633   -6.250571    0.126991
     21          1           0        2.317651   -4.836357    0.943488
     22          7           0        2.450986   -4.647797   -1.016104
     23          1           0        2.119141   -5.120253   -1.832599
 ---------------------------------------------------------------------
                    Distance matrix (angstroms):
                    1          2          3          4          5
     1  C    0.000000
     2  O    1.228781   0.000000
     3  C    1.514005   2.382793   0.000000
     4  H    2.160884   3.107256   1.094865   0.000000
     5  H    2.153720   3.095496   1.093963   1.766271   0.000000
     6  H    2.133406   2.487524   1.089744   1.787895   1.781020
     7  C    1.494290   2.369701   2.592951   2.882471   2.874568
     8  C    2.491869   2.797170   3.866728   4.191348   4.201024
     9  C    2.537891   3.641956   2.983595   2.967397   2.921453
    10  C    3.778948   4.186791   5.019999   5.213712   5.211839
    11  H    2.659076   2.454739   4.164857   4.611855   4.637435
    12  C    3.811103   4.794350   4.378427   4.294830   4.249857
    13  H    2.770883   3.989358   2.619311   2.441864   2.357609
    14  C    4.295348   5.013113   5.226910   5.256579   5.231823
    15  H    4.641541   4.838002   5.979083   6.208004   6.214128
    16  H    4.686388   5.751996   5.001383   4.795862   4.734317
    17  H    5.381205   6.076050   6.286806   6.272639   6.244369
    18  H    1.900298   0.960000   3.206948   3.760076   3.968283
    19  N    4.030670   3.876655   4.801005   4.526907   5.793923
    20  H    5.008537   4.803388   5.699410   5.356697   6.715605
    21  H    3.811116   3.962487   4.387809   3.925952   5.337437
    22  N    4.094954   3.881140   5.208302   5.106631   6.081337
    23  H    4.630015   4.163845   5.819942   5.839778   6.709339
                    6          7          8          9         10
     6  H    0.000000
     7  C    3.491228   0.000000
     8  C    4.624198   1.404859   0.000000
     9  C    4.053091   1.402644   2.421340   0.000000
    10  C    5.881611   2.427391   1.390569   2.795436   0.000000
    11  H    4.707671   2.145263   1.084565   3.396123   2.159564
    12  C    5.446700   2.426094   2.791064   1.394886   2.421210
    13  H    3.700173   2.164522   3.409608   1.083985   3.879322
    14  C    6.225258   2.801835   2.414981   2.418009   1.399448
    15  H    6.772700   3.410695   2.150291   3.881190   1.085754
    16  H    6.090050   3.407880   3.876565   2.151380   3.405886
    17  H    7.298656   3.887787   3.398738   3.401542   2.158143
    18  H    3.351151   2.591479   2.560630   3.965701   3.908684
    19  N    5.050413   4.181088   4.115678   5.028299   4.910234
    20  H    5.877357   5.170589   5.054861   5.965399   5.755355
    21  H    4.767166   3.853895   4.031703   4.465833   4.762216
    22  N    5.599385   3.885451   3.364985   4.822647   3.959897
    23  H    6.089673   4.546426   3.866488   5.616219   4.478027
                   11         12         13         14         15
    11  H    0.000000
    12  C    3.875448   0.000000
    13  H    4.296887   2.144199   0.000000
    14  C    3.405450   1.396004   3.394804   0.000000
    15  H    2.492650   3.405187   4.965063   2.158717   0.000000
    16  H    4.960921   1.085513   2.463531   2.156019   4.303254
    17  H    4.305041   2.154760   4.288851   1.085955   2.486510
    18  H    1.930964   4.946177   4.496314   4.925075   4.395951
    19  N    3.884604   5.700092   5.486581   5.649697   5.279951
    20  H    4.785736   6.572820   6.397733   6.479827   6.032630
    21  H    4.061483   5.138253   4.819507   5.270497   5.288004
    22  N    3.037207   5.257170   5.525658   4.885222   4.118191
    23  H    3.280537   6.055488   6.352410   5.562931   4.451205
                   16         17         18         19         20
    16  H    0.000000
    17  H    2.483438   0.000000
    18  H    5.969830   5.939855   0.000000
    19  N    6.541333   6.462368   3.319814   0.000000
    20  H    7.370694   7.221755   4.218116   1.000000   0.000000
    21  H    5.881972   6.085564   3.597750   1.000000   1.632993
    22  N    6.182779   5.613245   3.125506   1.400000   1.973153
    23  H    7.025639   6.258978   3.284947   1.973153   2.270906
                   21         22         23
    21  H    0.000000
    22  N    1.973153   0.000000
    23  H    2.797618   1.000000   0.000000
 Stoichiometry    C8H12N2O(3)
 Framework group  C1[X(C8H12N2O)]
 Deg. of freedom    63
 Full point group                 C1      NOp   1
 Largest Abelian subgroup         C1      NOp   1
 Largest concise Abelian subgroup C1      NOp   1
                         Standard orientation:                         
 ---------------------------------------------------------------------
 Center     Atomic      Atomic             Coordinates (Angstroms)
 Number     Number       Type             X           Y           Z
 ---------------------------------------------------------------------
      1          6           0        0.509423    1.572111    0.388927
      2          8           0        1.367087    1.414985    1.254737
      3          6           0        0.523357    2.809422   -0.483471
      4          1           0        0.608560    2.539050   -1.541001
      5          1           0       -0.406874    3.371665   -0.359747
      6          1           0        1.365109    3.437690   -0.193171
      7          6           0       -0.566011    0.554270    0.188066
      8          6           0       -0.542724   -0.609459    0.974717
      9          6           0       -1.605180    0.734081   -0.736707
     10          6           0       -1.537058   -1.572363    0.841311
     11          1           0        0.263299   -0.734032    1.689624
     12          6           0       -2.604496   -0.230210   -0.867917
     13          1           0       -1.648848    1.628275   -1.347881
     14          6           0       -2.572511   -1.382721   -0.080821
     15          1           0       -1.511627   -2.468248    1.454177
     16          1           0       -3.409303   -0.079253   -1.580543
     17          1           0       -3.352237   -2.131595   -0.183368
     18          1           0        1.698516    0.534972    1.447952
     19          7           0        2.997985   -1.269977   -1.016740
     20          1           0        3.757408   -1.792274   -1.404661
     21          1           0        2.406057   -0.944721   -1.754189
     22          7           0        2.260771   -2.089455   -0.153623
     23          1           0        2.853147   -2.416172    0.582819
 ---------------------------------------------------------------------
 Rotational constants (GHZ):           1.0937713           0.8117118           0.5708827
 Leave Link  202 at Fri May 17 16:10:20 2019, MaxMem=   104857600 cpu:               0.5 elap:               0.0
 (Enter /opt/software/gaussian/g16.b01/l301.exe)
 Standard basis: 6-31G(d,p) (6D, 7F)
 Ernie: Thresh=  0.10000D-02 Tol=  0.10000D-05 Strict=F.
 There are   225 symmetry adapted cartesian basis functions of A   symmetry.
 There are   225 symmetry adapted basis functions of A   symmetry.
   225 basis functions,   392 primitive gaussians,   225 cartesian basis functions
    42 alpha electrons       40 beta electrons
       nuclear repulsion energy       579.3475968730 Hartrees.
 IExCor=  402 DFT=T Ex+Corr=B3LYP ExCW=0 ScaHFX=  0.200000
 ScaDFX=  0.800000  0.720000  1.000000  0.810000 ScalE2=  1.000000  1.000000
 IRadAn=      5 IRanWt=     -1 IRanGd=            0 ICorTp=0 IEmpDi=131
 NAtoms=   23 NActive=   23 NUniq=   23 SFac= 1.00D+00 NAtFMM=   60 NAOKFM=F Big=F
 Integral buffers will be    131072 words long.
 Raffenetti 2 integral format.
 Two-electron integral symmetry is turned on.
 R6Disp:  Grimme-D3 Dispersion energy=       -0.0159558921 Hartrees.
 Nuclear repulsion after empirical dispersion term =      579.3316409809 Hartrees.
 ------------------------------------------------------------------------------
 Polarizable Continuum Model (PCM)
 =================================
 Model                : PCM.
 Atomic radii         : UFF (Universal Force Field).
 Polarization charges : Total charges.
 Charge compensation  : None.
 Solution method      : On-the-fly selection.
 Cavity type          : Scaled VdW (van der Waals Surface) (Alpha=1.100).
 Cavity algorithm     : GePol (No added spheres)
                        Default sphere list used, NSphG=   23.
                        Lebedev-Laikov grids with approx.  5.0 points / Ang**2.
                        Smoothing algorithm: York/Karplus (Gamma=1.0000).
                        Polarization charges: spherical gaussians, with
                                              point-specific exponents (IZeta= 3).
                        Self-potential: point-specific (ISelfS= 7).
                        Self-field    : sphere-specific E.n sum rule (ISelfD= 2).
 1st derivatives      : Analytical E(r).r(x)/FMM algorithm (CHGder, D1EAlg=3).
                        Cavity 1st derivative terms included.
 Solvent              : Acetonitrile, Eps=  35.688000 Eps(inf)=   1.806874
 ------------------------------------------------------------------------------
 GePol: Number of generator spheres                  =      23
 GePol: Total number of spheres                      =      23
 GePol: Number of exposed spheres                    =      23 (100.00%)
 GePol: Number of points                             =    1898
 GePol: Average weight of points                     =       0.13
 GePol: Minimum weight of points                     =   0.99D-11
 GePol: Maximum weight of points                     =    0.20577
 GePol: Number of points with low weight             =     108
 GePol: Fraction of low-weight points (<1% of avg)   =       5.69%
 GePol: Cavity surface area                          =    254.219 Ang**2
 GePol: Cavity volume                                =    249.613 Ang**3
 Leave Link  301 at Fri May 17 16:10:21 2019, MaxMem=   104857600 cpu:               3.5 elap:               0.1
 (Enter /opt/software/gaussian/g16.b01/l302.exe)
 NPDir=0 NMtPBC=     1 NCelOv=     1 NCel=       1 NClECP=     1 NCelD=      1
         NCelK=      1 NCelE2=     1 NClLst=     1 CellRange=     0.0.
 One-electron integrals computed using PRISM.
 One-electron integral symmetry used in STVInt
 PrsmSu:  requested number of processors reduced to:  29 ShMem   1 Linda.
 NBasis=   225 RedAO= T EigKep=  4.66D-04  NBF=   225
 NBsUse=   225 1.00D-06 EigRej= -1.00D+00 NBFU=   225
 Precomputing XC quadrature grid using
 IXCGrd= 4 IRadAn=           5 IRanWt=          -1 IRanGd=           0 AccXCQ= 0.00D+00.
 Generated NRdTot=       0 NPtTot=           0 NUsed=           0 NTot=          32
 NSgBfM=   225   225   225   225   225 MxSgAt=    23 MxSgA2=    23.
 Leave Link  302 at Fri May 17 16:10:21 2019, MaxMem=   104857600 cpu:               8.8 elap:               0.3
 (Enter /opt/software/gaussian/g16.b01/l303.exe)
 DipDrv:  MaxL=1.
 Leave Link  303 at Fri May 17 16:10:21 2019, MaxMem=   104857600 cpu:               1.1 elap:               0.1
 (Enter /opt/software/gaussian/g16.b01/l401.exe)
 ExpMin= 1.61D-01 ExpMax= 5.48D+03 ExpMxC= 8.25D+02 IAcc=3 IRadAn=         5 AccDes= 0.00D+00
 Harris functional with IExCor=  402 and IRadAn=       5 diagonalized for initial guess.
 HarFok:  IExCor=  402 AccDes= 0.00D+00 IRadAn=         5 IDoV= 1 UseB2=F ITyADJ=14
 ICtDFT=  3500011 ScaDFX=  1.000000  1.000000  1.000000  1.000000
 FoFCou: FMM=F IPFlag=           0 FMFlag=      100000 FMFlg1=           0
         NFxFlg=           0 DoJE=T BraDBF=F KetDBF=T FulRan=T
         wScrn=  0.000000 ICntrl=       500 IOpCl=  0 I1Cent=   200000004 NGrid=           0
         NMat0=    1 NMatS0=      1 NMatT0=    0 NMatD0=    1 NMtDS0=    0 NMtDT0=    0
 Petite list used in FoFCou.
 Harris En= -496.704493021329    
 JPrj=0 DoOrth=F DoCkMO=F.
 Initial guess <Sx>= 0.0000 <Sy>= 0.0000 <Sz>= 1.0000 <S**2>= 2.0000 S= 1.0000
 Leave Link  401 at Fri May 17 16:10:21 2019, MaxMem=   104857600 cpu:              14.6 elap:               0.5
 (Enter /opt/software/gaussian/g16.b01/l502.exe)
 Integral symmetry usage will be decided dynamically.
 UHF open shell SCF:
 Using DIIS extrapolation, IDIIS=  1040.
 NGot=   104857600 LenX=   104746616 LenY=   104695550
 Requested convergence on RMS density matrix=1.00D-08 within 128 cycles.
 Requested convergence on MAX density matrix=1.00D-06.
 Requested convergence on             energy=1.00D-06.
 No special actions if energy rises.
 Fock matrices will be formed incrementally for  20 cycles.

 Cycle   1  Pass 1  IDiag  1:
 FoFJK:  IHMeth= 1 ICntrl=       0 DoSepK=F KAlg= 0 I1Cent=           0 FoldK=F
 IRaf= 860000000 NMat=       1 IRICut=       1 DoRegI=T DoRafI=F ISym2E= 0 IDoP0=0 IntGTp=1.
 FoFCou: FMM=F IPFlag=           0 FMFlag=      100000 FMFlg1=           0
         NFxFlg=           0 DoJE=F BraDBF=F KetDBF=F FulRan=T
         wScrn=  0.000000 ICntrl=         0 IOpCl=  1 I1Cent=           0 NGrid=           0
         NMat0=    1 NMatS0=      1 NMatT0=    0 NMatD0=    1 NMtDS0=    0 NMtDT0=    0
 Symmetry not used in FoFCou.
 Inv3:  Mode=1 IEnd=    10807212.
 Iteration    1 A*A^-1 deviation from unit magnitude is 3.11D-15 for   1111.
 Iteration    1 A*A^-1 deviation from orthogonality  is 1.85D-15 for    905    412.
 Iteration    1 A^-1*A deviation from unit magnitude is 3.22D-15 for    602.
 Iteration    1 A^-1*A deviation from orthogonality  is 1.73D-15 for   1449   1419.
 E= -496.392042173064    
 DIIS: error= 2.99D-02 at cycle   1 NSaved=   1.
 NSaved= 1 IEnMin= 1 EnMin= -496.392042173064     IErMin= 1 ErrMin= 2.99D-02
 ErrMax= 2.99D-02  0.00D+00 EMaxC= 1.00D-01 BMatC= 1.15D+00 BMatP= 1.15D+00
 IDIUse=3 WtCom= 7.01D-01 WtEn= 2.99D-01
 Coeff-Com:  0.100D+01
 Coeff-En:   0.100D+01
 Coeff:      0.100D+01
 Gap=     0.178 Goal=   None    Shift=    0.000
 Gap=     0.185 Goal=   None    Shift=    0.000
 GapD=    0.178 DampG=1.000 DampE=0.500 DampFc=0.5000 IDamp=-1.
 Damping current iteration by 5.00D-01
 RMSDP=5.20D-03 MaxDP=1.38D-01              OVMax= 3.47D-01

 Cycle   2  Pass 1  IDiag  1:
 RMSU=  2.56D-03    CP:  9.77D-01
 E= -496.532240689997     Delta-E=       -0.140198516934 Rises=F Damp=T
 DIIS: error= 7.52D-03 at cycle   2 NSaved=   2.
 NSaved= 2 IEnMin= 2 EnMin= -496.532240689997     IErMin= 2 ErrMin= 7.52D-03
 ErrMax= 7.52D-03  0.00D+00 EMaxC= 1.00D-01 BMatC= 6.62D-02 BMatP= 1.15D+00
 IDIUse=3 WtCom= 9.25D-01 WtEn= 7.52D-02
 Coeff-Com:  0.378D-01 0.962D+00
 Coeff-En:   0.523D-01 0.948D+00
 Coeff:      0.389D-01 0.961D+00
 Gap=     0.180 Goal=   None    Shift=    0.000
 Gap=     0.186 Goal=   None    Shift=    0.000
 RMSDP=1.22D-03 MaxDP=3.51D-02 DE=-1.40D-01 OVMax= 2.13D-01

 Cycle   3  Pass 1  IDiag  1:
 RMSU=  1.20D-03    CP:  9.71D-01  9.27D-01
 E= -496.688566069216     Delta-E=       -0.156325379218 Rises=F Damp=F
 DIIS: error= 5.09D-03 at cycle   3 NSaved=   3.
 NSaved= 3 IEnMin= 3 EnMin= -496.688566069216     IErMin= 3 ErrMin= 5.09D-03
 ErrMax= 5.09D-03  0.00D+00 EMaxC= 1.00D-01 BMatC= 3.11D-02 BMatP= 6.62D-02
 IDIUse=3 WtCom= 9.49D-01 WtEn= 5.09D-02
 Coeff-Com: -0.182D-01 0.389D+00 0.630D+00
 Coeff-En:   0.000D+00 0.000D+00 0.100D+01
 Coeff:     -0.172D-01 0.369D+00 0.648D+00
 Gap=     0.141 Goal=   None    Shift=    0.000
 Gap=     0.176 Goal=   None    Shift=    0.000
 RMSDP=7.38D-04 MaxDP=3.85D-02 DE=-1.56D-01 OVMax= 1.11D-01

 Cycle   4  Pass 1  IDiag  1:
 RMSU=  6.19D-04    CP:  9.71D-01  1.00D+00  7.06D-01
 E= -496.694452838182     Delta-E=       -0.005886768966 Rises=F Damp=F
 DIIS: error= 2.96D-03 at cycle   4 NSaved=   4.
 NSaved= 4 IEnMin= 4 EnMin= -496.694452838182     IErMin= 4 ErrMin= 2.96D-03
 ErrMax= 2.96D-03  0.00D+00 EMaxC= 1.00D-01 BMatC= 1.11D-02 BMatP= 3.11D-02
 IDIUse=3 WtCom= 9.70D-01 WtEn= 2.96D-02
 Coeff-Com: -0.119D-01 0.621D-01 0.385D+00 0.565D+00
 Coeff-En:   0.000D+00 0.000D+00 0.254D+00 0.746D+00
 Coeff:     -0.116D-01 0.603D-01 0.381D+00 0.570D+00
 Gap=     0.133 Goal=   None    Shift=    0.000
 Gap=     0.180 Goal=   None    Shift=    0.000
 RMSDP=2.87D-04 MaxDP=9.05D-03 DE=-5.89D-03 OVMax= 2.71D-02

 Cycle   5  Pass 1  IDiag  1:
 RMSU=  1.60D-04    CP:  9.71D-01  9.89D-01  8.23D-01  6.93D-01
 E= -496.697454095767     Delta-E=       -0.003001257586 Rises=F Damp=F
 DIIS: error= 7.58D-04 at cycle   5 NSaved=   5.
 NSaved= 5 IEnMin= 5 EnMin= -496.697454095767     IErMin= 5 ErrMin= 7.58D-04
 ErrMax= 7.58D-04  0.00D+00 EMaxC= 1.00D-01 BMatC= 3.16D-04 BMatP= 1.11D-02
 IDIUse=3 WtCom= 9.92D-01 WtEn= 7.58D-03
 Coeff-Com: -0.144D-02-0.880D-02 0.891D-01 0.180D+00 0.741D+00
 Coeff-En:   0.000D+00 0.000D+00 0.000D+00 0.000D+00 0.100D+01
 Coeff:     -0.143D-02-0.873D-02 0.884D-01 0.179D+00 0.743D+00
 Gap=     0.135 Goal=   None    Shift=    0.000
 Gap=     0.179 Goal=   None    Shift=    0.000
 RMSDP=8.05D-05 MaxDP=1.95D-03 DE=-3.00D-03 OVMax= 1.10D-02

 Cycle   6  Pass 1  IDiag  1:
 RMSU=  5.98D-05    CP:  9.71D-01  9.95D-01  8.30D-01  7.74D-01  1.01D+00
 E= -496.697571380819     Delta-E=       -0.000117285051 Rises=F Damp=F
 DIIS: error= 6.50D-04 at cycle   6 NSaved=   6.
 NSaved= 6 IEnMin= 6 EnMin= -496.697571380819     IErMin= 6 ErrMin= 6.50D-04
 ErrMax= 6.50D-04  0.00D+00 EMaxC= 1.00D-01 BMatC= 1.47D-04 BMatP= 3.16D-04
 IDIUse=3 WtCom= 9.93D-01 WtEn= 6.50D-03
 Coeff-Com:  0.122D-02-0.134D-01-0.707D-02-0.541D-02 0.393D+00 0.632D+00
 Coeff-En:   0.000D+00 0.000D+00 0.000D+00 0.000D+00 0.000D+00 0.100D+01
 Coeff:      0.121D-02-0.133D-01-0.702D-02-0.537D-02 0.390D+00 0.634D+00
 Gap=     0.135 Goal=   None    Shift=    0.000
 Gap=     0.180 Goal=   None    Shift=    0.000
 RMSDP=4.27D-05 MaxDP=1.52D-03 DE=-1.17D-04 OVMax= 4.65D-03

 Cycle   7  Pass 1  IDiag  1:
 RMSU=  2.99D-05    CP:  9.71D-01  9.95D-01  8.37D-01  7.90D-01  1.18D+00
                    CP:  9.00D-01
 E= -496.697625719429     Delta-E=       -0.000054338610 Rises=F Damp=F
 DIIS: error= 2.74D-04 at cycle   7 NSaved=   7.
 NSaved= 7 IEnMin= 7 EnMin= -496.697625719429     IErMin= 7 ErrMin= 2.74D-04
 ErrMax= 2.74D-04  0.00D+00 EMaxC= 1.00D-01 BMatC= 2.81D-05 BMatP= 1.47D-04
 IDIUse=3 WtCom= 9.97D-01 WtEn= 2.74D-03
 Coeff-Com:  0.123D-02-0.281D-02-0.330D-01-0.785D-01-0.899D-01 0.278D+00
 Coeff-Com:  0.925D+00
 Coeff-En:   0.000D+00 0.000D+00 0.000D+00 0.000D+00 0.000D+00 0.000D+00
 Coeff-En:   0.100D+01
 Coeff:      0.122D-02-0.281D-02-0.329D-01-0.783D-01-0.897D-01 0.277D+00
 Coeff:      0.925D+00
 Gap=     0.135 Goal=   None    Shift=    0.000
 Gap=     0.181 Goal=   None    Shift=    0.000
 RMSDP=3.00D-05 MaxDP=1.06D-03 DE=-5.43D-05 OVMax= 3.39D-03

 Cycle   8  Pass 1  IDiag  1:
 RMSU=  1.38D-05    CP:  9.70D-01  9.95D-01  8.42D-01  8.06D-01  1.28D+00
                    CP:  1.20D+00  1.03D+00
 E= -496.697641563351     Delta-E=       -0.000015843922 Rises=F Damp=F
 DIIS: error= 1.35D-04 at cycle   8 NSaved=   8.
 NSaved= 8 IEnMin= 8 EnMin= -496.697641563351     IErMin= 8 ErrMin= 1.35D-04
 ErrMax= 1.35D-04  0.00D+00 EMaxC= 1.00D-01 BMatC= 6.08D-06 BMatP= 2.81D-05
 IDIUse=3 WtCom= 9.99D-01 WtEn= 1.35D-03
 Coeff-Com:  0.567D-03-0.183D-03-0.164D-01-0.408D-01-0.874D-01 0.756D-01
 Coeff-Com:  0.504D+00 0.565D+00
 Coeff-En:   0.000D+00 0.000D+00 0.000D+00 0.000D+00 0.000D+00 0.000D+00
 Coeff-En:   0.000D+00 0.100D+01
 Coeff:      0.566D-03-0.183D-03-0.164D-01-0.408D-01-0.873D-01 0.755D-01
 Coeff:      0.503D+00 0.566D+00
 Gap=     0.135 Goal=   None    Shift=    0.000
 Gap=     0.181 Goal=   None    Shift=    0.000
 RMSDP=8.09D-06 MaxDP=2.82D-04 DE=-1.58D-05 OVMax= 1.04D-03

 Cycle   9  Pass 1  IDiag  1:
 RMSU=  5.85D-06    CP:  9.70D-01  9.96D-01  8.42D-01  8.06D-01  1.30D+00
                    CP:  1.22D+00  1.15D+00  8.82D-01
 E= -496.697643894764     Delta-E=       -0.000002331413 Rises=F Damp=F
 DIIS: error= 4.77D-05 at cycle   9 NSaved=   9.
 NSaved= 9 IEnMin= 9 EnMin= -496.697643894764     IErMin= 9 ErrMin= 4.77D-05
 ErrMax= 4.77D-05  0.00D+00 EMaxC= 1.00D-01 BMatC= 7.38D-07 BMatP= 6.08D-06
 IDIUse=1 WtCom= 1.00D+00 WtEn= 0.00D+00
 Coeff-Com: -0.203D-03 0.804D-03 0.332D-02 0.780D-02-0.643D-02-0.538D-01
 Coeff-Com: -0.653D-01 0.166D+00 0.948D+00
 Coeff:     -0.203D-03 0.804D-03 0.332D-02 0.780D-02-0.643D-02-0.538D-01
 Coeff:     -0.653D-01 0.166D+00 0.948D+00
 Gap=     0.135 Goal=   None    Shift=    0.000
 Gap=     0.181 Goal=   None    Shift=    0.000
 RMSDP=5.29D-06 MaxDP=1.67D-04 DE=-2.33D-06 OVMax= 7.31D-04

 Cycle  10  Pass 1  IDiag  1:
 RMSU=  2.67D-06    CP:  9.70D-01  9.96D-01  8.42D-01  8.05D-01  1.30D+00
                    CP:  1.24D+00  1.19D+00  1.12D+00  1.42D+00
 E= -496.697644642090     Delta-E=       -0.000000747327 Rises=F Damp=F
 DIIS: error= 2.18D-05 at cycle  10 NSaved=  10.
 NSaved=10 IEnMin=10 EnMin= -496.697644642090     IErMin=10 ErrMin= 2.18D-05
 ErrMax= 2.18D-05  0.00D+00 EMaxC= 1.00D-01 BMatC= 2.55D-07 BMatP= 7.38D-07
 IDIUse=1 WtCom= 1.00D+00 WtEn= 0.00D+00
 Coeff-Com: -0.231D-03 0.482D-03 0.527D-02 0.133D-01 0.162D-01-0.428D-01
 Coeff-Com: -0.138D+00-0.505D-01 0.424D+00 0.772D+00
 Coeff:     -0.231D-03 0.482D-03 0.527D-02 0.133D-01 0.162D-01-0.428D-01
 Coeff:     -0.138D+00-0.505D-01 0.424D+00 0.772D+00
 Gap=     0.135 Goal=   None    Shift=    0.000
 Gap=     0.181 Goal=   None    Shift=    0.000
 RMSDP=3.01D-06 MaxDP=9.38D-05 DE=-7.47D-07 OVMax= 3.62D-04

 Cycle  11  Pass 1  IDiag  1:
 RMSU=  1.30D-06    CP:  9.70D-01  9.96D-01  8.42D-01  8.05D-01  1.30D+00
                    CP:  1.25D+00  1.21D+00  1.24D+00  1.77D+00  1.17D+00
 E= -496.697644877234     Delta-E=       -0.000000235144 Rises=F Damp=F
 DIIS: error= 1.20D-05 at cycle  11 NSaved=  11.
 NSaved=11 IEnMin=11 EnMin= -496.697644877234     IErMin=11 ErrMin= 1.20D-05
 ErrMax= 1.20D-05  0.00D+00 EMaxC= 1.00D-01 BMatC= 5.44D-08 BMatP= 2.55D-07
 IDIUse=1 WtCom= 1.00D+00 WtEn= 0.00D+00
 Coeff-Com: -0.312D-05-0.175D-03-0.486D-04 0.918D-03 0.471D-02 0.443D-02
 Coeff-Com: -0.132D-01-0.741D-01-0.212D+00 0.238D+00 0.105D+01
 Coeff:     -0.312D-05-0.175D-03-0.486D-04 0.918D-03 0.471D-02 0.443D-02
 Coeff:     -0.132D-01-0.741D-01-0.212D+00 0.238D+00 0.105D+01
 Gap=     0.135 Goal=   None    Shift=    0.000
 Gap=     0.181 Goal=   None    Shift=    0.000
 RMSDP=2.36D-06 MaxDP=6.69D-05 DE=-2.35D-07 OVMax= 3.00D-04

 Cycle  12  Pass 1  IDiag  1:
 RMSU=  5.87D-07    CP:  9.70D-01  9.95D-01  8.43D-01  8.04D-01  1.30D+00
                    CP:  1.25D+00  1.22D+00  1.32D+00  2.03D+00  1.56D+00
                    CP:  1.25D+00
 E= -496.697644961364     Delta-E=       -0.000000084130 Rises=F Damp=F
 DIIS: error= 3.98D-06 at cycle  12 NSaved=  12.
 NSaved=12 IEnMin=12 EnMin= -496.697644961364     IErMin=12 ErrMin= 3.98D-06
 ErrMax= 3.98D-06  0.00D+00 EMaxC= 1.00D-01 BMatC= 8.21D-09 BMatP= 5.44D-08
 IDIUse=1 WtCom= 1.00D+00 WtEn= 0.00D+00
 Coeff-Com:  0.288D-04-0.971D-04-0.756D-03-0.159D-02-0.108D-02 0.749D-02
 Coeff-Com:  0.180D-01-0.132D-01-0.114D+00-0.626D-01 0.255D+00 0.912D+00
 Coeff:      0.288D-04-0.971D-04-0.756D-03-0.159D-02-0.108D-02 0.749D-02
 Coeff:      0.180D-01-0.132D-01-0.114D+00-0.626D-01 0.255D+00 0.912D+00
 Gap=     0.135 Goal=   None    Shift=    0.000
 Gap=     0.181 Goal=   None    Shift=    0.000
 RMSDP=7.37D-07 MaxDP=2.31D-05 DE=-8.41D-08 OVMax= 8.51D-05

 Cycle  13  Pass 1  IDiag  1:
 RMSU=  2.53D-07    CP:  9.71D-01  9.95D-01  8.43D-01  8.04D-01  1.30D+00
                    CP:  1.25D+00  1.22D+00  1.34D+00  2.10D+00  1.68D+00
                    CP:  1.47D+00  1.21D+00
 E= -496.697644969085     Delta-E=       -0.000000007721 Rises=F Damp=F
 DIIS: error= 2.38D-06 at cycle  13 NSaved=  13.
 NSaved=13 IEnMin=13 EnMin= -496.697644969085     IErMin=13 ErrMin= 2.38D-06
 ErrMax= 2.38D-06  0.00D+00 EMaxC= 1.00D-01 BMatC= 4.86D-09 BMatP= 8.21D-09
 IDIUse=1 WtCom= 1.00D+00 WtEn= 0.00D+00
 Coeff-Com:  0.191D-04-0.197D-04-0.531D-03-0.135D-02-0.224D-02 0.350D-02
 Coeff-Com:  0.153D-01 0.102D-01-0.196D-01-0.979D-01-0.900D-01 0.580D+00
 Coeff-Com:  0.603D+00
 Coeff:      0.191D-04-0.197D-04-0.531D-03-0.135D-02-0.224D-02 0.350D-02
 Coeff:      0.153D-01 0.102D-01-0.196D-01-0.979D-01-0.900D-01 0.580D+00
 Coeff:      0.603D+00
 Gap=     0.135 Goal=   None    Shift=    0.000
 Gap=     0.181 Goal=   None    Shift=    0.000
 RMSDP=2.66D-07 MaxDP=1.04D-05 DE=-7.72D-09 OVMax= 3.50D-05

 Cycle  14  Pass 1  IDiag  1:
 RMSU=  1.24D-07    CP:  9.71D-01  9.95D-01  8.43D-01  8.04D-01  1.30D+00
                    CP:  1.25D+00  1.22D+00  1.35D+00  2.12D+00  1.71D+00
                    CP:  1.53D+00  1.43D+00  8.17D-01
 E= -496.697644970925     Delta-E=       -0.000000001840 Rises=F Damp=F
 DIIS: error= 7.29D-07 at cycle  14 NSaved=  14.
 NSaved=14 IEnMin=14 EnMin= -496.697644970925     IErMin=14 ErrMin= 7.29D-07
 ErrMax= 7.29D-07  0.00D+00 EMaxC= 1.00D-01 BMatC= 3.86D-10 BMatP= 4.86D-09
 IDIUse=1 WtCom= 1.00D+00 WtEn= 0.00D+00
 Coeff-Com:  0.135D-05 0.113D-04-0.386D-04-0.173D-03-0.521D-03-0.104D-03
 Coeff-Com:  0.193D-02 0.585D-02 0.139D-01-0.206D-01-0.737D-01 0.186D-01
 Coeff-Com:  0.220D+00 0.835D+00
 Coeff:      0.135D-05 0.113D-04-0.386D-04-0.173D-03-0.521D-03-0.104D-03
 Coeff:      0.193D-02 0.585D-02 0.139D-01-0.206D-01-0.737D-01 0.186D-01
 Coeff:      0.220D+00 0.835D+00
 Gap=     0.135 Goal=   None    Shift=    0.000
 Gap=     0.181 Goal=   None    Shift=    0.000
 RMSDP=9.05D-08 MaxDP=3.14D-06 DE=-1.84D-09 OVMax= 9.65D-06

 Cycle  15  Pass 1  IDiag  1:
 RMSU=  5.03D-08    CP:  9.71D-01  9.95D-01  8.43D-01  8.04D-01  1.30D+00
                    CP:  1.25D+00  1.22D+00  1.35D+00  2.13D+00  1.72D+00
                    CP:  1.55D+00  1.51D+00  9.58D-01  1.11D+00
 E= -496.697644971105     Delta-E=       -0.000000000179 Rises=F Damp=F
 DIIS: error= 3.86D-07 at cycle  15 NSaved=  15.
 NSaved=15 IEnMin=15 EnMin= -496.697644971105     IErMin=15 ErrMin= 3.86D-07
 ErrMax= 3.86D-07  0.00D+00 EMaxC= 1.00D-01 BMatC= 1.08D-10 BMatP= 3.86D-10
 IDIUse=1 WtCom= 1.00D+00 WtEn= 0.00D+00
 Coeff-Com: -0.254D-05 0.815D-05 0.768D-04 0.152D-03 0.136D-03-0.691D-03
 Coeff-Com: -0.183D-02 0.125D-02 0.109D-01 0.546D-02-0.235D-01-0.912D-01
 Coeff-Com:  0.269D-01 0.436D+00 0.637D+00
 Coeff:     -0.254D-05 0.815D-05 0.768D-04 0.152D-03 0.136D-03-0.691D-03
 Coeff:     -0.183D-02 0.125D-02 0.109D-01 0.546D-02-0.235D-01-0.912D-01
 Coeff:      0.269D-01 0.436D+00 0.637D+00
 Gap=     0.135 Goal=   None    Shift=    0.000
 Gap=     0.181 Goal=   None    Shift=    0.000
 RMSDP=3.81D-08 MaxDP=1.56D-06 DE=-1.79D-10 OVMax= 5.57D-06

 Cycle  16  Pass 1  IDiag  1:
 RMSU=  2.39D-08    CP:  9.71D-01  9.95D-01  8.43D-01  8.04D-01  1.30D+00
                    CP:  1.25D+00  1.22D+00  1.35D+00  2.13D+00  1.72D+00
                    CP:  1.56D+00  1.54D+00  1.01D+00  1.25D+00  9.45D-01
 E= -496.697644971150     Delta-E=       -0.000000000045 Rises=F Damp=F
 DIIS: error= 1.46D-07 at cycle  16 NSaved=  16.
 NSaved=16 IEnMin=16 EnMin= -496.697644971150     IErMin=16 ErrMin= 1.46D-07
 ErrMax= 1.46D-07  0.00D+00 EMaxC= 1.00D-01 BMatC= 1.24D-11 BMatP= 1.08D-10
 IDIUse=1 WtCom= 1.00D+00 WtEn= 0.00D+00
 Coeff-Com: -0.728D-06-0.468D-06 0.263D-04 0.700D-04 0.141D-03-0.134D-03
 Coeff-Com: -0.863D-03-0.854D-03-0.159D-03 0.589D-02 0.105D-01-0.329D-01
 Coeff-Com: -0.317D-01-0.739D-01 0.193D+00 0.931D+00
 Coeff:     -0.728D-06-0.468D-06 0.263D-04 0.700D-04 0.141D-03-0.134D-03
 Coeff:     -0.863D-03-0.854D-03-0.159D-03 0.589D-02 0.105D-01-0.329D-01
 Coeff:     -0.317D-01-0.739D-01 0.193D+00 0.931D+00
 Gap=     0.135 Goal=   None    Shift=    0.000
 Gap=     0.181 Goal=   None    Shift=    0.000
 RMSDP=2.03D-08 MaxDP=1.24D-06 DE=-4.48D-11 OVMax= 3.69D-06

 Cycle  17  Pass 1  IDiag  1:
 RMSU=  8.58D-09    CP:  9.71D-01  9.95D-01  8.43D-01  8.04D-01  1.30D+00
                    CP:  1.25D+00  1.22D+00  1.35D+00  2.13D+00  1.72D+00
                    CP:  1.56D+00  1.55D+00  1.04D+00  1.34D+00  1.15D+00
                    CP:  1.15D+00
 E= -496.697644971159     Delta-E=       -0.000000000010 Rises=F Damp=F
 DIIS: error= 7.04D-08 at cycle  17 NSaved=  17.
 NSaved=17 IEnMin=17 EnMin= -496.697644971159     IErMin=17 ErrMin= 7.04D-08
 ErrMax= 7.04D-08  0.00D+00 EMaxC= 1.00D-01 BMatC= 1.13D-12 BMatP= 1.24D-11
 IDIUse=1 WtCom= 1.00D+00 WtEn= 0.00D+00
 Coeff-Com:  0.255D-06-0.104D-05-0.737D-05-0.117D-04-0.134D-05 0.717D-04
 Coeff-Com:  0.127D-03-0.222D-03-0.139D-02-0.595D-04 0.405D-02 0.652D-02
 Coeff-Com: -0.160D-02-0.664D-01-0.544D-01 0.717D-01 0.104D+01
 Coeff:      0.255D-06-0.104D-05-0.737D-05-0.117D-04-0.134D-05 0.717D-04
 Coeff:      0.127D-03-0.222D-03-0.139D-02-0.595D-04 0.405D-02 0.652D-02
 Coeff:     -0.160D-02-0.664D-01-0.544D-01 0.717D-01 0.104D+01
 Gap=     0.135 Goal=   None    Shift=    0.000
 Gap=     0.181 Goal=   None    Shift=    0.000
 RMSDP=8.70D-09 MaxDP=5.59D-07 DE=-9.55D-12 OVMax= 1.75D-06

 Error on total polarization charges =  0.00795
 SCF Done:  E(UB3LYP) =  -496.697644971     A.U. after   17 cycles
            NFock= 17  Conv=0.87D-08     -V/T= 2.0087
 <Sx>= 0.0000 <Sy>= 0.0000 <Sz>= 1.0000 <S**2>= 2.0200 S= 1.0067
 <L.S>=  0.00000000000    
 KE= 4.923958429045D+02 PE=-2.314944328406D+03 EE= 7.465191995499D+02
 Annihilation of the first spin contaminant:
 S**2 before annihilation     2.0200,   after     2.0002
 Leave Link  502 at Fri May 17 16:10:37 2019, MaxMem=   104857600 cpu:             480.3 elap:              15.5
 (Enter /opt/software/gaussian/g16.b01/l601.exe)
 Copying SCF densities to generalized density rwf, IOpCl= 1 IROHF=0.

 **********************************************************************

            Population analysis using the SCF Density.

 **********************************************************************

 Orbital symmetries:
 Alpha Orbitals:
       Occupied  (A) (A) (A) (A) (A) (A) (A) (A) (A) (A) (A) (A)
                 (A) (A) (A) (A) (A) (A) (A) (A) (A) (A) (A) (A)
                 (A) (A) (A) (A) (A) (A) (A) (A) (A) (A) (A) (A)
                 (A) (A) (A) (A) (A) (A)
       Virtual   (A) (A) (A) (A) (A) (A) (A) (A) (A) (A) (A) (A)
                 (A) (A) (A) (A) (A) (A) (A) (A) (A) (A) (A) (A)
                 (A) (A) (A) (A) (A) (A) (A) (A) (A) (A) (A) (A)
                 (A) (A) (A) (A) (A) (A) (A) (A) (A) (A) (A) (A)
                 (A) (A) (A) (A) (A) (A) (A) (A) (A) (A) (A) (A)
                 (A) (A) (A) (A) (A) (A) (A) (A) (A) (A) (A) (A)
                 (A) (A) (A) (A) (A) (A) (A) (A) (A) (A) (A) (A)
                 (A) (A) (A) (A) (A) (A) (A) (A) (A) (A) (A) (A)
                 (A) (A) (A) (A) (A) (A) (A) (A) (A) (A) (A) (A)
                 (A) (A) (A) (A) (A) (A) (A) (A) (A) (A) (A) (A)
                 (A) (A) (A) (A) (A) (A) (A) (A) (A) (A) (A) (A)
                 (A) (A) (A) (A) (A) (A) (A) (A) (A) (A) (A) (A)
                 (A) (A) (A) (A) (A) (A) (A) (A) (A) (A) (A) (A)
                 (A) (A) (A) (A) (A) (A) (A) (A) (A) (A) (A) (A)
                 (A) (A) (A) (A) (A) (A) (A) (A) (A) (A) (A) (A)
                 (A) (A) (A)
 Beta  Orbitals:
       Occupied  (A) (A) (A) (A) (A) (A) (A) (A) (A) (A) (A) (A)
                 (A) (A) (A) (A) (A) (A) (A) (A) (A) (A) (A) (A)
                 (A) (A) (A) (A) (A) (A) (A) (A) (A) (A) (A) (A)
                 (A) (A) (A) (A)
       Virtual   (A) (A) (A) (A) (A) (A) (A) (A) (A) (A) (A) (A)
                 (A) (A) (A) (A) (A) (A) (A) (A) (A) (A) (A) (A)
                 (A) (A) (A) (A) (A) (A) (A) (A) (A) (A) (A) (A)
                 (A) (A) (A) (A) (A) (A) (A) (A) (A) (A) (A) (A)
                 (A) (A) (A) (A) (A) (A) (A) (A) (A) (A) (A) (A)
                 (A) (A) (A) (A) (A) (A) (A) (A) (A) (A) (A) (A)
                 (A) (A) (A) (A) (A) (A) (A) (A) (A) (A) (A) (A)
                 (A) (A) (A) (A) (A) (A) (A) (A) (A) (A) (A) (A)
                 (A) (A) (A) (A) (A) (A) (A) (A) (A) (A) (A) (A)
                 (A) (A) (A) (A) (A) (A) (A) (A) (A) (A) (A) (A)
                 (A) (A) (A) (A) (A) (A) (A) (A) (A) (A) (A) (A)
                 (A) (A) (A) (A) (A) (A) (A) (A) (A) (A) (A) (A)
                 (A) (A) (A) (A) (A) (A) (A) (A) (A) (A) (A) (A)
                 (A) (A) (A) (A) (A) (A) (A) (A) (A) (A) (A) (A)
                 (A) (A) (A) (A) (A) (A) (A) (A) (A) (A) (A) (A)
                 (A) (A) (A) (A) (A)
 The electronic state is 3-A.
 Alpha  occ. eigenvalues --  -19.18862 -14.37418 -14.34849 -10.23994 -10.18493
 Alpha  occ. eigenvalues --  -10.18194 -10.18137 -10.18026 -10.18011 -10.17932
 Alpha  occ. eigenvalues --  -10.17745  -1.11594  -0.96819  -0.84612  -0.76979
 Alpha  occ. eigenvalues --   -0.74254  -0.73814  -0.72443  -0.64848  -0.60549
 Alpha  occ. eigenvalues --   -0.59501  -0.53488  -0.52860  -0.48090  -0.46922
 Alpha  occ. eigenvalues --   -0.46182  -0.46011  -0.43648  -0.42281  -0.41496
 Alpha  occ. eigenvalues --   -0.39694  -0.39205  -0.38310  -0.36130  -0.35622
 Alpha  occ. eigenvalues --   -0.33480  -0.30873  -0.28031  -0.25715  -0.24675
 Alpha  occ. eigenvalues --   -0.21192  -0.13174
 Alpha virt. eigenvalues --    0.00363   0.02905   0.06717   0.09428   0.10882
 Alpha virt. eigenvalues --    0.12150   0.13147   0.15597   0.16180   0.17020
 Alpha virt. eigenvalues --    0.17139   0.17684   0.18786   0.20428   0.22625
 Alpha virt. eigenvalues --    0.23184   0.23618   0.27625   0.29776   0.31225
 Alpha virt. eigenvalues --    0.34461   0.36635   0.38758   0.48133   0.50824
 Alpha virt. eigenvalues --    0.52456   0.53825   0.54694   0.55757   0.56803
 Alpha virt. eigenvalues --    0.57485   0.59244   0.59554   0.60470   0.61701
 Alpha virt. eigenvalues --    0.62192   0.63254   0.64882   0.65302   0.66111
 Alpha virt. eigenvalues --    0.67474   0.67893   0.69314   0.71021   0.72245
 Alpha virt. eigenvalues --    0.73166   0.75210   0.78344   0.80270   0.81123
 Alpha virt. eigenvalues --    0.82414   0.83062   0.84241   0.85075   0.86060
 Alpha virt. eigenvalues --    0.87588   0.89007   0.89371   0.90232   0.90964
 Alpha virt. eigenvalues --    0.93538   0.94702   0.95867   0.96335   0.99534
 Alpha virt. eigenvalues --    1.00587   1.03599   1.05789   1.08048   1.10360
 Alpha virt. eigenvalues --    1.14732   1.16736   1.19550   1.21596   1.25837
 Alpha virt. eigenvalues --    1.27224   1.29229   1.31896   1.35321   1.36524
 Alpha virt. eigenvalues --    1.40320   1.41045   1.42539   1.42915   1.43519
 Alpha virt. eigenvalues --    1.43858   1.45470   1.46738   1.54332   1.57805
 Alpha virt. eigenvalues --    1.64098   1.71214   1.74216   1.78174   1.80160
 Alpha virt. eigenvalues --    1.81153   1.82768   1.84821   1.86578   1.86986
 Alpha virt. eigenvalues --    1.88291   1.91080   1.93690   1.97521   1.98353
 Alpha virt. eigenvalues --    1.99516   2.00919   2.03641   2.06196   2.07032
 Alpha virt. eigenvalues --    2.07641   2.08349   2.09775   2.14630   2.15776
 Alpha virt. eigenvalues --    2.17749   2.18776   2.20545   2.24431   2.27377
 Alpha virt. eigenvalues --    2.29912   2.31115   2.32195   2.34046   2.37869
 Alpha virt. eigenvalues --    2.38965   2.39302   2.41673   2.42483   2.44934
 Alpha virt. eigenvalues --    2.45970   2.47449   2.48444   2.49891   2.53037
 Alpha virt. eigenvalues --    2.56755   2.56909   2.57835   2.59506   2.60684
 Alpha virt. eigenvalues --    2.65360   2.65796   2.66587   2.67880   2.69931
 Alpha virt. eigenvalues --    2.71717   2.75578   2.77114   2.77432   2.83024
 Alpha virt. eigenvalues --    2.85239   2.88362   2.89017   2.97923   2.99515
 Alpha virt. eigenvalues --    3.05573   3.07064   3.16211   3.19912   3.24488
 Alpha virt. eigenvalues --    3.25188   3.26622   3.29624   3.34698   3.39174
 Alpha virt. eigenvalues --    3.42278   3.43809   3.46651   3.48975   3.50868
 Alpha virt. eigenvalues --    3.52626   3.67541   3.90900   3.98274   4.09994
 Alpha virt. eigenvalues --    4.14408   4.17498   4.21659   4.38914   4.44362
 Alpha virt. eigenvalues --    4.45032   4.61132   4.85443
  Beta  occ. eigenvalues --  -19.18483 -14.36916 -14.33270 -10.23014 -10.18636
  Beta  occ. eigenvalues --  -10.18305 -10.18249 -10.18076 -10.17797 -10.17704
  Beta  occ. eigenvalues --  -10.17485  -1.10638  -0.94777  -0.84345  -0.76113
  Beta  occ. eigenvalues --   -0.73580  -0.72090  -0.71256  -0.64108  -0.60013
  Beta  occ. eigenvalues --   -0.59366  -0.53151  -0.52056  -0.47345  -0.45992
  Beta  occ. eigenvalues --   -0.45698  -0.43805  -0.43467  -0.41893  -0.41416
  Beta  occ. eigenvalues --   -0.39016  -0.37866  -0.35664  -0.35033  -0.33925
  Beta  occ. eigenvalues --   -0.33402  -0.30382  -0.25705  -0.24481  -0.23779
  Beta virt. eigenvalues --   -0.05719  -0.03841   0.00938   0.05306   0.07514
  Beta virt. eigenvalues --    0.09787   0.11115   0.12497   0.13697   0.15614
  Beta virt. eigenvalues --    0.16579   0.17308   0.17772   0.17927   0.19687
  Beta virt. eigenvalues --    0.20545   0.22888   0.24333   0.25013   0.28232
  Beta virt. eigenvalues --    0.30124   0.31342   0.34633   0.37266   0.39159
  Beta virt. eigenvalues --    0.48460   0.51995   0.52741   0.54726   0.55834
  Beta virt. eigenvalues --    0.56365   0.57208   0.57814   0.59557   0.59839
  Beta virt. eigenvalues --    0.60640   0.61919   0.62381   0.64658   0.65521
  Beta virt. eigenvalues --    0.66166   0.66645   0.68058   0.68701   0.70892
  Beta virt. eigenvalues --    0.72691   0.73389   0.75154   0.76185   0.78687
  Beta virt. eigenvalues --    0.81281   0.81611   0.82582   0.83111   0.84586
  Beta virt. eigenvalues --    0.85498   0.86643   0.88765   0.89283   0.89977
  Beta virt. eigenvalues --    0.90754   0.92009   0.94100   0.95350   0.96275
  Beta virt. eigenvalues --    0.96820   1.00384   1.01482   1.03782   1.06214
  Beta virt. eigenvalues --    1.08602   1.10559   1.14987   1.17040   1.20149
  Beta virt. eigenvalues --    1.22646   1.26321   1.27747   1.30044   1.32387
  Beta virt. eigenvalues --    1.35816   1.38571   1.41257   1.41363   1.43078
  Beta virt. eigenvalues --    1.43213   1.43821   1.45058   1.46170   1.47291
  Beta virt. eigenvalues --    1.57428   1.58870   1.64702   1.71943   1.75035
  Beta virt. eigenvalues --    1.78520   1.81073   1.82058   1.83259   1.86367
  Beta virt. eigenvalues --    1.86939   1.88367   1.89589   1.91955   1.93730
  Beta virt. eigenvalues --    1.97882   1.98613   2.00249   2.01184   2.03959
  Beta virt. eigenvalues --    2.07171   2.07998   2.08259   2.08934   2.10262
  Beta virt. eigenvalues --    2.15069   2.16469   2.18165   2.19904   2.22693
  Beta virt. eigenvalues --    2.26304   2.28002   2.30309   2.31498   2.32716
  Beta virt. eigenvalues --    2.35661   2.37931   2.39090   2.39782   2.41864
  Beta virt. eigenvalues --    2.42864   2.45568   2.46603   2.48065   2.49120
  Beta virt. eigenvalues --    2.50443   2.53211   2.57635   2.57802   2.59407
  Beta virt. eigenvalues --    2.59866   2.60869   2.66185   2.66301   2.67239
  Beta virt. eigenvalues --    2.68305   2.70563   2.73406   2.75971   2.77759
  Beta virt. eigenvalues --    2.77915   2.83279   2.85507   2.89051   2.89830
  Beta virt. eigenvalues --    2.98516   2.99871   3.05783   3.07327   3.16616
  Beta virt. eigenvalues --    3.20131   3.24675   3.25343   3.26667   3.30236
  Beta virt. eigenvalues --    3.35651   3.39378   3.42588   3.43983   3.46742
  Beta virt. eigenvalues --    3.49808   3.51553   3.52695   3.69418   3.91032
  Beta virt. eigenvalues --    3.99756   4.10710   4.14634   4.17691   4.22361
  Beta virt. eigenvalues --    4.39443   4.44567   4.45224   4.61932   4.85800
          Condensed to atoms (all electrons):
               1          2          3          4          5          6
     1  C    4.927777   0.300263   0.370455  -0.031420  -0.035686  -0.024975
     2  O    0.300263   7.979259  -0.067309   0.002070   0.001909   0.003802
     3  C    0.370455  -0.067309   5.021884   0.371452   0.378541   0.361018
     4  H   -0.031420   0.002070   0.371452   0.593166  -0.040664  -0.024432
     5  H   -0.035686   0.001909   0.378541  -0.040664   0.590987  -0.023621
     6  H   -0.024975   0.003802   0.361018  -0.024432  -0.023621   0.587163
     7  C    0.426329  -0.058109  -0.072665  -0.003248  -0.003063   0.004751
     8  C   -0.056637  -0.003071   0.006877  -0.000077  -0.000027  -0.000155
     9  C   -0.052725   0.004274  -0.009765   0.002276   0.001781   0.000226
    10  C    0.005356   0.000883  -0.000158  -0.000001   0.000001   0.000002
    11  H   -0.015249   0.006503   0.000358  -0.000009  -0.000009  -0.000018
    12  C    0.005351  -0.000086  -0.000038   0.000101   0.000130  -0.000002
    13  H   -0.013347   0.000078   0.007333   0.000744   0.000817  -0.000113
    14  C    0.000573  -0.000016  -0.000002  -0.000005  -0.000006   0.000000
    15  H   -0.000177   0.000004   0.000002   0.000000   0.000000  -0.000000
    16  H   -0.000151   0.000000   0.000006  -0.000003  -0.000002  -0.000000
    17  H    0.000008   0.000000  -0.000000   0.000000   0.000000  -0.000000
    18  H   -0.044714   0.300417   0.005917   0.000088  -0.000324  -0.000285
    19  N    0.000609  -0.000176  -0.000017   0.000013   0.000000   0.000001
    20  H    0.000011  -0.000001  -0.000000  -0.000001   0.000000  -0.000000
    21  H    0.000331  -0.000013   0.000007   0.000012   0.000000  -0.000000
    22  N    0.000235  -0.000519  -0.000003   0.000000  -0.000000  -0.000000
    23  H   -0.000048   0.000033  -0.000000   0.000000  -0.000000  -0.000000
               7          8          9         10         11         12
     1  C    0.426329  -0.056637  -0.052725   0.005356  -0.015249   0.005351
     2  O   -0.058109  -0.003071   0.004274   0.000883   0.006503  -0.000086
     3  C   -0.072665   0.006877  -0.009765  -0.000158   0.000358  -0.000038
     4  H   -0.003248  -0.000077   0.002276  -0.000001  -0.000009   0.000101
     5  H   -0.003063  -0.000027   0.001781   0.000001  -0.000009   0.000130
     6  H    0.004751  -0.000155   0.000226   0.000002  -0.000018  -0.000002
     7  C    4.821647   0.462543   0.500145  -0.019275  -0.057418  -0.017547
     8  C    0.462543   5.005708  -0.055851   0.524387   0.358079  -0.042877
     9  C    0.500145  -0.055851   4.994891  -0.040103   0.006467   0.523694
    10  C   -0.019275   0.524387  -0.040103   4.837852  -0.032018  -0.030384
    11  H   -0.057418   0.358079   0.006467  -0.032018   0.660066   0.000275
    12  C   -0.017547  -0.042877   0.523694  -0.030384   0.000275   4.845887
    13  H   -0.040090   0.006097   0.367977   0.000326  -0.000160  -0.044464
    14  C   -0.033285  -0.046488  -0.047405   0.535042   0.004933   0.538373
    15  H    0.003592  -0.037884   0.000885   0.368099  -0.005770   0.004551
    16  H    0.003498   0.000868  -0.037081   0.004565   0.000018   0.368159
    17  H    0.000781   0.004988   0.004845  -0.041851  -0.000190  -0.042516
    18  H   -0.010314   0.003701   0.000120  -0.000100   0.005781   0.000003
    19  N   -0.000203   0.000041  -0.000017   0.000021  -0.000217   0.000000
    20  H    0.000002   0.000004   0.000000  -0.000001   0.000008  -0.000000
    21  H    0.000561   0.000060   0.000040   0.000009   0.000006  -0.000005
    22  N   -0.000185   0.001820  -0.000005  -0.000730   0.002231   0.000001
    23  H    0.000035   0.000124   0.000001   0.000050   0.000029  -0.000000
              13         14         15         16         17         18
     1  C   -0.013347   0.000573  -0.000177  -0.000151   0.000008  -0.044714
     2  O    0.000078  -0.000016   0.000004   0.000000   0.000000   0.300417
     3  C    0.007333  -0.000002   0.000002   0.000006  -0.000000   0.005917
     4  H    0.000744  -0.000005   0.000000  -0.000003   0.000000   0.000088
     5  H    0.000817  -0.000006   0.000000  -0.000002   0.000000  -0.000324
     6  H   -0.000113   0.000000  -0.000000  -0.000000  -0.000000  -0.000285
     7  C   -0.040090  -0.033285   0.003592   0.003498   0.000781  -0.010314
     8  C    0.006097  -0.046488  -0.037884   0.000868   0.004988   0.003701
     9  C    0.367977  -0.047405   0.000885  -0.037081   0.004845   0.000120
    10  C    0.000326   0.535042   0.368099   0.004565  -0.041851  -0.000100
    11  H   -0.000160   0.004933  -0.005770   0.000018  -0.000190   0.005781
    12  C   -0.044464   0.538373   0.004551   0.368159  -0.042516   0.000003
    13  H    0.629384   0.004882   0.000017  -0.005974  -0.000190  -0.000004
    14  C    0.004882   4.876733  -0.042105  -0.042133   0.370407  -0.000011
    15  H    0.000017  -0.042105   0.624849  -0.000186  -0.006025   0.000011
    16  H   -0.005974  -0.042133  -0.000186   0.623874  -0.006114   0.000000
    17  H   -0.000190   0.370407  -0.006025  -0.006114   0.631033  -0.000000
    18  H   -0.000004  -0.000011   0.000011   0.000000  -0.000000   0.388832
    19  N   -0.000000   0.000000   0.000000   0.000000  -0.000000   0.001502
    20  H    0.000000   0.000000   0.000000  -0.000000   0.000000   0.000041
    21  H    0.000001  -0.000002  -0.000000  -0.000000  -0.000000  -0.000217
    22  N    0.000000  -0.000003   0.000017  -0.000000   0.000000   0.004396
    23  H   -0.000000  -0.000000  -0.000000   0.000000  -0.000000  -0.000162
              19         20         21         22         23
     1  C    0.000609   0.000011   0.000331   0.000235  -0.000048
     2  O   -0.000176  -0.000001  -0.000013  -0.000519   0.000033
     3  C   -0.000017  -0.000000   0.000007  -0.000003  -0.000000
     4  H    0.000013  -0.000001   0.000012   0.000000   0.000000
     5  H    0.000000   0.000000   0.000000  -0.000000  -0.000000
     6  H    0.000001  -0.000000  -0.000000  -0.000000  -0.000000
     7  C   -0.000203   0.000002   0.000561  -0.000185   0.000035
     8  C    0.000041   0.000004   0.000060   0.001820   0.000124
     9  C   -0.000017   0.000000   0.000040  -0.000005   0.000001
    10  C    0.000021  -0.000001   0.000009  -0.000730   0.000050
    11  H   -0.000217   0.000008   0.000006   0.002231   0.000029
    12  C    0.000000  -0.000000  -0.000005   0.000001  -0.000000
    13  H   -0.000000   0.000000   0.000001   0.000000  -0.000000
    14  C    0.000000   0.000000  -0.000002  -0.000003  -0.000000
    15  H    0.000000   0.000000  -0.000000   0.000017  -0.000000
    16  H    0.000000  -0.000000  -0.000000  -0.000000   0.000000
    17  H   -0.000000   0.000000  -0.000000   0.000000  -0.000000
    18  H    0.001502   0.000041  -0.000217   0.004396  -0.000162
    19  N    6.576845   0.337395   0.350360   0.206656  -0.039808
    20  H    0.337395   0.449705  -0.035579  -0.032437  -0.008513
    21  H    0.350360  -0.035579   0.425698  -0.044933   0.006271
    22  N    0.206656  -0.032437  -0.044933   6.977511   0.292663
    23  H   -0.039808  -0.008513   0.006271   0.292663   0.484400
          Atomic-Atomic Spin Densities.
               1          2          3          4          5          6
     1  C    0.830564  -0.128300  -0.003357  -0.015951  -0.019984  -0.001656
     2  O   -0.128300   0.233073  -0.000765   0.001463   0.000446   0.000022
     3  C   -0.003357  -0.000765  -0.057002  -0.004982   0.010331   0.002543
     4  H   -0.015951   0.001463  -0.004982   0.066492  -0.014734  -0.000596
     5  H   -0.019984   0.000446   0.010331  -0.014734   0.047109  -0.000146
     6  H   -0.001656   0.000022   0.002543  -0.000596  -0.000146   0.000779
     7  C    0.038478  -0.005795  -0.001434  -0.001265  -0.000574   0.000008
     8  C   -0.018680   0.004149   0.000209  -0.000046   0.000261  -0.000001
     9  C   -0.017672   0.000421   0.000206   0.002400   0.001240  -0.000007
    10  C   -0.000157   0.000019   0.000013  -0.000000   0.000002  -0.000000
    11  H    0.000000   0.000819   0.000007  -0.000012   0.000010   0.000001
    12  C   -0.000137   0.000001  -0.000031   0.000055  -0.000016  -0.000000
    13  H   -0.000020   0.000002   0.000079  -0.000105   0.000115  -0.000002
    14  C    0.000321  -0.000004  -0.000001  -0.000006  -0.000006   0.000000
    15  H   -0.000006  -0.000000   0.000000   0.000000  -0.000000  -0.000000
    16  H   -0.000005   0.000000   0.000001  -0.000002   0.000001   0.000000
    17  H    0.000000  -0.000000  -0.000000   0.000000  -0.000000   0.000000
    18  H   -0.016864  -0.006458  -0.001104   0.000427  -0.000223  -0.000013
    19  N    0.000031   0.000136   0.000003  -0.000000   0.000000   0.000000
    20  H    0.000007  -0.000003   0.000000  -0.000001   0.000000  -0.000000
    21  H    0.000167  -0.000029   0.000001  -0.000021   0.000000  -0.000000
    22  N   -0.000109  -0.000099  -0.000000  -0.000002   0.000000  -0.000000
    23  H   -0.000039   0.000005  -0.000000   0.000000  -0.000000  -0.000000
               7          8          9         10         11         12
     1  C    0.038478  -0.018680  -0.017672  -0.000157   0.000000  -0.000137
     2  O   -0.005795   0.004149   0.000421   0.000019   0.000819   0.000001
     3  C   -0.001434   0.000209   0.000206   0.000013   0.000007  -0.000031
     4  H   -0.001265  -0.000046   0.002400  -0.000000  -0.000012   0.000055
     5  H   -0.000574   0.000261   0.001240   0.000002   0.000010  -0.000016
     6  H    0.000008  -0.000001  -0.000007  -0.000000   0.000001  -0.000000
     7  C   -0.102761  -0.025356  -0.024094  -0.000380   0.000444   0.000484
     8  C   -0.025356   0.212319   0.007701   0.009057   0.000635   0.001013
     9  C   -0.024094   0.007701   0.211063   0.000873   0.000030   0.007627
    10  C   -0.000380   0.009057   0.000873  -0.097056   0.000644   0.000020
    11  H    0.000444   0.000635   0.000030   0.000644  -0.010196  -0.000020
    12  C    0.000484   0.001013   0.007627   0.000020  -0.000020  -0.097071
    13  H    0.000457  -0.000023   0.001202  -0.000011   0.000002   0.000419
    14  C    0.002013  -0.010396  -0.010051  -0.007649   0.000043  -0.007677
    15  H    0.000019  -0.000441  -0.000006   0.000400   0.000001   0.000001
    16  H    0.000005  -0.000006  -0.000427  -0.000002  -0.000000   0.000431
    17  H   -0.000035   0.000027   0.000019   0.000080   0.000003   0.000036
    18  H    0.002440  -0.000244   0.000132  -0.000097  -0.001596   0.000002
    19  N   -0.000028   0.000136   0.000000   0.000000  -0.000083   0.000000
    20  H    0.000001  -0.000008  -0.000000  -0.000000   0.000004  -0.000000
    21  H   -0.000046  -0.000030  -0.000013  -0.000003   0.000009   0.000000
    22  N    0.000277  -0.002127   0.000011  -0.000039   0.001072  -0.000002
    23  H   -0.000000   0.000115   0.000001  -0.000010   0.000023   0.000000
              13         14         15         16         17         18
     1  C   -0.000020   0.000321  -0.000006  -0.000005   0.000000  -0.016864
     2  O    0.000002  -0.000004  -0.000000   0.000000  -0.000000  -0.006458
     3  C    0.000079  -0.000001   0.000000   0.000001  -0.000000  -0.001104
     4  H   -0.000105  -0.000006   0.000000  -0.000002   0.000000   0.000427
     5  H    0.000115  -0.000006  -0.000000   0.000001  -0.000000  -0.000223
     6  H   -0.000002   0.000000  -0.000000   0.000000   0.000000  -0.000013
     7  C    0.000457   0.002013   0.000019   0.000005  -0.000035   0.002440
     8  C   -0.000023  -0.010396  -0.000441  -0.000006   0.000027  -0.000244
     9  C    0.001202  -0.010051  -0.000006  -0.000427   0.000019   0.000132
    10  C   -0.000011  -0.007649   0.000400  -0.000002   0.000080  -0.000097
    11  H    0.000002   0.000043   0.000001  -0.000000   0.000003  -0.001596
    12  C    0.000419  -0.007677   0.000001   0.000431   0.000036   0.000002
    13  H   -0.010311   0.000019  -0.000000   0.000016   0.000003  -0.000000
    14  C    0.000019   0.235123  -0.000437  -0.000472   0.001344  -0.000008
    15  H   -0.000000  -0.000437   0.003726  -0.000001   0.000067   0.000002
    16  H    0.000016  -0.000472  -0.000001   0.003748   0.000064  -0.000000
    17  H    0.000003   0.001344   0.000067   0.000064  -0.011228   0.000000
    18  H   -0.000000  -0.000008   0.000002  -0.000000   0.000000   0.040099
    19  N   -0.000000  -0.000000   0.000000  -0.000000   0.000000  -0.001171
    20  H    0.000000   0.000000  -0.000000  -0.000000   0.000000   0.000007
    21  H    0.000000   0.000002  -0.000000  -0.000000   0.000000   0.000007
    22  N    0.000000   0.000009  -0.000005  -0.000000  -0.000000   0.000765
    23  H    0.000000  -0.000001  -0.000000  -0.000000   0.000000   0.000188
              19         20         21         22         23
     1  C    0.000031   0.000007   0.000167  -0.000109  -0.000039
     2  O    0.000136  -0.000003  -0.000029  -0.000099   0.000005
     3  C    0.000003   0.000000   0.000001  -0.000000  -0.000000
     4  H   -0.000000  -0.000001  -0.000021  -0.000002   0.000000
     5  H    0.000000   0.000000   0.000000   0.000000  -0.000000
     6  H    0.000000  -0.000000  -0.000000  -0.000000  -0.000000
     7  C   -0.000028   0.000001  -0.000046   0.000277  -0.000000
     8  C    0.000136  -0.000008  -0.000030  -0.002127   0.000115
     9  C    0.000000  -0.000000  -0.000013   0.000011   0.000001
    10  C    0.000000  -0.000000  -0.000003  -0.000039  -0.000010
    11  H   -0.000083   0.000004   0.000009   0.001072   0.000023
    12  C    0.000000  -0.000000   0.000000  -0.000002   0.000000
    13  H   -0.000000   0.000000   0.000000   0.000000   0.000000
    14  C   -0.000000   0.000000   0.000002   0.000009  -0.000001
    15  H    0.000000  -0.000000  -0.000000  -0.000005  -0.000000
    16  H   -0.000000  -0.000000  -0.000000  -0.000000  -0.000000
    17  H    0.000000   0.000000   0.000000  -0.000000   0.000000
    18  H   -0.001171   0.000007   0.000007   0.000765   0.000188
    19  N    0.337412  -0.001812  -0.001594  -0.132746   0.001315
    20  H   -0.001812   0.029387   0.002248  -0.012465   0.001062
    21  H   -0.001594   0.002248  -0.006090  -0.000815  -0.000137
    22  N   -0.132746  -0.012465  -0.000815   0.959782  -0.005651
    23  H    0.001315   0.001062  -0.000137  -0.005651  -0.018551
 Mulliken charges and spin densities:
               1          2
     1  C    0.237832   0.646632
     2  O   -0.470193   0.099103
     3  C   -0.373891  -0.055282
     4  H    0.129938   0.033116
     5  H    0.129236   0.023833
     6  H    0.116638   0.000932
     7  C    0.091518  -0.117143
     8  C   -0.132230   0.178261
     9  C   -0.164671   0.180654
    10  C   -0.111970  -0.094294
    11  H    0.066302  -0.008162
    12  C   -0.108606  -0.094864
    13  H    0.086686  -0.008159
    14  C   -0.119482   0.202168
    15  H    0.090122   0.003321
    16  H    0.090657   0.003352
    17  H    0.084824  -0.009620
    18  H    0.345324   0.016293
    19  N   -0.433004   0.201597
    20  H    0.289365   0.018426
    21  H    0.297393  -0.006343
    22  N   -0.406715   0.807856
    23  H    0.264926  -0.021680
 Sum of Mulliken charges =  -0.00000   2.00000
 Mulliken charges and spin densities with hydrogens summed into heavy atoms:
               1          2
     1  C    0.237832   0.646632
     2  O   -0.124869   0.115396
     3  C    0.001921   0.002599
     7  C    0.091518  -0.117143
     8  C   -0.065928   0.170100
     9  C   -0.077985   0.172495
    10  C   -0.021848  -0.090973
    12  C   -0.017949  -0.091512
    14  C   -0.034658   0.192549
    19  N    0.153754   0.213681
    22  N   -0.141789   0.786177
 Electronic spatial extent (au):  <R**2>=           2128.1818
 Charge=              0.0000 electrons
 Dipole moment (field-independent basis, Debye):
    X=              3.8029    Y=             -0.7249    Z=             -1.3579  Tot=              4.1026
 Quadrupole moment (field-independent basis, Debye-Ang):
   XX=            -53.5934   YY=            -63.3085   ZZ=            -59.8809
   XY=             -7.1589   XZ=             -0.9303   YZ=             -3.4325
 Traceless Quadrupole moment (field-independent basis, Debye-Ang):
   XX=              5.3342   YY=             -4.3809   ZZ=             -0.9533
   XY=             -7.1589   XZ=             -0.9303   YZ=             -3.4325
 Octapole moment (field-independent basis, Debye-Ang**2):
  XXX=             66.3340  YYY=             -0.5731  ZZZ=             -5.7664  XYY=             15.7616
  XXY=            -38.1886  XXZ=            -20.1079  XZZ=             24.8619  YZZ=             -9.7348
  YYZ=             -1.2678  XYZ=              5.2244
 Hexadecapole moment (field-independent basis, Debye-Ang**3):
 XXXX=          -1231.2635 YYYY=          -1017.5279 ZZZZ=           -310.2933 XXXY=           -124.2690
 XXXZ=            -22.0733 YYYX=            -37.4506 YYYZ=            -11.6504 ZZZX=            -15.3995
 ZZZY=              9.7469 XXYY=           -329.6175 XXZZ=           -237.0612 YYZZ=           -221.1667
 XXYZ=             22.9013 YYXZ=            -13.7582 ZZXY=            -33.3693
 N-N= 5.793316409809D+02 E-N=-2.314944329060D+03  KE= 4.923958429045D+02
                          Isotropic Fermi Contact Couplings
        Atom                 a.u.       MegaHertz       Gauss      10(-4) cm-1
     1  C(13)              0.07049      39.62142      14.13791      13.21628
     2  O(17)              0.06123     -18.55861      -6.62217      -6.19049
     3  C(13)             -0.01850     -10.40027      -3.71107      -3.46916
     4  H(1)               0.01553      34.70586      12.38391      11.57663
     5  H(1)               0.01220      27.26547       9.72900       9.09478
     6  H(1)               0.00036       0.81531       0.29092       0.27196
     7  C(13)             -0.02564     -14.41135      -5.14233      -4.80711
     8  C(13)              0.01999      11.23842       4.01015       3.74873
     9  C(13)              0.01933      10.86550       3.87708       3.62434
    10  C(13)             -0.01444      -8.11914      -2.89711      -2.70825
    11  H(1)              -0.00254      -5.66971      -2.02309      -1.89121
    12  C(13)             -0.01454      -8.17118      -2.91568      -2.72561
    13  H(1)              -0.00279      -6.24251      -2.22748      -2.08228
    14  C(13)              0.02180      12.25137       4.37159       4.08662
    15  H(1)               0.00107       2.38654       0.85158       0.79607
    16  H(1)               0.00107       2.38938       0.85259       0.79701
    17  H(1)              -0.00308      -6.88599      -2.45709      -2.29692
    18  H(1)               0.00969      21.65795       7.72809       7.22431
    19  N(14)              0.09622      15.54397       5.54647       5.18491
    20  H(1)               0.01694      37.84971      13.50572      12.62530
    21  H(1)              -0.00244      -5.45261      -1.94563      -1.81879
    22  N(14)              0.11501      18.58011       6.62984       6.19766
    23  H(1)              -0.00881     -19.69348      -7.02712      -6.56904
 --------------------------------------------------------
       Center         ----  Spin Dipole Couplings  ----
                      3XX-RR        3YY-RR        3ZZ-RR
 --------------------------------------------------------
     1   Atom       -0.034585     -0.124760      0.159345
     2   Atom       -0.032917     -0.276665      0.309582
[...]
 0.00015401,0.00014026,0.00008348,0.00719176,-0.01294862,-0.01996040,-0
 .04695509,-0.01698069,0.00906937,0.01720944,0.02365157,0.00983694,-0.0
 6566457,-0.15361341,-0.11069535,-0.00392548,0.00480885,-0.00061786,-0.
 02411635,-0.09301361,-0.03852316,-0.00554450,0.00370819,-0.00088726,0.
 23156842,0.33607067,0.00236401,-0.00072497,0.00054185,0.00060471,0.003
 40214,0.00252650,-0.00059091,0.00041330,0.00065396,-0.00017139,-0.0002
 1711,-0.00038034,-0.00035124,-0.00026680,0.00019542,0.00016309,0.00026
 662,-0.00001923,-0.00623107,-0.01926019,-0.03789989,-0.04692103,-0.016
 48765,0.03893554,0.06813658,0.03483198,-0.00985039,-0.01453375,-0.0733
 2724,-0.19015881,0.00376130,0.00019077,0.00146352,0.05040657,-0.074004
 01,-0.26045506,0.00117098,-0.00110829,0.00281882,-0.12355472,0.1458571
 5,0.55159258,0.00054664,0.00085646,0.00115763,-0.00006237,-0.00022845,
 -0.00006716,-0.00040540,-0.00014223,-0.00022383,0.00001520,-0.00001380
 ,0.00002210,0.00002751,0.00002301,0.00000269,-0.00009888,0.00003329,0.
 00011854,-0.00247623,-0.00597266,0.00139028,-0.00609546,0.00653689,0.0
 2560861,-0.00071313,-0.00032286,-0.00025572,-0.09550141,0.01088411,0.0
 9909674,-0.00043118,0.00203218,-0.00115530,0.00056509,-0.00430734,-0.0
 0107931,-0.00016977,0.00055464,-0.00014026,0.01001926,-0.00226870,-0.0
 1392689,0.09457681,-0.00029441,0.00069728,0.00049430,-0.00003576,0.000
 00466,-0.00004398,-0.00001903,-0.00032098,0.00022805,-0.00008184,0.000
 00855,0.00006502,0.00003315,-0.00001024,-0.00002687,-0.00000857,-0.000
 03274,0.00001029,-0.00494090,0.00384927,-0.00189605,-0.00568784,0.0052
 5878,0.01325217,-0.00031922,-0.00056483,0.00000823,0.01254192,-0.05533
 183,-0.05520457,0.00216260,-0.00251541,0.00147451,-0.00507719,0.001603
 92,-0.00328069,0.00054504,-0.00059754,0.00037071,0.00876706,-0.0002332
 1,-0.01797806,-0.00942420,0.05002934,-0.00006740,-0.00089403,-0.000526
 90,0.00027304,0.00060774,0.00040223,-0.00004442,0.00030825,-0.00004362
 ,0.00009793,-0.00001614,-0.00015302,-0.00002625,-0.00001521,-0.0000009
 4,0.00006098,0.00000936,-0.00004144,0.00183054,-0.00127569,0.00285304,
 0.00150893,-0.00228618,-0.00436443,-0.00040913,0.00020904,0.00055313,0
 .09931471,-0.05595604,-0.28169630,-0.00083239,0.00174992,0.00016006,-0
 .00195195,-0.00407418,0.00031006,-0.00010105,0.00035565,-0.00026586,0.
 00993376,-0.00143742,-0.01289639,-0.10936773,0.06190148,0.29651225,0.0
 0066733,-0.00067849,-0.00101915,-0.00081769,-0.00045857,-0.00015887,-0
 .00002616,-0.00007327,-0.00003213,-0.00003559,-0.00000176,0.00005014,0
 .00003567,0.00000310,0.00000528,-0.00005932,-0.00001056,0.00003214,-0.
 00186436,-0.00397860,0.00428085,-0.00061907,0.00014129,0.00066100,-0.0
 0884334,-0.01699378,-0.01923675,0.00082877,-0.00156026,0.00369627,-0.0
 0016509,0.00039471,-0.00033047,-0.11438895,-0.08810333,-0.07687419,-0.
 00052537,0.00217895,-0.00086745,0.00960370,0.00876561,0.00880667,0.000
 44876,0.00041614,0.00054731,0.11607730,0.00026069,0.00054775,-0.000741
 46,-0.00010742,-0.00077246,0.00000776,0.00002043,-0.00005465,-0.000038
 55,-0.00002904,-0.00001091,0.00006281,-0.00000570,0.00000357,-0.000011
 23,-0.00003667,0.00001671,0.00003108,-0.00473717,0.00477976,-0.0003036
 9,0.00026012,-0.00008202,0.00037939,-0.00474830,-0.00469446,-0.0090597
 0,-0.00086221,0.00460514,-0.00246294,0.00036249,-0.00069409,0.00025700
 ,-0.08839895,-0.15113677,-0.11482136,0.00204680,-0.00240896,0.00177703
 ,-0.00371164,-0.00077259,-0.00270199,-0.00029141,-0.00008536,-0.000205
 14,0.09833197,0.15244962,0.00008944,0.00021250,0.00067670,-0.00013129,
 -0.00011373,-0.00041057,0.00000880,-0.00006653,-0.00001725,-0.00003035
 ,0.00001752,0.00007344,0.00002295,0.00000499,0.00001188,-0.00003950,-0
 .00001129,0.00000935,0.00368845,-0.00106357,0.00129987,0.00052087,0.00
 048348,-0.00009054,0.00535104,0.00617613,0.00847141,0.00466531,-0.0018
 8613,-0.00299147,-0.00036052,0.00028340,-0.00008191,-0.07714859,-0.115
 37737,-0.16743843,-0.00124501,0.00163421,0.00013597,-0.01554753,-0.017
 53035,-0.01218095,-0.00075383,-0.00099248,-0.00083238,0.08155117,0.126
 59250,0.17303129,0.00013115,0.00048702,-0.00014104,-0.00023664,-0.0003
 4706,-0.00009174,-0.00002404,-0.00003181,-0.00000059,-0.00001537,-0.00
 000276,0.00005877,0.00000434,-0.00002459,0.00000198,-0.00002418,0.0000
 0461,0.00001679,0.00017754,0.00046876,-0.00034483,0.00172427,-0.003287
 26,-0.00142782,0.00229947,-0.00068509,0.00301805,-0.00880649,-0.003485
 73,0.00580276,-0.00037083,-0.00043354,0.00041648,-0.00716467,-0.005346
 47,0.00019049,-0.00038403,-0.00051747,0.00014348,-0.26582638,-0.112733
 69,0.07059419,-0.00026988,0.00152735,-0.00097389,-0.00024647,0.0017505
 4,-0.00060394,0.27906932,0.00026046,-0.00030084,0.00028277,-0.00003628
 ,-0.00002029,0.00009048,-0.00003964,-0.00006137,-0.00003837,-0.0000280
 9,0.00000472,0.00001125,0.00003615,0.00002187,-0.00000306,-0.00004103,
 -0.00001759,0.00001698,0.00057076,-0.00047602,-0.00009893,-0.00260440,
 0.00184873,-0.00489817,-0.00155791,0.00330918,-0.00309803,-0.01617386,
 -0.00503313,0.00762536,-0.00111607,0.00001323,0.00021284,0.00745105,0.
 00505336,-0.00213520,0.00015683,0.00050265,-0.00028424,-0.11265365,-0.
 08934141,0.02157079,0.00186603,-0.00179589,0.00112692,0.00141255,-0.00
 181947,0.00154490,0.12253225,0.08797788,-0.00016946,0.00014514,-0.0000
 4752,0.00003322,0.00015045,0.00018197,0.00005102,-0.00002495,0.0000442
 8,0.00000062,-0.00001242,-0.00000571,-0.00005564,0.00004184,0.00001778
 ,0.00002517,0.00005148,0.00000855,-0.00036970,-0.00026645,-0.00087903,
 -0.00054485,-0.00407782,-0.00164768,0.00209714,-0.00357377,-0.00361626
 ,-0.01864405,-0.00792982,0.00901017,-0.00078000,-0.00061036,0.00037787
 ,0.02451643,0.01342600,-0.00246622,0.00137731,0.00046862,-0.00026910,0
 .07072308,0.02135732,-0.07439043,-0.00045929,0.00159600,0.00023682,-0.
 00119014,0.00119004,0.00026083,-0.07665817,-0.02190198,0.07324900,0.01
 963768,-0.00467524,-0.00267381,-0.21478981,0.13146996,0.08311132,-0.00
 149244,-0.00372667,-0.00257728,0.00005940,-0.00013520,-0.00016221,0.00
 062475,-0.00065402,-0.00127423,-0.00000215,0.00012963,0.00021999,0.002
 71809,-0.00154847,-0.00352517,-0.00140882,0.00048625,0.00037927,-0.002
 42459,-0.00126682,-0.00005279,-0.00068133,0.00023402,-0.00013092,0.000
 27723,-0.00171343,0.00160338,0.00160646,0.00039199,-0.00131322,0.00015
 148,-0.00002345,-0.00000906,-0.00107657,-0.00007199,0.00145794,-0.0000
 6012,-0.00000807,0.00013265,-0.00010422,-0.00011210,-0.00006438,-0.000
 00016,-0.00000597,0.00009461,0.19673428,0.00782733,-0.03016403,-0.0224
 3900,0.10946882,-0.12430850,-0.06769180,-0.00054638,0.00147573,0.00147
 571,0.00000448,-0.00011872,0.00039009,-0.00003092,0.00069318,0.0006844
 2,0.00026077,-0.00017880,-0.00016356,0.00022560,0.00117671,0.00211280,
 0.00025343,-0.00157246,-0.00035558,0.00099564,0.00078487,-0.00111413,-
 0.00035494,-0.00016933,0.00038380,-0.00154661,-0.00022324,0.00187795,0
 .00001685,0.00023554,0.00033245,-0.00007012,0.00003292,0.00021535,0.00
 104938,0.00064812,-0.00002352,0.00018823,0.00003448,-0.00028259,0.0002
 8915,0.00016727,0.00010377,0.00017972,0.00010402,0.00000394,-0.1013905
 1,0.14833333,0.00900280,-0.02103019,-0.02105955,0.06857430,-0.06531513
 ,-0.05328353,-0.00089273,-0.00510968,0.00070088,-0.00015488,0.00051967
 ,0.00024302,0.00052817,-0.00026432,-0.00105828,0.00000522,0.00014333,0
 .00007642,-0.00246056,0.00092561,0.00219486,0.00137980,0.00036758,0.00
 056363,0.00131230,0.00126127,-0.00028437,-0.00031040,-0.00059227,-0.00
 019619,0.00098489,0.00151285,-0.00176614,-0.00107693,-0.00031731,0.000
 74966,-0.00002888,0.00003542,0.00010162,0.00110512,0.00043147,-0.00077
 335,0.00008745,-0.00003897,-0.00011155,0.00011140,0.00006481,0.0001066
 2,0.00002050,-0.00001623,-0.00008141,-0.06939644,0.08060805,0.08083315
 ,-0.00124105,-0.00136201,-0.00107078,-0.00224854,0.00532725,0.00308865
 ,0.00011828,0.00030877,0.00014583,-0.00000607,0.00001227,0.00003812,-0
 .00002970,0.00006073,0.00012897,0.00003210,-0.00002584,-0.00002677,-0.
 00025138,0.00024073,-0.00006732,0.00033808,0.00114506,-0.00000509,0.00
 012853,-0.00001112,-0.00006847,-0.00037829,-0.00018908,-0.00002097,-0.
 00038249,-0.00047726,-0.00008604,0.00011747,0.00003578,0.00003356,-0.0
 0002263,0.00002146,0.00002459,0.00013848,0.00025016,0.00015414,-0.0000
 1106,0.00001609,-0.00004340,0.00002647,0.00002906,0.00001597,0.0000328
 2,0.00002018,0.00000504,0.00203566,-0.00757587,-0.00383803,0.73095857,
 0.00142725,0.00100704,0.00048275,0.00290812,-0.00575716,-0.00334783,-0
 .00023882,-0.00025867,-0.00013303,0.00005399,-0.00003485,-0.00015733,0
 .00004346,-0.00011449,-0.00017601,0.00001533,0.00001629,0.00002162,-0.
 00047921,0.00013260,0.00087314,0.00128374,-0.00668071,0.00097300,-0.00
 041757,-0.00018180,0.00001859,0.00225063,0.00042168,-0.00001748,-0.000
 34961,0.00006146,-0.00046303,-0.00006924,-0.00008327,-0.00015405,0.000
 02439,-0.00000882,-0.00006250,-0.00028672,0.00010154,-0.00042570,-0.00
 010175,0.00003748,0.00011019,-0.00003723,-0.00005588,-0.00003205,-0.00
 006654,-0.00006436,-0.00000898,-0.00232392,0.00875428,0.00530525,-0.00
 425678,0.78852735,-0.00049209,-0.00072237,-0.00045357,-0.00020000,0.00
 045612,0.00001230,0.00003098,0.00001546,0.00003324,-0.00001587,0.00001
 086,0.00004905,-0.00000820,0.00001582,0.00002670,0.00000282,0.00000340
 ,0.00000362,0.00009854,0.00011729,-0.00006317,-0.00026064,0.00000994,0
 .00034812,0.00014726,0.00006387,0.00006913,0.00019740,0.00030651,0.000
 24739,0.00006677,0.00007819,0.00024900,-0.00014457,0.00000241,0.000137
 73,-0.00000497,0.00001329,0.00001581,-0.00008994,-0.00007893,-0.000286
 82,0.00001756,-0.00011283,0.00005406,0.00000922,0.00001057,0.00001347,
 0.00001995,0.00000242,0.00000195,0.00214932,-0.00046353,0.00067579,-0.
 02909892,0.13216744,0.09649685,-0.00064871,-0.00070761,-0.00050067,-0.
 00090061,0.00242899,0.00139905,0.00006554,0.00016286,0.00009145,0.0000
 0774,0.00000527,-0.00000686,-0.00001594,0.00002283,0.00005617,0.000034
 25,-0.00001297,-0.00002514,-0.00024618,-0.00007048,0.00027857,0.000159
 25,-0.00069512,0.00002144,0.00013427,0.00009737,0.00003211,0.00027925,
 -0.00003855,0.00002750,-0.00013796,0.00003590,-0.00006867,-0.00013184,
 -0.00003423,0.00005132,-0.00000254,-0.00000219,-0.00001027,0.00009870,
 0.00003674,-0.00009324,-0.00000420,0.00001504,-0.00000782,0.00000213,-
 0.00000556,-0.00000367,-0.00001176,-0.00001256,-0.00000305,0.00175911,
 -0.00320309,-0.00152663,-0.19713126,0.15345583,0.07959514,0.21547661,-
 0.00021263,-0.00036375,-0.00022945,-0.00057094,0.00110521,0.00075118,0
 .00002664,0.00009344,0.00003774,0.00000768,0.00000007,-0.00001800,-0.0
 0000994,0.00001469,0.00002639,0.00002151,-0.00000674,-0.00001846,-0.00
 023336,-0.00005697,0.00040988,0.00014401,-0.00097645,-0.00007125,0.000
 02959,0.00006339,0.00004014,0.00042071,0.00004959,0.00001597,-0.000061
 30,0.00002833,-0.00001339,-0.00010223,-0.00002710,0.00000137,0.0000026
 3,-0.00000136,-0.00001230,0.00009223,0.00003581,-0.00007876,-0.0000143
 3,0.00001052,0.00000748,-0.00000209,-0.00000849,-0.00000557,-0.0000138
 2,-0.00001354,0.00000052,0.00100133,-0.00118947,-0.00103523,0.15154965
 ,-0.25481851,-0.10138607,-0.16606110,0.25303563,-0.00025521,-0.0001901
 9,-0.00012948,-0.00027387,0.00075966,0.00007370,0.00002333,-0.00000349
 ,0.00003858,0.00000142,0.00000736,0.00000412,0.00000064,0.00000192,0.0
 0000562,0.00000881,-0.00000155,-0.00000320,0.00000757,0.00000747,-0.00
 001095,0.00002859,0.00006111,0.00008334,0.00003653,0.00000299,-0.00000
 831,-0.00000109,0.00004092,-0.00004415,-0.00008231,0.00014242,-0.00007
 009,-0.00000498,0.00000395,0.00000567,-0.00000125,-0.00000693,-0.00000
 668,-0.00000808,-0.00001064,-0.00000467,0.00000427,0.00000421,-0.00000
 243,-0.00000156,-0.00000134,-0.00000309,-0.00000568,-0.00000443,-0.000
 00464,0.00001795,-0.00071710,0.00060360,0.09657244,-0.12805038,-0.0627
 2320,-0.08488612,0.11022229,0.06079007,-0.00037523,-0.00004814,0.00029
 636,0.00044403,0.00022291,0.00008230,-0.00001682,0.00008272,0.00004346
 ,0.00003863,-0.00001333,-0.00010013,-0.00000989,-0.00003378,-0.0000235
 4,0.00005968,-0.00000134,-0.00003152,-0.00049677,-0.00004554,0.0006174
 2,0.00034795,-0.00122335,0.00025884,0.00023339,0.00021291,0.00015026,0
 .00107698,0.00111693,0.00016053,-0.00101557,0.00068828,-0.00100832,-0.
 00064272,-0.00021083,0.00030161,-0.00000077,-0.00002101,-0.00008350,-0
 .00037479,-0.00059147,-0.00116210,0.00005004,-0.00014711,0.00019952,-0
 .00003517,-0.00005584,-0.00000941,-0.00006829,-0.00004781,-0.00002148,
 -0.00052423,-0.00023903,-0.00002311,-0.09861538,-0.09756498,0.00781797
 ,0.01102654,0.02175625,-0.00234083,0.11455408,0.00044528,0.00133814,0.
 00104352,0.00003269,-0.00265283,-0.00162121,0.00005275,-0.00031925,-0.
 00014652,-0.00011551,0.00002698,0.00025664,0.00001493,0.00004768,0.000
 01006,-0.00015073,0.00002655,0.00007528,0.00162004,-0.00045938,-0.0017
 2342,0.00047115,0.00337923,-0.00023696,-0.00006875,0.00002615,-0.00003
 885,-0.00273650,-0.00191551,0.00064421,0.00097120,-0.00072389,0.000622
 01,0.00039095,0.00008475,-0.00000860,-0.00002954,0.00002557,0.00013648
 ,-0.00037121,-0.00022888,0.00024783,0.00012689,-0.00003782,-0.00007287
 ,0.00003878,0.00011999,0.00008532,0.00015980,0.00015551,0.00003191,-0.
 00151065,0.00212676,0.00083200,-0.10643537,-0.40351412,-0.00395698,-0.
 00918400,-0.01096462,0.00611035,0.11852197,0.40721920,0.00068832,0.000
 31666,0.00009181,0.00056568,-0.00100365,-0.00027146,-0.00007086,-0.000
 02663,-0.00001096,0.00002312,-0.00000750,-0.00006886,0.00001302,-0.000
 02241,-0.00003942,0.00000547,-0.00000036,-0.00000321,-0.00021857,-0.00
 036498,0.00013474,0.00030594,0.00029729,0.00002897,-0.00036327,-0.0001
 4261,-0.00022462,-0.00029271,-0.00015813,-0.00051467,-0.00076674,0.000
 28205,-0.00056358,0.00025136,-0.00003966,-0.00028640,0.00000315,-0.000
 00249,-0.00002564,0.00021118,0.00019231,0.00043541,-0.00003692,0.00015
 829,-0.00015570,-0.00000665,-0.00000984,-0.00002512,-0.00003464,-0.000
 02732,-0.00000669,-0.00096234,0.00164991,-0.00013903,0.01669682,0.0270
 6864,-0.01068804,-0.00541032,-0.01305706,-0.00272129,-0.00300562,-0.00
 377919,0.01608854,-0.00338673,-0.00177656,-0.00089835,-0.00489368,0.01
 666226,0.00720400,0.00041179,0.00070845,0.00046930,-0.00000982,0.00006
 088,0.00003566,-0.00007569,0.00012132,0.00029267,0.00011622,-0.0000592
 0,-0.00013070,-0.00068209,-0.00005149,0.00038282,-0.00003383,0.0000842
 1,0.00042562,0.00054618,0.00041007,0.00004091,-0.00016747,-0.00005893,
 -0.00035330,-0.00004250,0.00074643,-0.00049205,-0.00034785,-0.00009333
 ,0.00031639,-0.00002284,-0.00002404,-0.00001186,0.00016847,-0.00007070
 ,-0.00024003,0.00004503,-0.00000322,-0.00002044,0.00001586,0.00001281,
 0.00000941,-0.00002597,-0.00000301,-0.00004126,-0.01141341,-0.00259363
 ,-0.00063284,-0.41010221,-0.00165289,-0.05081888,-0.03189537,-0.005969
 19,-0.00962312,-0.01813488,-0.00302435,-0.00439358,0.53527122,0.002313
 10,0.00433630,0.00297173,0.01692475,-0.01407811,-0.00867391,-0.0003744
 4,-0.00054334,-0.00060006,0.00004278,-0.00006567,-0.00015180,0.0000246
 0,-0.00019304,-0.00031127,-0.00013595,0.00005195,0.00012281,0.00068504
 ,0.00063310,-0.00052971,-0.00080392,-0.00171129,0.00198132,-0.00031541
 ,-0.00033622,-0.00008442,0.00057947,0.00010200,-0.00037217,-0.00027238
 ,-0.00172688,-0.00048068,0.00010602,0.00002494,-0.00002341,0.00001724,
 -0.00000558,-0.00007107,-0.00056528,-0.00028230,-0.00007173,-0.0000083
 3,0.00000448,0.00008478,-0.00005146,-0.00006642,-0.00004397,-0.0000952
 6,-0.00003472,-0.00004076,-0.00991469,-0.00868916,-0.00013787,-0.05109
 240,-0.12405780,-0.02983414,0.02306708,0.01127220,0.01099544,-0.041633
 67,0.00412847,-0.00971799,0.08250538,0.53723984,0.00211821,0.00379344,
 0.00320137,0.00782212,-0.01182705,-0.00074695,-0.00022016,-0.00000616,
 -0.00047728,0.00001416,-0.00007882,-0.00008414,0.00000050,-0.00007572,
 -0.00011891,-0.00010052,0.00002111,0.00005179,0.00058437,0.00040031,-0
 .00024417,-0.00052085,0.00005770,-0.00031083,-0.00039579,-0.00028173,0
 .00006492,0.00009550,0.00024775,0.00020874,0.00020011,0.00021471,0.000
 18314,0.00024869,0.00007152,-0.00017298,0.00002650,0.00001490,0.000005
 08,-0.00019859,-0.00011464,0.00011900,-0.00003553,-0.00000751,0.000020
 95,-0.00003259,-0.00001703,-0.00001751,-0.00000158,0.00001560,0.000025
 87,-0.00610525,0.00380798,-0.00813649,-0.08239842,-0.02234109,-0.02153
 589,0.01150140,0.00144504,0.00724340,-0.00157722,0.00042401,-0.0073765
 8,0.07602068,0.08976214,0.04937998,-0.00066345,-0.00146972,-0.00122229
 ,-0.00451159,0.00427077,0.00283293,0.00011099,0.00015624,0.00017963,-0
 .00001669,0.00001894,0.00006841,-0.00001238,0.00006646,0.00010145,0.00
 002425,-0.00001581,-0.00001843,-0.00019030,-0.00012227,0.00022019,0.00
 015201,0.00029373,-0.00056730,0.00006551,0.00006152,-0.00001097,-0.000
 21467,-0.00017473,0.00009982,0.00007407,-0.00014285,0.00039891,0.00004
 167,0.00002790,-0.00003773,-0.00000749,0.00000914,0.00003331,0.0002460
 7,0.00018093,0.00015621,0.00000474,0.00002298,-0.00005349,0.00002480,0
 .00002710,0.00001461,0.00003625,0.00001400,0.00001346,0.00837372,-0.00
 320827,-0.00277049,-0.02350640,-0.05361747,-0.00901884,0.00208298,-0.0
 0180128,0.00078257,-0.00752083,0.00078020,-0.00320183,-0.05534044,-0.0
 2100226,-0.00704575,0.08074720,0.00067819,0.00126245,0.00102021,0.0022
 3066,-0.00304646,-0.00190673,-0.00011490,-0.00017016,-0.00014267,0.000
 01522,-0.00001854,-0.00005990,0.00001472,-0.00005841,-0.00010248,-0.00
 002086,0.00001719,0.00002420,0.00013877,0.00010168,-0.00018001,-0.0001
 5557,-0.00007314,0.00052655,-0.00006158,-0.00005301,0.00000314,0.00024
 092,0.00010885,-0.00012073,-0.00011088,0.00008684,-0.00037194,-0.00003
 946,-0.00002154,0.00002894,0.00000892,-0.00001148,-0.00003246,-0.00020
 153,-0.00016359,-0.00010455,-0.00000569,-0.00001291,0.00004467,-0.0000
 2286,-0.00002729,-0.00001567,-0.00003893,-0.00001253,-0.00001593,-0.00
 463198,0.00204649,0.00184987,0.01240854,-0.00342929,0.00328127,0.00069
 955,0.00271811,0.00062596,-0.00072475,0.00211131,-0.00160530,-0.085931
 26,-0.40600276,-0.06552646,0.07562476,0.40464818,-0.00007462,0.0001334
 0,-0.00001794,0.00069326,-0.00015469,-0.00018905,0.00000412,-0.0000382
 4,0.00002588,-0.00000351,0.00000662,0.00000056,0.00000147,-0.00000105,
 -0.00000448,-0.00000069,0.00000316,-0.00000159,0.00002020,0.00000052,0
 .00001496,-0.00013269,0.00020026,-0.00016332,0.00000961,0.00000594,-0.
 00000403,0.00004728,-0.00006824,0.00004852,0.00007327,-0.00009086,0.00
 008986,-0.00000465,0.00000130,0.00001194,-0.00000050,0.00000288,-0.000
 00064,0.00002045,-0.00001941,0.00001373,-0.00000410,0.00001878,-0.0000
 1161,-0.00000152,0.00000127,-0.00000162,0.00000049,0.00000566,-0.00000
 040,-0.00091932,-0.00039542,0.00004065,-0.00017992,-0.01165116,-0.0026
 8351,-0.00051169,0.00296756,-0.00311593,-0.00054149,0.00106497,0.00634
 182,-0.01754107,-0.05477325,-0.02128253,0.01904564,0.06278002,0.020888
 74\\-0.00000404,-0.00001481,0.00000009,0.00003060,0.00002067,0.0000057
 8,-0.00000746,-0.00000323,-0.00000452,0.00000456,0.00000687,-0.0000009
 5,-0.00000190,0.00000333,-0.00000289,0.00000029,0.00000217,0.00000022,
 0.00000832,0.00000777,0.00001100,0.00001075,-0.00000580,-0.00000267,-0
 .00000603,-0.00000248,0.00000198,-0.00000166,0.00000094,-0.00000038,-0
 .00000819,-0.00000142,0.00000122,0.00000435,0.00000027,-0.00000090,0.0
 0000082,0.00000229,-0.00000216,0.00000080,-0.00000121,0.00000413,0.000
 00331,-0.00000136,0.00000143,0.00000117,-0.00000019,0.00000003,0.00000
 287,-0.00000191,0.00000226,-0.00005766,-0.00003518,-0.00002638,0.00000
 819,-0.00000951,-0.00002172,-0.00000616,-0.00001150,0.00001009,-0.0000
 1055,-0.00000072,0.00000811,0.00002551,0.00004790,0.00000700,0.0000021
 2,-0.00000289,0.00000925\\\@


 BE CAREFUL NOT TO BECOME TOO GOOD OF A SONGBIRD OR 
 THEY'LL THROW YOU INTO A CAGE.

                                    -- SNOOPY TO WOODSTOCK
 Job cpu time:       0 days  1 hours  7 minutes 58.9 seconds.
 Elapsed time:       0 days  0 hours  2 minutes  9.3 seconds.
 File lengths (MBytes):  RWF=    295 Int=      0 D2E=      0 Chk=     15 Scr=      1
 Normal termination of Gaussian 16 at Fri May 17 16:27:02 2019.
