 Entering Gaussian System, Link 0=g16
 Initial command:
 /opt/software/gaussian/g16.b01/l1.exe "/localscratch/rzk.14592379.0/Gau-10059.inp" -scrdir="/localscratch/rzk.14592379.0/"
 Entering Link 1 = /opt/software/gaussian/g16.b01/l1.exe PID=     10064.
  
 Copyright (c) 1988-2017, Gaussian, Inc.  All Rights Reserved.
  
 This is part of the Gaussian(R) 16 program.  It is based on
 the Gaussian(R) 09 system (copyright 2009, Gaussian, Inc.),
 the Gaussian(R) 03 system (copyright 2003, Gaussian, Inc.),
 the Gaussian(R) 98 system (copyright 1998, Gaussian, Inc.),
 the Gaussian(R) 94 system (copyright 1995, Gaussian, Inc.),
 the Gaussian 92(TM) system (copyright 1992, Gaussian, Inc.),
 the Gaussian 90(TM) system (copyright 1990, Gaussian, Inc.),
 the Gaussian 88(TM) system (copyright 1988, Gaussian, Inc.),
 the Gaussian 86(TM) system (copyright 1986, Carnegie Mellon
 University), and the Gaussian 82(TM) system (copyright 1983,
 Carnegie Mellon University). Gaussian is a federally registered
 trademark of Gaussian, Inc.
  
 This software contains proprietary and confidential information,
 including trade secrets, belonging to Gaussian, Inc.
  
 This software is provided under written license and may be
 used, copied, transmitted, or stored only in accord with that
 written license.
  
 The following legend is applicable only to US Government
 contracts under FAR:
  
                    RESTRICTED RIGHTS LEGEND
  
 Use, reproduction and disclosure by the US Government is
 subject to restrictions as set forth in subparagraphs (a)
 and (c) of the Commercial Computer Software - Restricted
 Rights clause in FAR 52.227-19.
  
 Gaussian, Inc.
 340 Quinnipiac St., Bldg. 40, Wallingford CT 06492
  
  
 ---------------------------------------------------------------
 Warning -- This program may not be used in any manner that
 competes with the business of Gaussian, Inc. or will provide
 assistance to any competitor of Gaussian, Inc.  The licensee
 of this program is prohibited from giving any competitor of
 Gaussian, Inc. access to this program.  By using this program,
 the user acknowledges that Gaussian, Inc. is engaged in the
 business of creating and licensing software in the field of
 computational chemistry and represents and warrants to the
 licensee that it is not a competitor of Gaussian, Inc. and that
 it will not use this program in any manner prohibited above.
 ---------------------------------------------------------------
  

 Cite this work as:
 Gaussian 16, Revision B.01,
 M. J. Frisch, G. W. Trucks, H. B. Schlegel, G. E. Scuseria, 
 M. A. Robb, J. R. Cheeseman, G. Scalmani, V. Barone, 
 G. A. Petersson, H. Nakatsuji, X. Li, M. Caricato, A. V. Marenich, 
 J. Bloino, B. G. Janesko, R. Gomperts, B. Mennucci, H. P. Hratchian, 
 J. V. Ortiz, A. F. Izmaylov, J. L. Sonnenberg, D. Williams-Young, 
 F. Ding, F. Lipparini, F. Egidi, J. Goings, B. Peng, A. Petrone, 
 T. Henderson, D. Ranasinghe, V. G. Zakrzewski, J. Gao, N. Rega, 
 G. Zheng, W. Liang, M. Hada, M. Ehara, K. Toyota, R. Fukuda, 
 J. Hasegawa, M. Ishida, T. Nakajima, Y. Honda, O. Kitao, H. Nakai, 
 T. Vreven, K. Throssell, J. A. Montgomery, Jr., J. E. Peralta, 
 F. Ogliaro, M. J. Bearpark, J. J. Heyd, E. N. Brothers, K. N. Kudin, 
 V. N. Staroverov, T. A. Keith, R. Kobayashi, J. Normand, 
 K. Raghavachari, A. P. Rendell, J. C. Burant, S. S. Iyengar, 
 J. Tomasi, M. Cossi, J. M. Millam, M. Klene, C. Adamo, R. Cammi, 
 J. W. Ochterski, R. L. Martin, K. Morokuma, O. Farkas, 
 J. B. Foresman, and D. J. Fox, Gaussian, Inc., Wallingford CT, 2016.
 
 ******************************************
 Gaussian 16:  ES64L-G16RevB.01 20-Dec-2017
                10-May-2019 
 ******************************************
 %NProcShared=32
 Will use up to   32 processors via shared memory.
 %chk=AB.chk
 ----------------------------------------------------------------------
 #p opt freq rb3lyp/6-31g(d,p) scrf=(iefpcm,solvent=acetonitrile) empir
 icaldispersion=gd3
 ----------------------------------------------------------------------
 1/18=20,19=15,26=3,38=1/1,3;
 2/9=110,12=2,17=6,18=5,40=1/2;
 3/5=1,6=6,7=101,11=2,25=1,30=1,70=2201,71=1,72=2,74=-5,116=1,124=31/1,2,3;
 4//1;
 5/5=2,38=5,53=2/2;
 6/7=2,8=2,9=2,10=2,28=1/1;
 7//1,2,3,16;
 1/18=20,19=15,26=3/3(2);
 2/9=110/2;
 99//99;
 2/9=110/2;
 3/5=1,6=6,7=101,11=2,25=1,30=1,70=2205,71=1,72=2,74=-5,116=1,124=31/1,2,3;
 4/5=5,16=3,69=1/1;
 5/5=2,38=5,53=2/2;
 7//1,2,3,16;
 1/18=20,19=15,26=3/3(-5);
 2/9=110/2;
 6/7=2,8=2,9=2,10=2,19=2,28=1/1;
 99/9=1/99;
 Leave Link    1 at Fri May 10 12:05:06 2019, MaxMem=           0 cpu:               4.6 elap:               0.2
 (Enter /opt/software/gaussian/g16.b01/l101.exe)
 -------------------
 Title Card Required
 -------------------
 Symbolic Z-matrix:
 Charge =  0 Multiplicity = 1
 C                     0.35429  -1.47937  -0.30068 
 H                     4.61802  -1.28328   1.29805 
 O                     1.08739  -1.59167   0.68272 
 N                     4.64178  -0.83217  -0.64035 
 H                     4.54254  -1.38286  -1.49002 
 N                     4.21673  -1.68419   0.45352 
 H                     3.2011   -1.64085   0.56767 
 H                     4.0152   -0.02933  -0.73513 
 C                     0.94441  -1.34421  -1.68628 
 H                     0.59689  -2.15548  -2.33388 
 H                     0.62986  -0.39991  -2.13981 
 H                     2.03185  -1.35996  -1.62133 
 C                    -1.12782  -1.46691  -0.13376 
 C                    -1.66107  -1.66547   1.1511 
 C                    -2.00002  -1.24392  -1.2101 
 C                    -3.0362   -1.64507   1.35551 
 H                    -0.97697  -1.82964   1.97628 
 C                    -3.37897  -1.21781  -1.00329 
 H                    -1.611    -1.07944  -2.2084 
 C                    -3.89843  -1.41902   0.27693 
 H                    -3.43947  -1.80029   2.35146 
 H                    -4.04635  -1.03762  -1.84013 
 H                    -4.97248  -1.39839   0.4357 
 
 Add virtual bond connecting atoms H7         and O3         Dist= 4.00D+00.
 ITRead=  0  0  0  0  0  0  0  0  0  0  0  0  0  0  0  0  0  0  0  0
 ITRead=  0  0  0
 MicOpt= -1 -1 -1 -1 -1 -1 -1 -1 -1 -1 -1 -1 -1 -1 -1 -1 -1 -1 -1 -1
 MicOpt= -1 -1 -1
 NAtoms=     23 NQM=       23 NQMF=       0 NMMI=      0 NMMIF=      0
                NMic=       0 NMicF=      0.
                    Isotopes and Nuclear Properties:
 (Nuclear quadrupole moments (NQMom) in fm**2, nuclear magnetic moments (NMagM)
  in nuclear magnetons)

  Atom         1           2           3           4           5           6           7           8           9          10
 IAtWgt=          12           1          16          14           1          14           1           1          12           1
 AtmWgt=  12.0000000   1.0078250  15.9949146  14.0030740   1.0078250  14.0030740   1.0078250   1.0078250  12.0000000   1.0078250
 NucSpn=           0           1           0           2           1           2           1           1           0           1
 AtZEff=  -0.0000000  -0.0000000  -0.0000000  -0.0000000  -0.0000000  -0.0000000  -0.0000000  -0.0000000  -0.0000000  -0.0000000
 NQMom=    0.0000000   0.0000000   0.0000000   2.0440000   0.0000000   2.0440000   0.0000000   0.0000000   0.0000000   0.0000000
 NMagM=    0.0000000   2.7928460   0.0000000   0.4037610   2.7928460   0.4037610   2.7928460   2.7928460   0.0000000   2.7928460
 AtZNuc=   6.0000000   1.0000000   8.0000000   7.0000000   1.0000000   7.0000000   1.0000000   1.0000000   6.0000000   1.0000000

  Atom        11          12          13          14          15          16          17          18          19          20
 IAtWgt=           1           1          12          12          12          12           1          12           1          12
 AtmWgt=   1.0078250   1.0078250  12.0000000  12.0000000  12.0000000  12.0000000   1.0078250  12.0000000   1.0078250  12.0000000
 NucSpn=           1           1           0           0           0           0           1           0           1           0
 AtZEff=  -0.0000000  -0.0000000  -0.0000000  -0.0000000  -0.0000000  -0.0000000  -0.0000000  -0.0000000  -0.0000000  -0.0000000
 NQMom=    0.0000000   0.0000000   0.0000000   0.0000000   0.0000000   0.0000000   0.0000000   0.0000000   0.0000000   0.0000000
 NMagM=    2.7928460   2.7928460   0.0000000   0.0000000   0.0000000   0.0000000   2.7928460   0.0000000   2.7928460   0.0000000
 AtZNuc=   1.0000000   1.0000000   6.0000000   6.0000000   6.0000000   6.0000000   1.0000000   6.0000000   1.0000000   6.0000000

  Atom        21          22          23
 IAtWgt=           1           1           1
 AtmWgt=   1.0078250   1.0078250   1.0078250
 NucSpn=           1           1           1
 AtZEff=  -0.0000000  -0.0000000  -0.0000000
 NQMom=    0.0000000   0.0000000   0.0000000
 NMagM=    2.7928460   2.7928460   2.7928460
 AtZNuc=   1.0000000   1.0000000   1.0000000
 Leave Link  101 at Fri May 10 12:05:07 2019, MaxMem=   104857600 cpu:               5.7 elap:               0.2
 (Enter /opt/software/gaussian/g16.b01/l103.exe)

 GradGradGradGradGradGradGradGradGradGradGradGradGradGradGradGradGradGrad
 Berny optimization.
 Initialization pass.
                           ----------------------------
                           !    Initial Parameters    !
                           ! (Angstroms and Degrees)  !
 --------------------------                            --------------------------
 ! Name  Definition              Value          Derivative Info.                !
 --------------------------------------------------------------------------------
 ! R1    R(1,3)                  1.2317         estimate D2E/DX2                !
 ! R2    R(1,9)                  1.5121         estimate D2E/DX2                !
 ! R3    R(1,13)                 1.4915         estimate D2E/DX2                !
 ! R4    R(2,6)                  1.0173         estimate D2E/DX2                !
 ! R5    R(3,7)                  2.1174         estimate D2E/DX2                !
 ! R6    R(4,5)                  1.0174         estimate D2E/DX2                !
 ! R7    R(4,6)                  1.4502         estimate D2E/DX2                !
 ! R8    R(4,8)                  1.0228         estimate D2E/DX2                !
 ! R9    R(6,7)                  1.0229         estimate D2E/DX2                !
 ! R10   R(9,10)                 1.0947         estimate D2E/DX2                !
 ! R11   R(9,11)                 1.0938         estimate D2E/DX2                !
 ! R12   R(9,12)                 1.0895         estimate D2E/DX2                !
 ! R13   R(13,14)                1.4052         estimate D2E/DX2                !
 ! R14   R(13,15)                1.4032         estimate D2E/DX2                !
 ! R15   R(14,16)                1.3904         estimate D2E/DX2                !
 ! R16   R(14,17)                1.0844         estimate D2E/DX2                !
 ! R17   R(15,18)                1.3946         estimate D2E/DX2                !
 ! R18   R(15,19)                1.084          estimate D2E/DX2                !
 ! R19   R(16,20)                1.3992         estimate D2E/DX2                !
 ! R20   R(16,21)                1.0856         estimate D2E/DX2                !
 ! R21   R(18,20)                1.3962         estimate D2E/DX2                !
 ! R22   R(18,22)                1.0854         estimate D2E/DX2                !
 ! R23   R(20,23)                1.0859         estimate D2E/DX2                !
 ! A1    A(3,1,9)              120.4962         estimate D2E/DX2                !
 ! A2    A(3,1,13)             120.1875         estimate D2E/DX2                !
 ! A3    A(9,1,13)             119.3152         estimate D2E/DX2                !
 ! A4    A(1,3,7)              123.5648         estimate D2E/DX2                !
 ! A5    A(5,4,6)              106.4597         estimate D2E/DX2                !
 ! A6    A(5,4,8)              106.7219         estimate D2E/DX2                !
 ! A7    A(6,4,8)              110.579          estimate D2E/DX2                !
 ! A8    A(2,6,4)              106.2016         estimate D2E/DX2                !
 ! A9    A(2,6,7)              106.3978         estimate D2E/DX2                !
 ! A10   A(4,6,7)              110.5041         estimate D2E/DX2                !
 ! A11   A(1,9,10)             110.6075         estimate D2E/DX2                !
 ! A12   A(1,9,11)             110.1757         estimate D2E/DX2                !
 ! A13   A(1,9,12)             109.4887         estimate D2E/DX2                !
 ! A14   A(10,9,11)            107.6515         estimate D2E/DX2                !
 ! A15   A(10,9,12)            109.963          estimate D2E/DX2                !
 ! A16   A(11,9,12)            108.9197         estimate D2E/DX2                !
 ! A17   A(1,13,14)            118.5699         estimate D2E/DX2                !
 ! A18   A(1,13,15)            122.2177         estimate D2E/DX2                !
 ! A19   A(14,13,15)           119.2051         estimate D2E/DX2                !
 ! A20   A(13,14,16)           120.5084         estimate D2E/DX2                !
 ! A21   A(13,14,17)           118.5408         estimate D2E/DX2                !
 ! A22   A(16,14,17)           120.9502         estimate D2E/DX2                !
 ! A23   A(13,15,18)           120.2535         estimate D2E/DX2                !
 ! A24   A(13,15,19)           120.4954         estimate D2E/DX2                !
 ! A25   A(18,15,19)           119.2478         estimate D2E/DX2                !
 ! A26   A(14,16,20)           119.9004         estimate D2E/DX2                !
 ! A27   A(14,16,21)           120.0098         estimate D2E/DX2                !
 ! A28   A(20,16,21)           120.0893         estimate D2E/DX2                !
 ! A29   A(15,18,20)           120.0767         estimate D2E/DX2                !
 ! A30   A(15,18,22)           119.7833         estimate D2E/DX2                !
 ! A31   A(20,18,22)           120.1398         estimate D2E/DX2                !
 ! A32   A(16,20,18)           120.0551         estimate D2E/DX2                !
 ! A33   A(16,20,23)           119.9895         estimate D2E/DX2                !
 ! A34   A(18,20,23)           119.9553         estimate D2E/DX2                !
 ! A35   L(3,7,6,8,-1)         178.9008         estimate D2E/DX2                !
 ! A36   L(3,7,6,8,-2)         183.5762         estimate D2E/DX2                !
 ! D1    D(9,1,3,7)             -1.0028         estimate D2E/DX2                !
 ! D2    D(13,1,3,7)           179.381          estimate D2E/DX2                !
 ! D3    D(3,1,9,10)           120.9748         estimate D2E/DX2                !
 ! D4    D(3,1,9,11)          -120.1239         estimate D2E/DX2                !
 ! D5    D(3,1,9,12)            -0.357          estimate D2E/DX2                !
 ! D6    D(13,1,9,10)          -59.4056         estimate D2E/DX2                !
 ! D7    D(13,1,9,11)           59.4957         estimate D2E/DX2                !
 ! D8    D(13,1,9,12)          179.2626         estimate D2E/DX2                !
 ! D9    D(3,1,13,14)           -3.7483         estimate D2E/DX2                !
 ! D10   D(3,1,13,15)          175.2553         estimate D2E/DX2                !
 ! D11   D(9,1,13,14)          176.6309         estimate D2E/DX2                !
 ! D12   D(9,1,13,15)           -4.3655         estimate D2E/DX2                !
 ! D13   D(1,3,6,2)            149.6409         estimate D2E/DX2                !
 ! D14   D(1,3,6,4)             34.1385         estimate D2E/DX2                !
 ! D15   D(5,4,6,2)            160.1137         estimate D2E/DX2                !
 ! D16   D(5,4,6,7)            -84.8923         estimate D2E/DX2                !
 ! D17   D(8,4,6,2)            -84.3299         estimate D2E/DX2                !
 ! D18   D(8,4,6,7)             30.6642         estimate D2E/DX2                !
 ! D19   D(1,13,14,16)         179.1956         estimate D2E/DX2                !
 ! D20   D(1,13,14,17)          -0.5245         estimate D2E/DX2                !
 ! D21   D(15,13,14,16)          0.1614         estimate D2E/DX2                !
 ! D22   D(15,13,14,17)       -179.5588         estimate D2E/DX2                !
 ! D23   D(1,13,15,18)        -178.879          estimate D2E/DX2                !
 ! D24   D(1,13,15,19)           0.4525         estimate D2E/DX2                !
 ! D25   D(14,13,15,18)          0.1185         estimate D2E/DX2                !
 ! D26   D(14,13,15,19)        179.45           estimate D2E/DX2                !
 ! D27   D(13,14,16,20)         -0.3064         estimate D2E/DX2                !
 ! D28   D(13,14,16,21)        179.9462         estimate D2E/DX2                !
 ! D29   D(17,14,16,20)        179.407          estimate D2E/DX2                !
 ! D30   D(17,14,16,21)         -0.3404         estimate D2E/DX2                !
 ! D31   D(13,15,18,20)         -0.2521         estimate D2E/DX2                !
 ! D32   D(13,15,18,22)        179.5632         estimate D2E/DX2                !
 ! D33   D(19,15,18,20)       -179.5919         estimate D2E/DX2                !
 ! D34   D(19,15,18,22)          0.2234         estimate D2E/DX2                !
 ! D35   D(14,16,20,18)          0.1718         estimate D2E/DX2                !
 ! D36   D(14,16,20,23)       -179.7283         estimate D2E/DX2                !
 ! D37   D(21,16,20,18)        179.919          estimate D2E/DX2                !
 ! D38   D(21,16,20,23)          0.0189         estimate D2E/DX2                !
 ! D39   D(15,18,20,16)          0.107          estimate D2E/DX2                !
 ! D40   D(15,18,20,23)       -179.9929         estimate D2E/DX2                !
 ! D41   D(22,18,20,16)       -179.7077         estimate D2E/DX2                !
 ! D42   D(22,18,20,23)          0.1925         estimate D2E/DX2                !
 --------------------------------------------------------------------------------
 Trust Radius=3.00D-01 FncErr=1.00D-07 GrdErr=1.00D-06 EigMax=2.50D+02 EigMin=1.00D-04
 Number of steps in this run=    111 maximum allowed number of steps=    138.
 GradGradGradGradGradGradGradGradGradGradGradGradGradGradGradGradGradGrad

 Leave Link  103 at Fri May 10 12:05:07 2019, MaxMem=   104857600 cpu:               1.1 elap:               0.1
 (Enter /opt/software/gaussian/g16.b01/l202.exe)
                          Input orientation:                          
 ---------------------------------------------------------------------
 Center     Atomic      Atomic             Coordinates (Angstroms)
 Number     Number       Type             X           Y           Z
 ---------------------------------------------------------------------
      1          6           0        0.354292   -1.479367   -0.300682
      2          1           0        4.618022   -1.283283    1.298049
      3          8           0        1.087393   -1.591673    0.682724
      4          7           0        4.641778   -0.832169   -0.640352
      5          1           0        4.542537   -1.382863   -1.490021
      6          7           0        4.216729   -1.684188    0.453524
      7          1           0        3.201097   -1.640852    0.567673
      8          1           0        4.015195   -0.029334   -0.735132
      9          6           0        0.944413   -1.344207   -1.686276
     10          1           0        0.596890   -2.155483   -2.333883
     11          1           0        0.629864   -0.399910   -2.139806
     12          1           0        2.031853   -1.359962   -1.621332
     13          6           0       -1.127817   -1.466906   -0.133755
     14          6           0       -1.661066   -1.665472    1.151099
     15          6           0       -2.000025   -1.243915   -1.210097
     16          6           0       -3.036203   -1.645070    1.355511
     17          1           0       -0.976966   -1.829640    1.976279
     18          6           0       -3.378972   -1.217805   -1.003288
     19          1           0       -1.611000   -1.079441   -2.208397
     20          6           0       -3.898430   -1.419016    0.276932
     21          1           0       -3.439469   -1.800289    2.351458
     22          1           0       -4.046348   -1.037619   -1.840128
     23          1           0       -4.972479   -1.398392    0.435704
 ---------------------------------------------------------------------
                    Distance matrix (angstroms):
                    1          2          3          4          5
     1  C    0.000000
     2  H    4.557827   0.000000
     3  O    1.231721   3.597092   0.000000
     4  N    4.349342   1.990343   3.867949   0.000000
     5  H    4.354909   2.790869   4.086862   1.017374   0.000000
     6  N    3.940710   1.017341   3.139082   1.450230   1.993568
     7  H    2.980674   1.633702   2.117404   2.046669   2.469843
     8  H    3.961509   2.463659   3.608773   1.022807   1.637067
     9  C    1.512079   4.733425   2.386178   3.876422   3.603680
    10  H    2.156361   5.488275   3.107795   4.580429   4.108184
    11  H    2.150243   5.338970   3.097791   4.304726   4.086249
    12  H    2.138360   3.900889   2.500874   2.837710   2.514220
    13  C    1.491532   5.924394   2.364183   5.826470   5.830903
    14  C    2.490777   6.292425   2.789059   6.605266   6.748339
    15  C    2.534814   7.077492   3.638112   6.678899   6.550021
    16  C    3.777021   7.662986   4.178461   7.974689   8.099574
    17  H    2.660731   5.662366   2.447752   6.277897   6.532975
    18  C    3.807799   8.321800   4.788615   8.038213   7.938165
    19  H    2.767976   7.151044   3.987767   6.451135   6.202753
    20  C    4.292193   8.578523   5.005288   8.609353   8.623999
    21  H    4.639985   8.142489   4.829148   8.671490   8.868124
    22  H    4.683019   9.218450   5.746917   8.772982   8.602948
    23  H    5.378040   9.629880   6.067984   9.690843   9.707945
                    6          7          8          9         10
     6  N    0.000000
     7  H    1.022945   0.000000
     8  H    2.047452   2.226443   0.000000
     9  C    3.924587   3.203265   3.473222   0.000000
    10  H    4.592928   3.932654   4.331434   1.094685   0.000000
    11  H    4.608723   3.934669   3.683870   1.093768   1.766576
    12  H    3.030484   2.497554   2.547463   1.089491   1.788771
    13  C    5.381104   4.388822   5.373904   2.592202   2.879117
    14  C    5.919074   4.897103   6.201190   3.865544   4.181337
    15  C    6.450543   5.510871   6.154971   2.984379   2.972847
    16  C    7.308908   6.286861   7.530180   5.018794   5.203029
    17  H    5.414278   4.413165   5.959406   4.164331   4.600075
    18  C    7.748193   6.778215   7.493869   4.378825   4.296185
    19  H    6.435368   5.583729   5.909933   2.621612   2.459348
    20  C    8.121410   7.108940   8.098207   5.226176   5.250394
    21  H    7.888790   6.877821   8.260468   5.977435   6.194415
    22  H    8.599845   7.660735   8.199154   5.002536   4.801362
    23  H    9.193669   8.178236   9.166431   6.286123   6.265913
                   11         12         13         14         15
    11  H    0.000000
    12  H    1.776538   0.000000
    13  C    2.872658   3.493972   0.000000
    14  C    4.204767   4.627889   1.405216   0.000000
    15  C    2.914279   4.054457   1.403205   2.422365   0.000000
    16  C    5.216101   5.884562   2.427260   1.390396   2.795878
    17  H    4.644156   4.713427   2.146293   1.084374   3.397457
    18  C    4.246339   5.447863   2.426075   2.791593   1.394613
    19  H    2.342635   3.700502   2.165118   3.410594   1.083972
    20  C    5.233034   6.226970   2.801295   2.414686   2.417821
    21  H    6.220288   6.775863   3.410449   2.149827   3.881524
    22  H    4.729000   6.090674   3.407905   3.877010   2.151031
    23  H    6.246316   7.300243   3.887210   3.398320   3.401177
                   16         17         18         19         20
    16  C    0.000000
    17  H    2.158675   0.000000
    18  C    2.421565   3.875796   0.000000
    19  H    3.879765   4.298408   2.144098   0.000000
    20  C    1.399239   3.404606   1.396168   3.394776   0.000000
    21  H    1.085646   2.491092   3.405476   4.965400   2.158627
    22  H    3.406097   4.961186   1.085430   2.463390   2.156220
    23  H    2.157790   4.303890   2.154663   4.288653   1.085917
                   21         22         23
    21  H    0.000000
    22  H    4.303413   0.000000
    23  H    2.486313   2.483402   0.000000
 Stoichiometry    C8H12N2O
 Framework group  C1[X(C8H12N2O)]
 Deg. of freedom    63
 Full point group                 C1      NOp   1
 Largest Abelian subgroup         C1      NOp   1
 Largest concise Abelian subgroup C1      NOp   1
                         Standard orientation:                         
 ---------------------------------------------------------------------
 Center     Atomic      Atomic             Coordinates (Angstroms)
 Number     Number       Type             X           Y           Z
 ---------------------------------------------------------------------
      1          6           0        0.451561    0.128219   -0.115893
      2          1           0        4.635222   -1.637663    0.274517
      3          8           0        1.132393   -0.897363   -0.073641
      4          7           0        4.765586    0.344866    0.393056
      5          1           0        4.694264    1.094707   -0.290831
      6          7           0        4.265856   -0.851971   -0.255804
      7          1           0        3.247269   -0.903629   -0.176883
      8          1           0        4.164973    0.605213    1.178942
      9          6           0        1.112260    1.483900   -0.225381
     10          1           0        0.776505    2.004374   -1.127994
     11          1           0        0.844412    2.104639    0.634426
     12          1           0        2.194449    1.360052   -0.248229
     13          6           0       -1.036165    0.044014   -0.050714
     14          6           0       -1.636740   -1.226063   -0.021602
     15          6           0       -1.848521    1.186902    0.002846
     16          6           0       -3.019297   -1.351483    0.055908
     17          1           0       -0.998378   -2.101940   -0.056232
     18          6           0       -3.234855    1.060276    0.086449
     19          1           0       -1.406888    2.176755   -0.009302
     20          6           0       -3.821499   -0.206407    0.111944
     21          1           0       -3.474799   -2.336724    0.077022
     22          1           0       -3.855540    1.949426    0.134627
     23          1           0       -4.901181   -0.302713    0.176957
 ---------------------------------------------------------------------
 Rotational constants (GHZ):           3.0839244           0.4053269           0.3621664
 Leave Link  202 at Fri May 10 12:05:07 2019, MaxMem=   104857600 cpu:               2.3 elap:               0.1
 (Enter /opt/software/gaussian/g16.b01/l301.exe)
 Standard basis: 6-31G(d,p) (6D, 7F)
 Ernie: Thresh=  0.10000D-02 Tol=  0.10000D-05 Strict=F.
 There are   225 symmetry adapted cartesian basis functions of A   symmetry.
 There are   225 symmetry adapted basis functions of A   symmetry.
   225 basis functions,   392 primitive gaussians,   225 cartesian basis functions
    41 alpha electrons       41 beta electrons
       nuclear repulsion energy       557.5925334315 Hartrees.
 IExCor=  402 DFT=T Ex+Corr=B3LYP ExCW=0 ScaHFX=  0.200000
 ScaDFX=  0.800000  0.720000  1.000000  0.810000 ScalE2=  1.000000  1.000000
 IRadAn=      5 IRanWt=     -1 IRanGd=            0 ICorTp=0 IEmpDi=131
 NAtoms=   23 NActive=   23 NUniq=   23 SFac= 1.00D+00 NAtFMM=   60 NAOKFM=F Big=F
 Integral buffers will be    131072 words long.
 Raffenetti 2 integral format.
 Two-electron integral symmetry is turned on.
 R6Disp:  Grimme-D3 Dispersion energy=       -0.0157122013 Hartrees.
 Nuclear repulsion after empirical dispersion term =      557.5768212301 Hartrees.
 ------------------------------------------------------------------------------
 Polarizable Continuum Model (PCM)
 =================================
 Model                : PCM.
 Atomic radii         : UFF (Universal Force Field).
 Polarization charges : Total charges.
 Charge compensation  : None.
 Solution method      : On-the-fly selection.
 Cavity type          : Scaled VdW (van der Waals Surface) (Alpha=1.100).
 Cavity algorithm     : GePol (No added spheres)
                        Default sphere list used, NSphG=   23.
                        Lebedev-Laikov grids with approx.  5.0 points / Ang**2.
                        Smoothing algorithm: York/Karplus (Gamma=1.0000).
                        Polarization charges: spherical gaussians, with
                                              point-specific exponents (IZeta= 3).
                        Self-potential: point-specific (ISelfS= 7).
                        Self-field    : sphere-specific E.n sum rule (ISelfD= 2).
 1st derivatives      : Analytical E(r).r(x)/FMM algorithm (CHGder, D1EAlg=3).
                        Cavity 1st derivative terms included.
 Solvent              : Acetonitrile, Eps=  35.688000 Eps(inf)=   1.806874
 ------------------------------------------------------------------------------
 GePol: Number of generator spheres                  =      23
 GePol: Total number of spheres                      =      23
 GePol: Number of exposed spheres                    =      23 (100.00%)
 GePol: Number of points                             =    1894
 GePol: Average weight of points                     =       0.13
 GePol: Minimum weight of points                     =   0.17D-11
 GePol: Maximum weight of points                     =    0.20577
 GePol: Number of points with low weight             =     114
 GePol: Fraction of low-weight points (<1% of avg)   =       6.02%
 GePol: Cavity surface area                          =    247.537 Ang**2
 GePol: Cavity volume                                =    246.089 Ang**3
 Leave Link  301 at Fri May 10 12:05:08 2019, MaxMem=   104857600 cpu:               4.8 elap:               0.2
 (Enter /opt/software/gaussian/g16.b01/l302.exe)
 NPDir=0 NMtPBC=     1 NCelOv=     1 NCel=       1 NClECP=     1 NCelD=      1
         NCelK=      1 NCelE2=     1 NClLst=     1 CellRange=     0.0.
 One-electron integrals computed using PRISM.
 One-electron integral symmetry used in STVInt
 PrsmSu:  requested number of processors reduced to:  29 ShMem   1 Linda.
 NBasis=   225 RedAO= T EigKep=  4.69D-04  NBF=   225
 NBsUse=   225 1.00D-06 EigRej= -1.00D+00 NBFU=   225
 Precomputing XC quadrature grid using
 IXCGrd= 4 IRadAn=           5 IRanWt=          -1 IRanGd=           0 AccXCQ= 0.00D+00.
 Generated NRdTot=       0 NPtTot=           0 NUsed=           0 NTot=          32
 NSgBfM=   224   224   224   224   224 MxSgAt=    23 MxSgA2=    23.
 Leave Link  302 at Fri May 10 12:05:08 2019, MaxMem=   104857600 cpu:               9.6 elap:               0.4
 (Enter /opt/software/gaussian/g16.b01/l303.exe)
 DipDrv:  MaxL=1.
 Leave Link  303 at Fri May 10 12:05:08 2019, MaxMem=   104857600 cpu:               2.0 elap:               0.1
 (Enter /opt/software/gaussian/g16.b01/l401.exe)
 ExpMin= 1.61D-01 ExpMax= 5.48D+03 ExpMxC= 8.25D+02 IAcc=3 IRadAn=         5 AccDes= 0.00D+00
 Harris functional with IExCor=  402 and IRadAn=       5 diagonalized for initial guess.
 HarFok:  IExCor=  402 AccDes= 0.00D+00 IRadAn=         5 IDoV= 1 UseB2=F ITyADJ=14
 ICtDFT=  3500011 ScaDFX=  1.000000  1.000000  1.000000  1.000000
 FoFCou: FMM=F IPFlag=           0 FMFlag=      100000 FMFlg1=           0
         NFxFlg=           0 DoJE=T BraDBF=F KetDBF=T FulRan=T
         wScrn=  0.000000 ICntrl=       500 IOpCl=  0 I1Cent=   200000004 NGrid=           0
         NMat0=    1 NMatS0=      1 NMatT0=    0 NMatD0=    1 NMtDS0=    0 NMtDT0=    0
 Petite list used in FoFCou.
 Harris En= -496.834644760106    
 JPrj=0 DoOrth=F DoCkMO=F.
 Leave Link  401 at Fri May 10 12:05:09 2019, MaxMem=   104857600 cpu:              14.6 elap:               0.5
 (Enter /opt/software/gaussian/g16.b01/l502.exe)
 Integral symmetry usage will be decided dynamically.
 Closed shell SCF:
 Using DIIS extrapolation, IDIIS=  1040.
 NGot=   104857600 LenX=   104746616 LenY=   104695550
 Requested convergence on RMS density matrix=1.00D-08 within 128 cycles.
 Requested convergence on MAX density matrix=1.00D-06.
 Requested convergence on             energy=1.00D-06.
 No special actions if energy rises.
 Fock matrices will be formed incrementally for  20 cycles.

 Cycle   1  Pass 1  IDiag  1:
 FoFJK:  IHMeth= 1 ICntrl=       0 DoSepK=F KAlg= 0 I1Cent=           0 FoldK=F
 IRaf= 810000000 NMat=       1 IRICut=       1 DoRegI=T DoRafI=F ISym2E= 0 IDoP0=0 IntGTp=1.
 FoFCou: FMM=F IPFlag=           0 FMFlag=      100000 FMFlg1=           0
         NFxFlg=           0 DoJE=F BraDBF=F KetDBF=F FulRan=T
         wScrn=  0.000000 ICntrl=         0 IOpCl=  0 I1Cent=           0 NGrid=           0
         NMat0=    1 NMatS0=      1 NMatT0=    0 NMatD0=    1 NMtDS0=    0 NMtDT0=    0
 Symmetry not used in FoFCou.
 Inv3:  Mode=1 IEnd=    10761708.
 Iteration    1 A*A^-1 deviation from unit magnitude is 3.89D-15 for   1086.
 Iteration    1 A*A^-1 deviation from orthogonality  is 1.92D-15 for   1026     82.
 Iteration    1 A^-1*A deviation from unit magnitude is 3.89D-15 for   1086.
 Iteration    1 A^-1*A deviation from orthogonality  is 1.89D-15 for   1751    239.
 E= -496.527559397075    
 DIIS: error= 3.47D-02 at cycle   1 NSaved=   1.
 NSaved= 1 IEnMin= 1 EnMin= -496.527559397075     IErMin= 1 ErrMin= 3.47D-02
 ErrMax= 3.47D-02  0.00D+00 EMaxC= 1.00D-01 BMatC= 2.96D-01 BMatP= 2.96D-01
 IDIUse=3 WtCom= 6.53D-01 WtEn= 3.47D-01
 Coeff-Com:  0.100D+01
 Coeff-En:   0.100D+01
 Coeff:      0.100D+01
 Gap=     0.143 Goal=   None    Shift=    0.000
 GapD=    0.143 DampG=1.000 DampE=0.500 DampFc=0.5000 IDamp=-1.
 Damping current iteration by 5.00D-01
 RMSDP=4.99D-03 MaxDP=1.61D-01              OVMax= 1.76D-01

 Cycle   2  Pass 1  IDiag  1:
 RMSU=  2.45D-03    CP:  9.78D-01
 E= -496.649455783734     Delta-E=       -0.121896386659 Rises=F Damp=T
 DIIS: error= 9.30D-03 at cycle   2 NSaved=   2.
 NSaved= 2 IEnMin= 2 EnMin= -496.649455783734     IErMin= 2 ErrMin= 9.30D-03
 ErrMax= 9.30D-03  0.00D+00 EMaxC= 1.00D-01 BMatC= 2.36D-02 BMatP= 2.96D-01
 IDIUse=3 WtCom= 9.07D-01 WtEn= 9.30D-02
 Coeff-Com:  0.999D-01 0.900D+00
 Coeff-En:   0.134D+00 0.866D+00
 Coeff:      0.103D+00 0.897D+00
 Gap=     0.184 Goal=   None    Shift=    0.000
 RMSDP=1.28D-03 MaxDP=4.77D-02 DE=-1.22D-01 OVMax= 1.34D-01

 Cycle   3  Pass 1  IDiag  1:
 RMSU=  1.24D-03    CP:  9.69D-01  8.93D-01
 E= -496.789519313311     Delta-E=       -0.140063529577 Rises=F Damp=F
 DIIS: error= 1.73D-02 at cycle   3 NSaved=   3.
 NSaved= 3 IEnMin= 3 EnMin= -496.789519313311     IErMin= 2 ErrMin= 9.30D-03
 ErrMax= 1.73D-02  0.00D+00 EMaxC= 1.00D-01 BMatC= 2.62D-02 BMatP= 2.36D-02
 IDIUse=2 WtCom= 0.00D+00 WtEn= 1.00D+00
 Coeff-En:   0.000D+00 0.000D+00 0.100D+01
 Coeff:      0.000D+00 0.000D+00 0.100D+01
 Gap=     0.160 Goal=   None    Shift=    0.000
 RMSDP=2.06D-03 MaxDP=1.15D-01 DE=-1.40D-01 OVMax= 1.62D-01

 Cycle   4  Pass 1  IDiag  1:
 RMSU=  1.22D-03    CP:  9.74D-01  1.20D+00 -1.91D-01
 E= -496.705176746261     Delta-E=        0.084342567050 Rises=F Damp=F
 DIIS: error= 3.85D-02 at cycle   4 NSaved=   4.
 NSaved= 4 IEnMin= 3 EnMin= -496.789519313311     IErMin= 2 ErrMin= 9.30D-03
 ErrMax= 3.85D-02  0.00D+00 EMaxC= 1.00D-01 BMatC= 1.33D-01 BMatP= 2.36D-02
 IDIUse=2 WtCom= 0.00D+00 WtEn= 1.00D+00
 Coeff-En:   0.000D+00 0.000D+00 0.778D+00 0.222D+00
 Coeff:      0.000D+00 0.000D+00 0.778D+00 0.222D+00
 Gap=     0.181 Goal=   None    Shift=    0.000
 RMSDP=1.13D-03 MaxDP=6.04D-02 DE= 8.43D-02 OVMax= 8.61D-02

 Cycle   5  Pass 1  IDiag  1:
 RMSU=  1.66D-04    CP:  9.72D-01  9.97D-01  4.30D-01  4.82D-01
 E= -496.804502057921     Delta-E=       -0.099325311661 Rises=F Damp=F
 DIIS: error= 9.95D-03 at cycle   5 NSaved=   5.
 NSaved= 5 IEnMin= 5 EnMin= -496.804502057921     IErMin= 2 ErrMin= 9.30D-03
 ErrMax= 9.95D-03  0.00D+00 EMaxC= 1.00D-01 BMatC= 8.48D-03 BMatP= 2.36D-02
 IDIUse=3 WtCom= 9.00D-01 WtEn= 9.95D-02
 Coeff-Com: -0.252D-03 0.984D-02 0.288D+00-0.713D-01 0.774D+00
 Coeff-En:   0.000D+00 0.000D+00 0.288D+00 0.000D+00 0.712D+00
 Coeff:     -0.227D-03 0.886D-02 0.288D+00-0.642D-01 0.768D+00
 Gap=     0.176 Goal=   None    Shift=    0.000
 RMSDP=3.69D-04 MaxDP=1.96D-02 DE=-9.93D-02 OVMax= 2.76D-02

 Cycle   6  Pass 1  IDiag  1:
 RMSU=  4.94D-05    CP:  9.71D-01  9.53D-01  6.42D-01  3.00D-01  7.26D-01
 E= -496.811401774808     Delta-E=       -0.006899716887 Rises=F Damp=F
 DIIS: error= 3.44D-04 at cycle   6 NSaved=   6.
 NSaved= 6 IEnMin= 6 EnMin= -496.811401774808     IErMin= 6 ErrMin= 3.44D-04
 ErrMax= 3.44D-04  0.00D+00 EMaxC= 1.00D-01 BMatC= 3.21D-05 BMatP= 8.48D-03
 IDIUse=3 WtCom= 9.97D-01 WtEn= 3.44D-03
 Coeff-Com: -0.143D-02 0.395D-02 0.119D+00-0.476D-01 0.408D+00 0.519D+00
 Coeff-En:   0.000D+00 0.000D+00 0.000D+00 0.000D+00 0.000D+00 0.100D+01
 Coeff:     -0.142D-02 0.393D-02 0.118D+00-0.474D-01 0.406D+00 0.520D+00
 Gap=     0.175 Goal=   None    Shift=    0.000
 RMSDP=2.97D-05 MaxDP=1.32D-03 DE=-6.90D-03 OVMax= 2.56D-03

 Cycle   7  Pass 1  IDiag  1:
 RMSU=  1.17D-05    CP:  9.71D-01  9.56D-01  6.34D-01  3.09D-01  7.93D-01
                    CP:  6.27D-01
 E= -496.811433159695     Delta-E=       -0.000031384887 Rises=F Damp=F
 DIIS: error= 1.02D-04 at cycle   7 NSaved=   7.
 NSaved= 7 IEnMin= 7 EnMin= -496.811433159695     IErMin= 7 ErrMin= 1.02D-04
 ErrMax= 1.02D-04  0.00D+00 EMaxC= 1.00D-01 BMatC= 1.87D-06 BMatP= 3.21D-05
 IDIUse=3 WtCom= 9.99D-01 WtEn= 1.02D-03
 Coeff-Com: -0.753D-03 0.160D-02 0.472D-01-0.231D-01 0.177D+00 0.276D+00
 Coeff-Com:  0.522D+00
 Coeff-En:   0.000D+00 0.000D+00 0.000D+00 0.000D+00 0.000D+00 0.000D+00
 Coeff-En:   0.100D+01
 Coeff:     -0.752D-03 0.160D-02 0.471D-01-0.231D-01 0.177D+00 0.275D+00
 Coeff:      0.522D+00
 Gap=     0.175 Goal=   None    Shift=    0.000
 RMSDP=6.67D-06 MaxDP=2.55D-04 DE=-3.14D-05 OVMax= 5.90D-04

 Cycle   8  Pass 1  IDiag  1:
 RMSU=  3.51D-06    CP:  9.71D-01  9.55D-01  6.36D-01  3.08D-01  7.92D-01
                    CP:  6.64D-01  5.95D-01
 E= -496.811434960425     Delta-E=       -0.000001800730 Rises=F Damp=F
 DIIS: error= 2.48D-05 at cycle   8 NSaved=   8.
 NSaved= 8 IEnMin= 8 EnMin= -496.811434960425     IErMin= 8 ErrMin= 2.48D-05
 ErrMax= 2.48D-05  0.00D+00 EMaxC= 1.00D-01 BMatC= 1.52D-07 BMatP= 1.87D-06
 IDIUse=1 WtCom= 1.00D+00 WtEn= 0.00D+00
 Coeff-Com: -0.982D-04 0.119D-03 0.755D-02-0.470D-02 0.303D-01 0.563D-01
 Coeff-Com:  0.237D+00 0.673D+00
 Coeff:     -0.982D-04 0.119D-03 0.755D-02-0.470D-02 0.303D-01 0.563D-01
 Coeff:      0.237D+00 0.673D+00
 Gap=     0.175 Goal=   None    Shift=    0.000
 RMSDP=1.89D-06 MaxDP=5.73D-05 DE=-1.80D-06 OVMax= 1.29D-04

 Cycle   9  Pass 1  IDiag  1:
 RMSU=  9.46D-07    CP:  9.71D-01  9.55D-01  6.36D-01  3.08D-01  7.95D-01
                    CP:  6.57D-01  6.65D-01  6.97D-01
 E= -496.811435093012     Delta-E=       -0.000000132587 Rises=F Damp=F
 DIIS: error= 8.33D-06 at cycle   9 NSaved=   9.
 NSaved= 9 IEnMin= 9 EnMin= -496.811435093012     IErMin= 9 ErrMin= 8.33D-06
 ErrMax= 8.33D-06  0.00D+00 EMaxC= 1.00D-01 BMatC= 1.06D-08 BMatP= 1.52D-07
 IDIUse=1 WtCom= 1.00D+00 WtEn= 0.00D+00
 Coeff-Com:  0.480D-05-0.702D-04 0.139D-02-0.109D-02 0.569D-02 0.129D-01
 Coeff-Com:  0.880D-01 0.336D+00 0.557D+00
 Coeff:      0.480D-05-0.702D-04 0.139D-02-0.109D-02 0.569D-02 0.129D-01
 Coeff:      0.880D-01 0.336D+00 0.557D+00
 Gap=     0.175 Goal=   None    Shift=    0.000
 RMSDP=4.60D-07 MaxDP=1.96D-05 DE=-1.33D-07 OVMax= 3.72D-05

 Cycle  10  Pass 1  IDiag  1:
 RMSU=  2.55D-07    CP:  9.71D-01  9.55D-01  6.36D-01  3.08D-01  7.94D-01
                    CP:  6.60D-01  6.66D-01  7.45D-01  6.95D-01
 E= -496.811435103371     Delta-E=       -0.000000010360 Rises=F Damp=F
 DIIS: error= 1.33D-06 at cycle  10 NSaved=  10.
 NSaved=10 IEnMin=10 EnMin= -496.811435103371     IErMin=10 ErrMin= 1.33D-06
 ErrMax= 1.33D-06  0.00D+00 EMaxC= 1.00D-01 BMatC= 3.29D-10 BMatP= 1.06D-08
 IDIUse=1 WtCom= 1.00D+00 WtEn= 0.00D+00
 Coeff-Com:  0.108D-04-0.403D-04-0.339D-04-0.390D-04-0.146D-03 0.676D-03
 Coeff-Com:  0.131D-01 0.669D-01 0.202D+00 0.718D+00
 Coeff:      0.108D-04-0.403D-04-0.339D-04-0.390D-04-0.146D-03 0.676D-03
 Coeff:      0.131D-01 0.669D-01 0.202D+00 0.718D+00
 Gap=     0.175 Goal=   None    Shift=    0.000
 RMSDP=8.78D-08 MaxDP=2.84D-06 DE=-1.04D-08 OVMax= 4.68D-06

 Cycle  11  Pass 1  IDiag  1:
 RMSU=  6.49D-08    CP:  9.71D-01  9.55D-01  6.36D-01  3.08D-01  7.94D-01
                    CP:  6.60D-01  6.67D-01  7.47D-01  7.28D-01  8.36D-01
 E= -496.811435103611     Delta-E=       -0.000000000240 Rises=F Damp=F
 DIIS: error= 4.15D-07 at cycle  11 NSaved=  11.
 NSaved=11 IEnMin=11 EnMin= -496.811435103611     IErMin=11 ErrMin= 4.15D-07
 ErrMax= 4.15D-07  0.00D+00 EMaxC= 1.00D-01 BMatC= 5.92D-11 BMatP= 3.29D-10
 IDIUse=1 WtCom= 1.00D+00 WtEn= 0.00D+00
 Coeff-Com:  0.519D-05-0.160D-04-0.123D-03 0.573D-04-0.489D-03-0.435D-03
 Coeff-Com:  0.997D-03 0.130D-01 0.705D-01 0.369D+00 0.548D+00
 Coeff:      0.519D-05-0.160D-04-0.123D-03 0.573D-04-0.489D-03-0.435D-03
 Coeff:      0.997D-03 0.130D-01 0.705D-01 0.369D+00 0.548D+00
 Gap=     0.175 Goal=   None    Shift=    0.000
 RMSDP=3.19D-08 MaxDP=1.16D-06 DE=-2.40D-10 OVMax= 1.91D-06

 Cycle  12  Pass 1  IDiag  1:
 RMSU=  1.78D-08    CP:  9.71D-01  9.55D-01  6.36D-01  3.08D-01  7.94D-01
                    CP:  6.60D-01  6.66D-01  7.47D-01  7.34D-01  8.65D-01
                    CP:  6.49D-01
 E= -496.811435103662     Delta-E=       -0.000000000051 Rises=F Damp=F
 DIIS: error= 1.30D-07 at cycle  12 NSaved=  12.
 NSaved=12 IEnMin=12 EnMin= -496.811435103662     IErMin=12 ErrMin= 1.30D-07
 ErrMax= 1.30D-07  0.00D+00 EMaxC= 1.00D-01 BMatC= 2.84D-12 BMatP= 5.92D-11
 IDIUse=1 WtCom= 1.00D+00 WtEn= 0.00D+00
 Coeff-Com: -0.276D-07-0.472D-06-0.255D-04 0.153D-04-0.854D-04-0.202D-04
 Coeff-Com: -0.675D-03-0.169D-02 0.234D-02 0.207D-01 0.144D+00 0.836D+00
 Coeff:     -0.276D-07-0.472D-06-0.255D-04 0.153D-04-0.854D-04-0.202D-04
 Coeff:     -0.675D-03-0.169D-02 0.234D-02 0.207D-01 0.144D+00 0.836D+00
 Gap=     0.175 Goal=   None    Shift=    0.000
 RMSDP=8.62D-09 MaxDP=2.82D-07 DE=-5.12D-11 OVMax= 3.38D-07

 Error on total polarization charges =  0.00839
 SCF Done:  E(RB3LYP) =  -496.811435104     A.U. after   12 cycles
            NFock= 12  Conv=0.86D-08     -V/T= 2.0096
 KE= 4.920729547654D+02 PE=-2.270302064303D+03 EE= 7.238408532038D+02
 Leave Link  502 at Fri May 10 12:05:18 2019, MaxMem=   104857600 cpu:             264.4 elap:               8.7
 (Enter /opt/software/gaussian/g16.b01/l601.exe)
 Copying SCF densities to generalized density rwf, IOpCl= 0 IROHF=0.

 **********************************************************************

            Population analysis using the SCF Density.

 **********************************************************************

 Orbital symmetries:
       Occupied  (A) (A) (A) (A) (A) (A) (A) (A) (A) (A) (A) (A)
                 (A) (A) (A) (A) (A) (A) (A) (A) (A) (A) (A) (A)
                 (A) (A) (A) (A) (A) (A) (A) (A) (A) (A) (A) (A)
                 (A) (A) (A) (A) (A)
       Virtual   (A) (A) (A) (A) (A) (A) (A) (A) (A) (A) (A) (A)
                 (A) (A) (A) (A) (A) (A) (A) (A) (A) (A) (A) (A)
                 (A) (A) (A) (A) (A) (A) (A) (A) (A) (A) (A) (A)
                 (A) (A) (A) (A) (A) (A) (A) (A) (A) (A) (A) (A)
                 (A) (A) (A) (A) (A) (A) (A) (A) (A) (A) (A) (A)
                 (A) (A) (A) (A) (A) (A) (A) (A) (A) (A) (A) (A)
                 (A) (A) (A) (A) (A) (A) (A) (A) (A) (A) (A) (A)
                 (A) (A) (A) (A) (A) (A) (A) (A) (A) (A) (A) (A)
                 (A) (A) (A) (A) (A) (A) (A) (A) (A) (A) (A) (A)
                 (A) (A) (A) (A) (A) (A) (A) (A) (A) (A) (A) (A)
                 (A) (A) (A) (A) (A) (A) (A) (A) (A) (A) (A) (A)
                 (A) (A) (A) (A) (A) (A) (A) (A) (A) (A) (A) (A)
                 (A) (A) (A) (A) (A) (A) (A) (A) (A) (A) (A) (A)
                 (A) (A) (A) (A) (A) (A) (A) (A) (A) (A) (A) (A)
                 (A) (A) (A) (A) (A) (A) (A) (A) (A) (A) (A) (A)
                 (A) (A) (A) (A)
 The electronic state is 1-A.
 Alpha  occ. eigenvalues --  -19.14915 -14.33487 -14.32459 -10.28715 -10.20556
 Alpha  occ. eigenvalues --  -10.20490 -10.20360 -10.20077 -10.19956 -10.19895
 Alpha  occ. eigenvalues --  -10.18972  -1.04452  -0.93041  -0.86484  -0.77776
 Alpha  occ. eigenvalues --   -0.75532  -0.73667  -0.73353  -0.63386  -0.61097
 Alpha  occ. eigenvalues --   -0.55654  -0.51538  -0.48409  -0.47834  -0.46828
 Alpha  occ. eigenvalues --   -0.46377  -0.44790  -0.44675  -0.43218  -0.42891
 Alpha  occ. eigenvalues --   -0.42157  -0.39312  -0.38201  -0.36160  -0.35786
 Alpha  occ. eigenvalues --   -0.34874  -0.26529  -0.26388  -0.26113  -0.24822
 Alpha  occ. eigenvalues --   -0.23810
 Alpha virt. eigenvalues --   -0.06295  -0.01084   0.03518   0.07437   0.09776
 Alpha virt. eigenvalues --    0.11913   0.12482   0.14833   0.15193   0.15946
 Alpha virt. eigenvalues --    0.16575   0.18012   0.18206   0.18622   0.19364
 Alpha virt. eigenvalues --    0.21906   0.22087   0.24210   0.27706   0.29841
 Alpha virt. eigenvalues --    0.30502   0.31771   0.36567   0.36907   0.47804
 Alpha virt. eigenvalues --    0.50492   0.51597   0.52848   0.53629   0.55090
 Alpha virt. eigenvalues --    0.56195   0.57912   0.58308   0.59409   0.59506
 Alpha virt. eigenvalues --    0.60558   0.61086   0.64393   0.65781   0.66193
 Alpha virt. eigenvalues --    0.67388   0.67585   0.68746   0.70026   0.71357
 Alpha virt. eigenvalues --    0.72119   0.73801   0.75122   0.76139   0.80192
 Alpha virt. eigenvalues --    0.80970   0.81472   0.82294   0.83297   0.85327
 Alpha virt. eigenvalues --    0.86264   0.87378   0.88245   0.89405   0.91865
 Alpha virt. eigenvalues --    0.92373   0.93278   0.94029   0.95704   1.00051
 Alpha virt. eigenvalues --    1.00788   1.02367   1.03601   1.06761   1.08610
 Alpha virt. eigenvalues --    1.11202   1.14545   1.17235   1.23868   1.25614
 Alpha virt. eigenvalues --    1.26001   1.29994   1.32658   1.33873   1.36938
 Alpha virt. eigenvalues --    1.37665   1.38369   1.39479   1.40636   1.40976
 Alpha virt. eigenvalues --    1.41804   1.43409   1.44913   1.49749   1.57402
 Alpha virt. eigenvalues --    1.67128   1.71138   1.75036   1.75273   1.76897
 Alpha virt. eigenvalues --    1.78681   1.80968   1.83448   1.85677   1.86997
 Alpha virt. eigenvalues --    1.88348   1.90611   1.91765   1.91998   1.94337
 Alpha virt. eigenvalues --    1.96473   1.96792   1.99457   2.02459   2.02731
 Alpha virt. eigenvalues --    2.05705   2.06797   2.06951   2.09281   2.10581
 Alpha virt. eigenvalues --    2.12851   2.16266   2.16758   2.21887   2.24327
 Alpha virt. eigenvalues --    2.26630   2.27031   2.28706   2.29221   2.32977
 Alpha virt. eigenvalues --    2.36424   2.37432   2.37495   2.39310   2.40527
 Alpha virt. eigenvalues --    2.44057   2.44912   2.45820   2.46847   2.48508
 Alpha virt. eigenvalues --    2.51323   2.52703   2.55512   2.56672   2.58911
 Alpha virt. eigenvalues --    2.59358   2.64295   2.65032   2.65420   2.65671
 Alpha virt. eigenvalues --    2.72778   2.74397   2.75646   2.76810   2.79686
 Alpha virt. eigenvalues --    2.81597   2.84345   2.87260   2.93081   2.96315
 Alpha virt. eigenvalues --    3.03695   3.03848   3.05911   3.08681   3.18597
 Alpha virt. eigenvalues --    3.22635   3.23777   3.25021   3.27875   3.33200
 Alpha virt. eigenvalues --    3.37096   3.39108   3.41957   3.42556   3.47746
 Alpha virt. eigenvalues --    3.50984   3.57191   3.79899   3.88977   4.00053
 Alpha virt. eigenvalues --    4.11376   4.13438   4.14886   4.17975   4.34864
 Alpha virt. eigenvalues --    4.42050   4.42837   4.59270   4.83218
          Condensed to atoms (all electrons):
               1          2          3          4          5          6
     1  C    4.583069   0.000000   0.531734   0.000237   0.000001  -0.000004
     2  H    0.000000   0.476783   0.000339  -0.048567   0.005788   0.345489
     3  O    0.531734   0.000339   8.076534   0.000132  -0.000018  -0.011977
     4  N    0.000237  -0.048567   0.000132   6.704024   0.352183   0.210827
     5  H    0.000001   0.005788  -0.000018   0.352183   0.463224  -0.048628
     6  N   -0.000004   0.345489  -0.011977   0.210827  -0.048628   6.789550
     7  H   -0.000954  -0.038025   0.039636  -0.041060  -0.000447   0.316401
     8  H    0.000174  -0.000199   0.000340   0.341914  -0.042715  -0.043141
     9  C    0.332657  -0.000031  -0.088348  -0.004163  -0.000461   0.000679
    10  H   -0.018406   0.000000   0.001619   0.000037   0.000004  -0.000010
    11  H   -0.017592  -0.000000   0.001556   0.000004  -0.000015  -0.000008
    12  H   -0.020268   0.000151   0.001369   0.010971   0.003438  -0.001326
    13  C    0.295194   0.000000  -0.079711   0.000002  -0.000000  -0.000033
    14  C   -0.031954  -0.000000  -0.000472   0.000000  -0.000000   0.000001
    15  C   -0.043888  -0.000000   0.003534  -0.000000  -0.000000   0.000000
    16  C    0.006459  -0.000000   0.000993  -0.000000   0.000000   0.000000
    17  H   -0.010004  -0.000000   0.016321  -0.000000  -0.000000   0.000002
    18  C    0.005076   0.000000  -0.000071  -0.000000   0.000000  -0.000000
    19  H   -0.012026  -0.000000   0.000057  -0.000000  -0.000000   0.000000
    20  C    0.000129  -0.000000  -0.000010   0.000000  -0.000000  -0.000000
    21  H   -0.000149  -0.000000   0.000002   0.000000  -0.000000   0.000000
    22  H   -0.000135  -0.000000   0.000000  -0.000000  -0.000000   0.000000
    23  H    0.000008  -0.000000   0.000000   0.000000   0.000000  -0.000000
               7          8          9         10         11         12
     1  C   -0.000954   0.000174   0.332657  -0.018406  -0.017592  -0.020268
     2  H   -0.038025  -0.000199  -0.000031   0.000000  -0.000000   0.000151
     3  O    0.039636   0.000340  -0.088348   0.001619   0.001556   0.001369
     4  N   -0.041060   0.341914  -0.004163   0.000037   0.000004   0.010971
     5  H   -0.000447  -0.042715  -0.000461   0.000004  -0.000015   0.003438
     6  N    0.316401  -0.043141   0.000679  -0.000010  -0.000008  -0.001326
     7  H    0.461606  -0.006677  -0.000218   0.000031   0.000058  -0.001837
     8  H   -0.006677   0.493562  -0.000818   0.000005   0.000059   0.003611
     9  C   -0.000218  -0.000818   5.194403   0.362312   0.363221   0.346253
    10  H    0.000031   0.000005   0.362312   0.546795  -0.025875  -0.020643
    11  H    0.000058   0.000059   0.363221  -0.025875   0.549383  -0.023437
    12  H   -0.001837   0.003611   0.346253  -0.020643  -0.023437   0.574372
    13  C    0.000485   0.000005  -0.113381   0.001086  -0.000523   0.004811
    14  C   -0.000020  -0.000000   0.009722  -0.000372  -0.000320  -0.000138
    15  C   -0.000006  -0.000000  -0.007178   0.000223   0.000550   0.000164
    16  C   -0.000000  -0.000000  -0.000110  -0.000005  -0.000002   0.000002
    17  H   -0.000030  -0.000000   0.000700  -0.000024  -0.000019  -0.000012
    18  C    0.000000   0.000000  -0.000136   0.000069   0.000145  -0.000005
    19  H   -0.000000  -0.000000   0.006871   0.000629   0.001011  -0.000067
    20  C    0.000000   0.000000  -0.000014   0.000002   0.000001   0.000000
    21  H   -0.000000  -0.000000   0.000002   0.000000   0.000000  -0.000000
    22  H   -0.000000  -0.000000   0.000012  -0.000004  -0.000004  -0.000000
    23  H    0.000000   0.000000  -0.000000   0.000000   0.000000  -0.000000
              13         14         15         16         17         18
     1  C    0.295194  -0.031954  -0.043888   0.006459  -0.010004   0.005076
     2  H    0.000000  -0.000000  -0.000000  -0.000000  -0.000000   0.000000
     3  O   -0.079711  -0.000472   0.003534   0.000993   0.016321  -0.000071
     4  N    0.000002   0.000000  -0.000000  -0.000000  -0.000000  -0.000000
     5  H   -0.000000  -0.000000  -0.000000   0.000000  -0.000000   0.000000
     6  N   -0.000033   0.000001   0.000000   0.000000   0.000002  -0.000000
     7  H    0.000485  -0.000020  -0.000006  -0.000000  -0.000030   0.000000
     8  H    0.000005  -0.000000  -0.000000  -0.000000  -0.000000   0.000000
     9  C   -0.113381   0.009722  -0.007178  -0.000110   0.000700  -0.000136
    10  H    0.001086  -0.000372   0.000223  -0.000005  -0.000024   0.000069
    11  H   -0.000523  -0.000320   0.000550  -0.000002  -0.000019   0.000145
    12  H    0.004811  -0.000138   0.000164   0.000002  -0.000012  -0.000005
    13  C    5.006882   0.481759   0.515010  -0.026871  -0.048861  -0.020889
    14  C    0.481759   4.955569  -0.071962   0.497701   0.370606  -0.040777
    15  C    0.515010  -0.071962   4.946940  -0.040184   0.005638   0.516022
    16  C   -0.026871   0.497701  -0.040184   4.864045  -0.039526  -0.032097
    17  H   -0.048861   0.370606   0.005638  -0.039526   0.591647   0.000219
    18  C   -0.020889  -0.040777   0.516022  -0.032097   0.000219   4.836112
    19  H   -0.038170   0.005287   0.370183   0.000274  -0.000152  -0.039324
    20  C   -0.034983  -0.036862  -0.039884   0.530002   0.004604   0.541611
    21  H    0.003501  -0.036905   0.000767   0.373758  -0.005251   0.004367
    22  H    0.003501   0.000795  -0.035461   0.004307   0.000016   0.372580
    23  H    0.000658   0.004333   0.004694  -0.039656  -0.000158  -0.039458
              19         20         21         22         23
     1  C   -0.012026   0.000129  -0.000149  -0.000135   0.000008
     2  H   -0.000000  -0.000000  -0.000000  -0.000000  -0.000000
     3  O    0.000057  -0.000010   0.000002   0.000000   0.000000
     4  N   -0.000000   0.000000   0.000000  -0.000000   0.000000
     5  H   -0.000000  -0.000000  -0.000000  -0.000000   0.000000
     6  N    0.000000  -0.000000   0.000000   0.000000  -0.000000
     7  H   -0.000000   0.000000  -0.000000  -0.000000   0.000000
     8  H   -0.000000   0.000000  -0.000000  -0.000000   0.000000
     9  C    0.006871  -0.000014   0.000002   0.000012  -0.000000
    10  H    0.000629   0.000002   0.000000  -0.000004   0.000000
    11  H    0.001011   0.000001   0.000000  -0.000004   0.000000
    12  H   -0.000067   0.000000  -0.000000  -0.000000  -0.000000
    13  C   -0.038170  -0.034983   0.003501   0.003501   0.000658
    14  C    0.005287  -0.036862  -0.036905   0.000795   0.004333
    15  C    0.370183  -0.039884   0.000767  -0.035461   0.004694
    16  C    0.000274   0.530002   0.373758   0.004307  -0.039656
    17  H   -0.000152   0.004604  -0.005251   0.000016  -0.000158
    18  C   -0.039324   0.541611   0.004367   0.372580  -0.039458
    19  H    0.591821   0.004648   0.000015  -0.005605  -0.000168
    20  C    0.004648   4.821217  -0.040177  -0.039826   0.373986
    21  H    0.000015  -0.040177   0.593374  -0.000168  -0.005509
    22  H   -0.005605  -0.039826  -0.000168   0.592433  -0.005591
    23  H   -0.000168   0.373986  -0.005509  -0.005591   0.592306
 Mulliken charges:
               1
     1  C    0.400640
     2  H    0.258272
     3  O   -0.493559
     4  N   -0.526541
     5  H    0.267647
     6  N   -0.557823
     7  H    0.271058
     8  H    0.253881
     9  C   -0.401973
    10  H    0.152525
    11  H    0.151807
    12  H    0.122590
    13  C    0.050527
    14  C   -0.105992
    15  C   -0.125163
    16  C   -0.099091
    17  H    0.114285
    18  C   -0.103443
    19  H    0.114715
    20  C   -0.084445
    21  H    0.112374
    22  H    0.113149
    23  H    0.114558
 Sum of Mulliken charges =  -0.00000
 Mulliken charges with hydrogens summed into heavy atoms:
               1
     1  C    0.400640
     3  O   -0.493559
     4  N   -0.005014
     6  N   -0.028493
     9  C    0.024950
    13  C    0.050527
    14  C    0.008294
    15  C   -0.010448
    16  C    0.013283
    18  C    0.009706
    20  C    0.030113
 Electronic spatial extent (au):  <R**2>=           2956.9803
 Charge=             -0.0000 electrons
 Dipole moment (field-independent basis, Debye):
    X=             -5.8952    Y=              3.1331    Z=              1.1942  Tot=              6.7820
 Quadrupole moment (field-independent basis, Debye-Ang):
   XX=            -80.2918   YY=            -57.0431   ZZ=            -67.7206
   XY=              5.0243   XZ=              3.9014   YZ=             -2.0051
 Traceless Quadrupole moment (field-independent basis, Debye-Ang):
   XX=            -11.9400   YY=             11.3087   ZZ=              0.6313
   XY=              5.0243   XZ=              3.9014   YZ=             -2.0051
 Octapole moment (field-independent basis, Debye-Ang**2):
  XXX=           -176.9964  YYY=             -1.4255  ZZZ=              2.5000  XYY=              6.8391
  XXY=              8.6359  XXZ=             17.1987  XZZ=             12.7278  YZZ=              2.4868
  YYZ=              2.1827  XYZ=             -9.3186
 Hexadecapole moment (field-independent basis, Debye-Ang**3):
 XXXX=          -3939.4632 YYYY=           -459.4900 ZZZZ=            -88.3914 XXXY=             25.0533
 XXXZ=             21.0486 YYYX=             -9.5388 YYYZ=             -2.9342 ZZZX=             15.5465
 ZZZY=             -1.4428 XXYY=           -532.3552 XXZZ=           -605.5760 YYZZ=           -100.5904
 XXYZ=            -44.6486 YYXZ=              8.4721 ZZXY=              6.5498
 N-N= 5.575768212301D+02 E-N=-2.270302057828D+03  KE= 4.920729547654D+02
 No NMR shielding tensors so no spin-rotation constants.
 Leave Link  601 at Fri May 10 12:05:18 2019, MaxMem=   104857600 cpu:               6.3 elap:               0.3
 (Enter /opt/software/gaussian/g16.b01/l701.exe)
 ... and contract with generalized density number  0.
 Compute integral first derivatives.
 R6Disp: Adding Grimme-D3 dispersion energy 1st derivatives to the gradient.
 PrsmSu:  requested number of processors reduced to:  30 ShMem   1 Linda.
 D1PCM: PCM CHGder 1st derivatives, ID1Alg=3 FixD1E=F DoIter=F DoCFld=F I1PDM=0.
 GePol: Maximum number of non-zero 1st derivatives   =     203
 CoulSu:  requested number of processors reduced to:  28 ShMem   1 Linda.
 CoulSu:  requested number of processors reduced to:  29 ShMem   1 Linda.
 Leave Link  701 at Fri May 10 12:05:19 2019, MaxMem=   104857600 cpu:              24.5 elap:               0.8
 (Enter /opt/software/gaussian/g16.b01/l702.exe)
 L702 exits ... SP integral derivatives will be done elsewhere.
 Leave Link  702 at Fri May 10 12:05:20 2019, MaxMem=   104857600 cpu:               2.2 elap:               0.1
 (Enter /opt/software/gaussian/g16.b01/l703.exe)
 Integral derivatives from FoFJK, PRISM(SPDF).
 Compute integral first derivatives, UseDBF=F ICtDFT=           0.
 Calling FoFJK, ICntrl=      2127 FMM=F ISym2X=0 I1Cent= 0 IOpClX= 0 NMat=1 NMatS=1 NMatT=0.
 FoFJK:  IHMeth= 1 ICntrl=    2127 DoSepK=F KAlg= 0 I1Cent=           0 FoldK=F
 IRaf=         0 NMat=       1 IRICut=       1 DoRegI=T DoRafI=F ISym2E= 0 IDoP0=0 IntGTp=1.
 FoFCou: FMM=F IPFlag=           0 FMFlag=      100000 FMFlg1=         800
         NFxFlg=           0 DoJE=F BraDBF=F KetDBF=F FulRan=T
         wScrn=  0.000000 ICntrl=      2127 IOpCl=  0 I1Cent=           0 NGrid=           0
         NMat0=    1 NMatS0=      1 NMatT0=    0 NMatD0=    1 NMtDS0=    0 NMtDT0=    0
 Symmetry not used in FoFCou.
 Leave Link  703 at Fri May 10 12:05:21 2019, MaxMem=   104857600 cpu:              41.8 elap:               1.3
 (Enter /opt/software/gaussian/g16.b01/l716.exe)
 Dipole        =-2.31933121D+00 1.23264371D+00 4.69840363D-01
 ***** Axes restored to original set *****
 -------------------------------------------------------------------
 Center     Atomic                   Forces (Hartrees/Bohr)
 Number     Number              X              Y              Z
 -------------------------------------------------------------------
      1        6           0.003158598    0.000007873    0.002822561
      2        1           0.000189874    0.000231196   -0.000165980
      3        8          -0.001322985   -0.000046487   -0.001423090
      4        7          -0.001027105   -0.000349535    0.002522649
      5        1          -0.000541387    0.000982144   -0.000310029
      6        7           0.000421624    0.000019586   -0.000501270
      7        1           0.000049035   -0.000462880   -0.000016290
      8        1           0.000298083   -0.000978654   -0.001572870
      9        6          -0.000445217    0.000493487    0.000463317
     10        1           0.000235300    0.000296233   -0.000381207
     11        1          -0.000335312    0.000333571   -0.001120411
     12        1           0.000389810   -0.000503949   -0.000072197
     13        6          -0.000160291    0.000405844    0.000247711
     14        6           0.000420575    0.000123629    0.000421986
     15        6          -0.000454750    0.000194594   -0.000474344
     16        6          -0.000456907    0.000073090    0.000101963
     17        1           0.000031644   -0.000221193    0.000070886
     18        6          -0.000060828    0.000061528   -0.000548450
     19        1          -0.000026451   -0.000316138   -0.000337096
     20        6          -0.000354128   -0.000177445    0.000325130
     21        1           0.000003620   -0.000036381   -0.000032164
     22        1          -0.000042844   -0.000101720   -0.000010771
     23        1           0.000030040   -0.000028391   -0.000010034
 -------------------------------------------------------------------
 Cartesian Forces:  Max     0.003158598 RMS     0.000760508
 Leave Link  716 at Fri May 10 12:05:21 2019, MaxMem=   104857600 cpu:               1.9 elap:               0.1
 (Enter /opt/software/gaussian/g16.b01/l103.exe)

 GradGradGradGradGradGradGradGradGradGradGradGradGradGradGradGradGradGrad
 Berny optimization.
 FormGI is forming the generalized inverse of G from B-inverse, IUseBI=4.
 GSVD:  received Info=                   1 from GESDD.
 Internal  Forces:  Max     0.002268192 RMS     0.000585989
 Search for a local minimum.
 Step number   1 out of a maximum of  111
 All quantities printed in internal units (Hartrees-Bohrs-Radians)
 RMS Force = .58599D-03 SwitMx=.10000D-02 MixMth= 2
 Mixed Optimization -- En-DIIS/RFO-DIIS
 Second derivative matrix not updated -- first step.
 ITU=  0
     Eigenvalues ---    0.00230   0.00606   0.00630   0.00691   0.00725
     Eigenvalues ---    0.00878   0.01257   0.01681   0.02047   0.02098
     Eigenvalues ---    0.02114   0.02119   0.02136   0.02144   0.02150
     Eigenvalues ---    0.02170   0.03568   0.03918   0.04815   0.05813
     Eigenvalues ---    0.07277   0.07372   0.12810   0.15999   0.16000
     Eigenvalues ---    0.16000   0.16000   0.16000   0.16000   0.16000
     Eigenvalues ---    0.16000   0.16000   0.16000   0.16000   0.16000
     Eigenvalues ---    0.22000   0.22000   0.23474   0.24996   0.25000
     Eigenvalues ---    0.25000   0.31142   0.33282   0.34277   0.34381
     Eigenvalues ---    0.34871   0.35289   0.35321   0.35346   0.35471
     Eigenvalues ---    0.35519   0.38215   0.41455   0.41935   0.43871
     Eigenvalues ---    0.43893   0.44760   0.44765   0.45297   0.45486
     Eigenvalues ---    0.46224   0.46971   0.90373
 RFO step:  Lambda=-8.91182501D-04 EMin= 2.30000000D-03
 Linear search not attempted -- first point.
 Iteration  1 RMS(Cart)=  0.13876172 RMS(Int)=  0.00856326
 Iteration  2 RMS(Cart)=  0.03466223 RMS(Int)=  0.00044280
 Iteration  3 RMS(Cart)=  0.00064032 RMS(Int)=  0.00022113
 Iteration  4 RMS(Cart)=  0.00000055 RMS(Int)=  0.00022113
 ITry= 1 IFail=0 DXMaxC= 8.62D-01 DCOld= 1.00D+10 DXMaxT= 3.00D-01 DXLimC= 3.00D+00 Rises=F
 Variable       Old X    -DE/DX   Delta X   Delta X   Delta X     New X
                                 (Linear)    (Quad)   (Total)
    R1        2.32762  -0.00227   0.00000  -0.00251  -0.00251   2.32511
    R2        2.85741   0.00101   0.00000   0.00324   0.00324   2.86066
    R3        2.81859   0.00104   0.00000   0.00310   0.00310   2.82169
    R4        1.92250   0.00003   0.00000   0.00006   0.00006   1.92256
    R5        4.00131  -0.00060   0.00000  -0.01628  -0.01628   3.98503
    R6        1.92256  -0.00022   0.00000  -0.00049  -0.00049   1.92206
    R7        2.74054  -0.00106   0.00000  -0.00277  -0.00276   2.73777
    R8        1.93282  -0.00079   0.00000  -0.00180  -0.00181   1.93102
    R9        1.93309  -0.00065   0.00000  -0.00148  -0.00146   1.93162
   R10        2.06866  -0.00007   0.00000  -0.00021  -0.00021   2.06845
   R11        2.06692   0.00085   0.00000   0.00247   0.00247   2.06939
   R12        2.05884   0.00039   0.00000   0.00112   0.00112   2.05996
   R13        2.65547   0.00047   0.00000   0.00109   0.00110   2.65657
   R14        2.65167   0.00111   0.00000   0.00249   0.00250   2.65417
   R15        2.62747   0.00061   0.00000   0.00129   0.00129   2.62876
   R16        2.04917   0.00011   0.00000   0.00030   0.00030   2.04947
   R17        2.63544   0.00023   0.00000   0.00049   0.00050   2.63593
   R18        2.04841   0.00025   0.00000   0.00071   0.00071   2.04912
   R19        2.64418   0.00021   0.00000   0.00041   0.00040   2.64458
   R20        2.05157  -0.00003   0.00000  -0.00007  -0.00007   2.05150
   R21        2.63838   0.00049   0.00000   0.00103   0.00102   2.63940
   R22        2.05117   0.00002   0.00000   0.00005   0.00005   2.05121
   R23        2.05209  -0.00003   0.00000  -0.00009  -0.00009   2.05200
    A1        2.10306   0.00025   0.00000   0.00105   0.00100   2.10406
    A2        2.09767   0.00046   0.00000   0.00185   0.00181   2.09947
    A3        2.08244  -0.00071   0.00000  -0.00280  -0.00285   2.07960
    A4        2.15661  -0.00183   0.00000  -0.01139  -0.01139   2.14522
    A5        1.85807   0.00072   0.00000   0.00237   0.00236   1.86044
    A6        1.86265  -0.00152   0.00000  -0.01395  -0.01395   1.84870
    A7        1.92997   0.00136   0.00000   0.00648   0.00650   1.93646
    A8        1.85357   0.00032   0.00000  -0.00065   0.00049   1.85405
    A9        1.85699   0.00039   0.00000   0.00011  -0.00013   1.85686
   A10        1.92866  -0.00176   0.00000  -0.01245  -0.01208   1.91658
   A11        1.93046   0.00044   0.00000   0.00155   0.00155   1.93202
   A12        1.92293   0.00097   0.00000   0.00689   0.00688   1.92981
   A13        1.91094  -0.00014   0.00000  -0.00059  -0.00060   1.91034
   A14        1.87887  -0.00083   0.00000  -0.00573  -0.00574   1.87314
   A15        1.91922  -0.00045   0.00000  -0.00452  -0.00452   1.91469
   A16        1.90101  -0.00000   0.00000   0.00237   0.00235   1.90336
   A17        2.06944   0.00009   0.00000   0.00039   0.00032   2.06975
   A18        2.13310   0.00003   0.00000   0.00016   0.00009   2.13319
   A19        2.08052  -0.00012   0.00000  -0.00026  -0.00028   2.08024
   A20        2.10327  -0.00013   0.00000  -0.00052  -0.00051   2.10276
   A21        2.06893   0.00010   0.00000   0.00050   0.00049   2.06942
   A22        2.11098   0.00003   0.00000   0.00005   0.00003   2.11101
   A23        2.09882   0.00005   0.00000   0.00029   0.00029   2.09911
   A24        2.10304   0.00009   0.00000   0.00062   0.00058   2.10362
   A25        2.08127  -0.00013   0.00000  -0.00077  -0.00081   2.08045
   A26        2.09266   0.00017   0.00000   0.00065   0.00065   2.09331
   A27        2.09457  -0.00008   0.00000  -0.00029  -0.00030   2.09427
   A28        2.09595  -0.00009   0.00000  -0.00034  -0.00034   2.09561
   A29        2.09573  -0.00004   0.00000  -0.00026  -0.00025   2.09548
   A30        2.09061   0.00005   0.00000   0.00036   0.00035   2.09096
   A31        2.09683  -0.00002   0.00000  -0.00009  -0.00010   2.09674
   A32        2.09536   0.00006   0.00000   0.00012   0.00011   2.09547
   A33        2.09421  -0.00003   0.00000  -0.00006  -0.00006   2.09415
   A34        2.09361  -0.00003   0.00000  -0.00005  -0.00005   2.09356
   A35        3.12241  -0.00182   0.00000  -0.23315  -0.23279   2.88962
   A36        3.20401   0.00048   0.00000   0.05076   0.05095   3.25496
    D1       -0.01750  -0.00053   0.00000  -0.00724  -0.00723  -0.02473
    D2        3.13079  -0.00077   0.00000  -0.02536  -0.02537   3.10541
    D3        2.11141  -0.00019   0.00000  -0.00808  -0.00808   2.10333
    D4       -2.09656  -0.00032   0.00000  -0.00986  -0.00985  -2.10641
    D5       -0.00623   0.00019   0.00000  -0.00306  -0.00305  -0.00928
    D6       -1.03682   0.00006   0.00000   0.00989   0.00988  -1.02694
    D7        1.03840  -0.00008   0.00000   0.00812   0.00811   1.04650
    D8        3.12872   0.00043   0.00000   0.01492   0.01492  -3.13955
    D9       -0.06542   0.00028   0.00000   0.03372   0.03371  -0.03171
   D10        3.05878   0.00062   0.00000   0.05303   0.05304   3.11182
   D11        3.08279   0.00004   0.00000   0.01581   0.01580   3.09860
   D12       -0.07619   0.00038   0.00000   0.03512   0.03512  -0.04107
   D13        2.61173  -0.00084   0.00000  -0.17934  -0.18055   2.43118
   D14        0.59583  -0.00012   0.00000  -0.12076  -0.11955   0.47628
   D15        2.79451   0.00028   0.00000  -0.01752  -0.01780   2.77671
   D16       -1.48165   0.00004   0.00000  -0.02391  -0.02362  -1.50527
   D17       -1.47183  -0.00042   0.00000  -0.02940  -0.02970  -1.50154
   D18        0.53519  -0.00066   0.00000  -0.03579  -0.03552   0.49967
   D19        3.12755   0.00028   0.00000   0.01489   0.01489  -3.14074
   D20       -0.00915   0.00014   0.00000   0.00851   0.00851  -0.00065
   D21        0.00282  -0.00005   0.00000  -0.00383  -0.00383  -0.00101
   D22       -3.13389  -0.00020   0.00000  -0.01022  -0.01022   3.13908
   D23       -3.12203  -0.00035   0.00000  -0.01795  -0.01794  -3.13997
   D24        0.00790  -0.00005   0.00000  -0.00452  -0.00452   0.00338
   D25        0.00207  -0.00000   0.00000   0.00149   0.00149   0.00356
   D26        3.13199   0.00030   0.00000   0.01492   0.01492  -3.13627
   D27       -0.00535   0.00007   0.00000   0.00356   0.00356  -0.00179
   D28        3.14065  -0.00006   0.00000  -0.00220  -0.00220   3.13846
   D29        3.13124   0.00022   0.00000   0.01010   0.01010   3.14134
   D30       -0.00594   0.00009   0.00000   0.00434   0.00434  -0.00160
   D31       -0.00440   0.00004   0.00000   0.00110   0.00110  -0.00330
   D32        3.13397   0.00014   0.00000   0.00609   0.00609   3.14006
   D33       -3.13447  -0.00026   0.00000  -0.01217  -0.01216   3.13655
   D34        0.00390  -0.00015   0.00000  -0.00717  -0.00717  -0.00327
   D35        0.00300  -0.00003   0.00000  -0.00092  -0.00092   0.00208
   D36       -3.13685  -0.00010   0.00000  -0.00450  -0.00450  -3.14135
   D37        3.14018   0.00009   0.00000   0.00484   0.00484  -3.13817
   D38        0.00033   0.00003   0.00000   0.00126   0.00126   0.00159
   D39        0.00187  -0.00002   0.00000  -0.00140  -0.00140   0.00047
   D40       -3.14147   0.00005   0.00000   0.00217   0.00217  -3.13929
   D41       -3.13649  -0.00013   0.00000  -0.00641  -0.00641   3.14028
   D42        0.00336  -0.00006   0.00000  -0.00284  -0.00284   0.00052
         Item               Value     Threshold  Converged?
 Maximum Force            0.002268     0.000450     NO 
 RMS     Force            0.000586     0.000300     NO 
 Maximum Displacement     0.861675     0.001800     NO 
 RMS     Displacement     0.168917     0.001200     NO 
 Predicted change in Energy=-4.981369D-04
 Lowest energy point so far.  Saving SCF results.
 GradGradGradGradGradGradGradGradGradGradGradGradGradGradGradGradGradGrad

 Leave Link  103 at Fri May 10 12:05:21 2019, MaxMem=   104857600 cpu:               2.4 elap:               0.1
 (Enter /opt/software/gaussian/g16.b01/l202.exe)
                          Input orientation:                          
 ---------------------------------------------------------------------
 Center     Atomic      Atomic             Coordinates (Angstroms)
 Number     Number       Type             X           Y           Z
 ---------------------------------------------------------------------
      1          6           0        0.418626   -1.468100   -0.218937
      2          1           0        4.691435   -1.179050    1.139083
      3          8           0        1.120918   -1.632916    0.777804
      4          7           0        4.307552   -0.849672   -0.784978
      5          1           0        4.149310   -1.461327   -1.582071
      6          7           0        4.202501   -1.677653    0.399227
      7          1           0        3.225137   -1.741650    0.691625
      8          1           0        3.559216   -0.154382   -0.812240
      9          6           0        1.048753   -1.300143   -1.585066
     10          1           0        0.705693   -2.083498   -2.268265
     11          1           0        0.765256   -0.337704   -2.023847
     12          1           0        2.134017   -1.342986   -1.492058
     13          6           0       -1.069359   -1.445985   -0.096558
     14          6           0       -1.643380   -1.655453    1.169494
     15          6           0       -1.908463   -1.225930   -1.201172
     16          6           0       -3.025318   -1.644029    1.328291
     17          1           0       -0.986150   -1.826746    2.015024
     18          6           0       -3.293916   -1.211720   -1.039934
     19          1           0       -1.489099   -1.066856   -2.188410
     20          6           0       -3.853554   -1.420623    0.222587
     21          1           0       -3.460256   -1.809579    2.309090
     22          1           0       -3.935246   -1.039538   -1.898575
     23          1           0       -4.932383   -1.411315    0.345688
 ---------------------------------------------------------------------
                    Distance matrix (angstroms):
                    1          2          3          4          5
     1  C    0.000000
     2  H    4.492735   0.000000
     3  O    1.230394   3.617335   0.000000
     4  N    3.978266   1.989439   3.634610   0.000000
     5  H    3.971924   2.788953   3.843125   1.017113   0.000000
     6  N    3.839758   1.017374   3.105072   1.448768   1.993782
     7  H    2.963183   1.633024   2.108788   2.036567   2.470297
     8  H    3.455600   2.477808   3.264905   1.021851   1.627560
     9  C    1.513796   4.550251   2.387278   3.385681   3.104745
    10  H    2.158904   5.321108   3.107084   4.086056   3.566014
    11  H    2.157695   5.111445   3.106979   3.787449   3.592981
    12  H    2.139873   3.672896   2.502539   2.338284   2.020770
    13  C    1.493173   5.897865   2.365748   5.453502   5.426001
    14  C    2.492932   6.352777   2.792002   6.315286   6.415922
    15  C    2.537475   7.002689   3.641310   6.241284   6.074299
    16  C    3.779632   7.733064   4.182635   7.672541   7.744602
    17  H    2.663195   5.781156   2.451127   6.067781   6.280571
    18  C    3.810871   8.277380   4.792947   7.614354   7.467116
    19  H    2.771144   7.020242   3.991370   5.968078   5.684620
    20  C    4.295198   8.597393   5.009861   8.242865   8.203919
    21  H    4.642548   8.259331   4.833549   8.416265   8.553823
    22  H    4.686263   9.146938   5.751513   8.319848   8.101736
    23  H    5.381015   9.659260   6.072750   9.325784   9.284175
                    6          7          8          9         10
     6  N    0.000000
     7  H    1.022171   0.000000
     8  H    2.049835   2.211931   0.000000
     9  C    3.745137   3.180392   2.865737   0.000000
    10  H    4.416773   3.901975   3.739531   1.094576   0.000000
    11  H    4.413774   3.923757   3.050870   1.095075   1.763827
    12  H    2.822691   2.473448   1.976391   1.090085   1.786328
    13  C    5.300187   4.376225   4.858410   2.592937   2.876377
    14  C    5.896451   4.892673   5.766064   3.868000   4.185637
    15  C    6.333183   5.495680   5.585248   2.982953   2.950919
    16  C    7.287363   6.283555   7.082161   5.020354   5.200845
    17  H    5.436463   4.415152   5.608082   4.168787   4.612464
    18  C    7.647518   6.765883   6.937955   4.377643   4.273835
    19  H    6.281978   5.565426   5.311491   2.618996   2.420134
    20  C    8.062090   7.101473   7.591008   5.226351   5.237412
    21  H    7.898279   6.878610   7.858458   5.979560   6.195348
    22  H    8.479977   7.646776   7.624342   5.000645   4.771251
    23  H    9.138923   8.171531   8.661867   6.286029   6.250798
                   11         12         13         14         15
    11  H    0.000000
    12  H    1.779578   0.000000
    13  C    2.882455   3.495661   0.000000
    14  C    4.211344   4.631439   1.405797   0.000000
    15  C    2.935049   4.054622   1.404526   2.423802   0.000000
    16  C    5.226066   5.887592   2.428001   1.391078   2.796490
    17  H    4.647274   4.719014   2.147250   1.084534   3.399347
    18  C    4.267185   5.448312   2.427652   2.793338   1.394876
    19  H    2.375050   3.699747   2.166972   3.412590   1.084347
    20  C    5.249056   6.228728   2.802542   2.415915   2.418342
    21  H    6.228620   6.779552   3.411118   2.150226   3.882093
    22  H    4.754260   6.090427   3.409659   3.878795   2.151503
    23  H    6.263420   7.301780   3.888411   3.399382   3.401652
                   16         17         18         19         20
    16  C    0.000000
    17  H    2.159443   0.000000
    18  C    2.422298   3.877733   0.000000
    19  H    3.880758   4.301075   2.144142   0.000000
    20  C    1.399452   3.405844   1.396709   3.395395   0.000000
    21  H    1.085608   2.491579   3.406034   4.966347   2.158579
    22  H    3.406764   4.963177   1.085456   2.463410   2.156671
    23  H    2.157907   4.304883   2.155078   4.289115   1.085869
                   21         22         23
    21  H    0.000000
    22  H    4.303838   0.000000
    23  H    2.486106   2.483790   0.000000
 Stoichiometry    C8H12N2O
 Framework group  C1[X(C8H12N2O)]
 Deg. of freedom    63
 Full point group                 C1      NOp   1
 RotChk:  IX=0 Diff= 2.91D-02
 Largest Abelian subgroup         C1      NOp   1
 Largest concise Abelian subgroup C1      NOp   1
                         Standard orientation:                         
 ---------------------------------------------------------------------
 Center     Atomic      Atomic             Coordinates (Angstroms)
 Number     Number       Type             X           Y           Z
 ---------------------------------------------------------------------
      1          6           0        0.506361    0.042166   -0.093232
      2          1           0        4.700192   -1.493370    0.395207
      3          8           0        1.146834   -1.008270   -0.077479
      4          7           0        4.434069    0.477955    0.364803
      5          1           0        4.307905    1.155993   -0.382771
      6          7           0        4.243218   -0.830633   -0.226890
      7          1           0        3.249590   -1.070485   -0.224219
      8          1           0        3.704217    0.678523    1.051292
      9          6           0        1.216935    1.375333   -0.189810
     10          1           0        0.895973    1.920970   -1.082761
     11          1           0        0.980475    2.001061    0.677220
     12          1           0        2.293904    1.210875   -0.226887
     13          6           0       -0.985316    0.015752   -0.031836
     14          6           0       -1.635111   -1.230321    0.004684
     15          6           0       -1.754961    1.190460   -0.011861
     16          6           0       -3.023254   -1.300817    0.061157
     17          1           0       -1.031140   -2.130931   -0.013577
     18          6           0       -3.146689    1.118298    0.047844
     19          1           0       -1.276552    2.163028   -0.044207
[...]
 0.00001412,0.00002463,0.00001877,-0.00000759,-0.00001587,-0.00000668,0
 .00000635,-0.00000870,0.00001886,-0.00003235,-0.00000916,-0.00002748,-
 0.00000434,-0.00001219,-0.00002126,0.00134922,0.00186146,0.00042121,-0
 .00023848,-0.00006100,0.00033727,0.00009746,0.00001047,-0.00037263,0.0
 0016076,0.00034471,-0.00025602,0.00756611,-0.06757516,0.00726461,-0.09
 701432,0.15805054,0.02501881,-0.00437715,0.00571879,-0.00003064,-0.000
 04963,-0.00003250,-0.00555137,0.00140368,-0.00951501,-0.00022196,-0.00
 010398,-0.00005943,0.00008132,0.00008840,-0.00002018,-0.00017477,-0.00
 000004,0.00000745,0.00038062,-0.00012054,0.00002278,0.00014712,0.00022
 460,0.00011172,-0.00161342,0.00022199,0.00200070,-0.00049159,0.0000488
 9,-0.00004664,-0.00049795,0.00013718,-0.00009691,-0.00036715,0.0000595
 8,0.00047529,0.08071518,-0.00085194,-0.29162759,0.03318483,-0.03635486
 ,0.68971289,-0.02475327,0.00540625,-0.02513460,0.00000287,0.00000025,0
 .00000421,-0.00220295,0.00075685,0.00341564,0.00001626,0.00005190,0.00
 000435,0.00000231,-0.00000225,-0.00000193,-0.00007966,-0.00002315,0.00
 003426,0.00006760,-0.00000992,-0.00004045,-0.00003857,-0.00007373,-0.0
 0001883,-0.00242899,0.00021341,0.00109792,-0.00098131,-0.00030449,-0.0
 0015796,-0.00091002,0.00078430,-0.00006524,0.00044695,-0.00003152,-0.0
 0081667,-0.18912739,0.02473504,-0.06529492,0.05629277,-0.00592345,-0.0
 3856579,0.66498424,0.00462579,-0.00213852,0.00349338,-0.00000098,-0.00
 000094,-0.00000286,0.00030928,0.00335446,-0.00057736,-0.00001159,-0.00
 001472,0.00000315,0.00000800,0.00000766,-0.00000939,0.00000486,0.00000
 566,-0.00001327,0.00003017,0.00002826,0.00001179,0.00000917,0.00000282
 ,0.00001101,0.00017464,-0.00102351,-0.00019314,0.00053317,0.00046568,0
 .00012221,-0.00011838,0.00025301,-0.00002392,-0.00006375,0.00006930,0.
 00020043,0.02755153,-0.06923894,0.02131336,-0.00823898,0.00857968,0.00
 986247,-0.08614692,0.15398714,-0.01244177,0.00145608,0.00998646,0.0000
 4100,0.00004722,0.00001484,0.01052277,-0.00173758,0.00437370,0.0002416
 0,0.00011904,0.00006265,-0.00006482,-0.00006002,0.00002712,0.00022580,
 -0.00000345,-0.00006973,-0.00053147,0.00015063,0.00005427,-0.00016536,
 -0.00027352,-0.00012503,0.00086171,-0.00009429,-0.00102184,0.00053616,
 -0.00076734,0.00009663,0.00071521,0.00054885,0.00017107,0.00006902,0.0
 0004286,-0.00098951,-0.11424980,0.02943743,-0.24721595,0.00213169,0.00
 305532,-0.05263154,-0.03777775,-0.02695734,0.72621378,0.00859157,-0.00
 045203,0.00443432,-0.00000375,-0.00001312,-0.00001483,-0.00060693,0.00
 010537,-0.00260052,-0.00005216,-0.00002846,-0.00001551,0.00003167,0.00
 003172,-0.00000294,-0.00003755,0.00000195,-0.00000646,0.00006312,-0.00
 002591,0.00001698,0.00004291,0.00005122,0.00002197,-0.00026153,-0.0001
 8372,0.00101502,-0.00037650,-0.00003885,-0.00019287,-0.00040621,0.0002
 0531,-0.00012689,-0.00005237,-0.00001672,0.00012631,-0.01458237,-0.000
 53391,0.07625692,-0.33777211,0.04582762,0.00500771,-0.05727380,0.00966
 039,-0.02124704,0.66774215,-0.00046775,0.00724911,0.00004490,0.0000013
 3,0.00000242,0.00000184,0.00012267,-0.00074582,0.00033726,0.00001615,0
 .00000534,0.00000411,-0.00000636,-0.00000560,0.00000313,0.00000692,0.0
 0000226,-0.00000020,-0.00001641,0.00000386,0.00000079,-0.00000796,-0.0
 0000780,-0.00000869,-0.00017401,-0.00072698,-0.00025233,0.00020719,0.0
 0001781,-0.00014587,-0.00004721,-0.00000515,0.00020068,-0.00002990,-0.
 00017263,-0.00001128,0.00204105,0.00840466,-0.01315997,0.04218375,-0.0
 6925968,0.00334677,0.00957947,-0.00851665,0.00362596,-0.08759551,0.148
 60642,0.00335577,0.00023384,-0.00689782,-0.00001148,-0.00000776,0.0000
 0038,-0.00239824,0.00028674,0.00107841,-0.00005454,-0.00004010,-0.0000
 1442,0.00001242,0.00000314,-0.00000954,-0.00003601,0.00001203,0.000027
 53,0.00013719,-0.00004344,-0.00002082,0.00004538,0.00007728,0.00003460
 ,0.00185644,-0.00041827,0.00090015,-0.00024330,0.00001454,0.00005262,-
 0.00025037,0.00007125,0.00006233,0.00020996,-0.00001273,-0.00046104,0.
 03121850,-0.00562078,0.01494472,0.07034855,-0.00758816,-0.13619416,-0.
 02020892,0.00346293,-0.00799078,-0.03572566,-0.02775405,0.73142698,-0.
 00083425,-0.00050766,0.00019422,0.00001679,0.00002235,0.00000909,-0.00
 273606,0.00045317,0.00157730,0.00007428,0.00002820,0.00001889,-0.00002
 597,-0.00002668,0.00000771,0.00009057,-0.00001347,-0.00000558,-0.00017
 221,0.00005827,-0.00001788,-0.00003490,-0.00006137,-0.00003833,0.00001
 959,0.00002832,-0.00032778,0.00001943,-0.00002429,-0.00012024,0.000042
 14,0.00003765,-0.00012733,0.00004008,0.00000917,-0.00002792,0.01226393
 ,-0.00185534,0.00707241,-0.16940691,0.02936086,-0.13673034,-0.00063649
 ,0.00093765,0.00277703,-0.01293731,0.00419721,-0.02370592,0.17809265,-
 0.00030350,-0.00381346,-0.00008507,-0.00000240,-0.00000227,-0.00000051
 ,0.00052802,-0.00009736,-0.00047825,-0.00001619,-0.00000268,-0.0000074
 3,0.00000652,0.00000566,-0.00000247,-0.00000826,-0.00000528,-0.0000008
 6,0.00002076,-0.00001503,0.00000378,0.00001159,0.00001202,0.00001015,-
 0.00001388,0.00005965,0.00003317,-0.00001808,0.00003256,0.00005821,0.0
 0002549,0.00002331,-0.00002618,0.00000174,0.00006810,0.00001179,-0.000
 38041,0.00365468,0.00002802,0.02929102,-0.04609998,0.03321834,0.000883
 03,0.00576249,0.00008463,0.00255840,0.00361177,0.00370905,-0.03351990,
 0.03467086,-0.00321745,0.00045023,-0.00257421,-0.00001398,-0.00001483,
 -0.00000330,0.00025218,-0.00025761,0.00281573,-0.00005230,-0.00001915,
 -0.00001726,0.00001662,0.00001505,-0.00000795,-0.00006737,0.00000941,0
 .00000672,0.00014458,-0.00004398,0.00001295,0.00003065,0.00004711,0.00
 003078,0.00021587,-0.00004950,0.00030557,-0.00003354,0.00004737,0.0001
 0990,-0.00004345,-0.00004123,0.00009393,0.00005158,-0.00000721,-0.0000
 1252,-0.01916742,0.00444349,-0.01832192,-0.13599301,0.03309264,-0.2255
 1803,0.00387797,-0.00010266,-0.00390882,0.00585628,-0.00122677,0.00877
 532,0.14668882,-0.03616995,0.23723749,0.00566589,0.00063899,-0.0044759
 4,-0.00001971,-0.00002286,-0.00000817,-0.00453996,0.00053027,-0.001501
 27,-0.00011131,-0.00005551,-0.00002679,0.00002858,0.00002846,-0.000010
 26,-0.00010016,0.00000069,0.00003228,0.00026663,-0.00008121,-0.0000179
 5,0.00009074,0.00015287,0.00006241,0.00038772,-0.00030733,-0.00027405,
 0.00015847,0.00008655,0.00034547,0.00002688,-0.00009266,0.00036106,0.0
 0006760,0.00000537,0.00002215,-0.04205262,0.01177510,-0.05750346,-0.03
 988689,0.00369987,0.03303298,-0.32950184,0.04101703,0.06627141,0.06197
 310,-0.00930899,0.00343590,-0.00043579,-0.00009009,0.00071185,0.682860
 93,0.00071006,0.00794267,0.00143456,0.00000453,0.00000279,-0.00000176,
 0.00047449,-0.00177776,0.00003919,-0.00001771,0.00001192,0.00000961,0.
 00000200,0.00000081,0.00000115,0.00000550,-0.00002251,0.00000558,-0.00
 002889,-0.00002376,-0.00000400,0.00000762,0.00001853,0.00000070,-0.000
 35257,-0.00165001,-0.00005246,0.00035691,0.00013542,-0.00012413,-0.000
 28872,0.00030990,0.00006222,0.00001776,0.00017254,-0.00002183,0.009243
 23,0.00708906,0.00759946,0.00381435,-0.00714661,-0.00442833,0.04476156
 ,-0.06964173,-0.00705021,-0.00678536,0.00841611,0.00280980,-0.00009056
 ,-0.00066189,-0.00015563,-0.09415368,0.14997984,-0.00548237,0.00161512
 ,-0.00356952,0.00000973,0.00002070,0.00002022,0.00033606,-0.00023265,0
 .00143824,0.00009870,0.00007329,0.00002957,-0.00003851,-0.00004117,0.0
 0000874,0.00003351,-0.00001422,0.00001672,-0.00012847,0.00004715,-0.00
 003436,-0.00006252,-0.00011178,-0.00006585,0.00027273,-0.00018449,-0.0
 0022151,-0.00004135,0.00037337,-0.00009011,-0.00017794,-0.00026843,-0.
 00013167,0.00002450,0.00000381,0.00034878,-0.01245555,0.00010974,0.044
 69734,0.03093409,-0.00407522,-0.02643290,-0.00013844,0.00408245,-0.133
 72540,-0.04153327,0.01032510,-0.05252950,0.00080929,-0.00017008,0.0000
 3225,0.03305212,-0.03838005,0.71280895,0.00024565,-0.00068782,-0.00087
 954,0.00000624,0.00002055,0.00001888,0.00049495,-0.00002175,0.00067521
 ,0.00006517,0.00002481,0.00002162,-0.00003629,-0.00004187,0.00000475,0
 .00005834,-0.00000263,0.00002348,-0.00007041,0.00003378,-0.00003829,-0
 .00002555,-0.00003887,-0.00003116,-0.00197252,0.00057096,-0.00002948,-
 0.00153025,0.00067105,0.00022574,-0.00182400,-0.00024747,0.00014912,0.
 00008843,-0.00006826,-0.00007127,0.01163797,-0.00055211,-0.01804828,-0
 .00255240,0.00164449,-0.00302729,-0.09154028,0.00393789,0.08992076,-0.
 00077167,0.00005538,-0.00048454,0.00054040,0.00009504,-0.00105153,-0.0
 0594473,-0.00000743,0.03039547,0.09796220,-0.00085030,-0.00412422,-0.0
 0006302,-0.00000134,-0.00000484,-0.00000356,0.00005211,0.00061560,-0.0
 0007481,-0.00000192,-0.00000742,-0.00000969,0.00000484,0.00000636,0.00
 000171,-0.00000607,0.00000569,-0.00000901,0.00000890,0.00000819,0.0000
 1284,-0.00000728,-0.00000910,0.00000141,0.00054028,0.00163531,0.000093
 72,0.00070106,-0.00057111,-0.00011284,-0.00029557,-0.00028935,0.000020
 19,-0.00008640,-0.00034659,-0.00003783,-0.00213306,0.00231265,0.004100
 21,0.00169426,0.00590521,0.00094217,0.00393394,-0.03810007,0.00047792,
 0.00006164,-0.00062785,0.00002199,0.00000181,0.00075606,0.00027174,0.0
 0174911,0.00429737,-0.00482008,-0.00648444,0.02667067,0.00183283,-0.00
 049048,-0.00091247,-0.00000251,0.00000887,0.00001449,-0.00056311,0.000
 11177,0.00025376,0.00002137,0.00000147,0.00000695,-0.00001921,-0.00002
 416,0.00000010,0.00001901,0.00000380,0.00002696,0.00001453,0.00000123,
 -0.00003789,0.00000111,0.00000576,-0.00000658,0.00082765,-0.00010728,0
 .00018751,0.00038764,0.00042752,0.00035514,0.00006982,-0.00050718,0.00
 019209,0.00013723,-0.00006417,0.00056243,0.00992954,-0.00055883,-0.017
 36545,-0.00413535,0.00112270,-0.00138712,0.09004031,0.00042139,-0.3108
 1410,-0.00043687,0.00001276,0.00044520,0.00067660,-0.00001423,-0.00095
 091,-0.00065531,0.00039195,-0.00047670,-0.09878732,-0.00062033,0.32759
 410,0.00080190,-0.00019198,-0.00169752,-0.00001390,-0.00001875,-0.0000
 1087,-0.00106044,0.00015262,0.00078952,-0.00008571,-0.00005391,-0.0000
 2724,0.00002837,0.00002868,-0.00001060,-0.00005773,0.00000796,0.000003
 24,0.00014755,-0.00005189,0.00000828,0.00003884,0.00007922,0.00005535,
 -0.00011953,0.00008838,0.00006380,0.00003365,-0.00009927,0.00001015,0.
 00005701,0.00006480,0.00000355,-0.00002248,0.00000084,-0.00009032,-0.0
 0168584,-0.00055177,-0.00891485,-0.04048871,0.00884543,-0.01780069,-0.
 00849251,0.00050515,0.03597972,-0.20539034,0.03131547,-0.12954024,-0.0
 0419115,0.00189989,0.00193952,-0.15444492,0.00962430,0.10243488,-0.005
 26981,0.00211726,0.00053431,0.72479112,-0.00020111,-0.00073588,0.00044
 630,0.00000190,0.00000339,0.00000168,0.00026888,-0.00004138,-0.0001418
 8,0.00002062,0.00001079,0.00000655,-0.00000461,-0.00000542,0.00000102,
 0.00001255,0.00000188,-0.00000272,-0.00003083,0.00001334,-0.00000210,-
 0.00000938,-0.00002179,-0.00001136,0.00005206,0.00029083,0.00004094,-0
 .00003157,-0.00002650,0.00002246,-0.00002208,-0.00003983,-0.00005983,-
 0.00000073,-0.00000002,0.00002214,-0.00053585,-0.00811976,0.00451114,0
 .01143249,0.00449155,0.00055832,-0.00216464,0.00739866,-0.00646083,0.0
 2754515,-0.06860248,0.03239629,0.00187236,0.00750857,0.00006113,0.0134
 1080,-0.06455413,-0.00300869,0.00216421,0.00717860,0.00024502,-0.09715
 294,0.15569455,-0.00107584,0.00031886,-0.00378306,-0.00000456,-0.00000
 298,0.00000306,-0.00169712,0.00026242,0.00030186,-0.00002035,-0.000012
 64,-0.00000279,-0.00000344,-0.00000349,-0.00000295,-0.00001631,0.00000
 045,0.00001346,0.00006397,-0.00001346,-0.00001552,0.00001842,0.0000404
 2,0.00001428,0.00029700,0.00004369,-0.00070756,0.00026766,0.00002940,0
 .00024485,0.00025461,-0.00015818,0.00023215,0.00004548,-0.00001469,-0.
 00007526,-0.00909775,0.00453269,-0.06116657,-0.06382413,0.00824633,0.0
 4972599,0.08341143,-0.01440391,0.01428494,-0.06299086,0.02127941,-0.25
 269632,0.00246859,-0.00002458,0.00083367,0.03578918,0.00817288,-0.3127
 8541,-0.00030922,0.00037395,0.00169464,-0.01920757,-0.02659388,0.66634
 342,0.00076888,-0.00016945,0.00192902,-0.00000550,-0.00000965,-0.00000
 738,-0.00030131,0.00009748,-0.00040376,-0.00003508,-0.00001692,-0.0000
 1182,0.00001557,0.00001716,-0.00000308,-0.00003163,0.00000334,-0.00000
 412,0.00006147,-0.00002230,0.00001282,0.00001982,0.00003028,0.00002072
 ,-0.00056386,0.00004992,-0.00008683,0.00002374,0.00000870,-0.00000361,
 0.00000214,-0.00001220,0.00001204,-0.00007793,-0.00000684,0.00016425,-
 0.00516770,0.00218560,-0.00057190,-0.00661384,-0.00010636,0.03022440,-
 0.00094892,0.00011657,-0.00060251,-0.09420739,0.00426488,0.09339630,0.
 00088112,-0.00085039,-0.00035818,-0.00210523,0.00168966,-0.00292467,0.
 00012532,-0.00023415,0.00011189,0.01093251,-0.00020985,-0.02000174,0.0
 9611313,0.00000149,0.00046196,-0.00028392,0.00000058,0.00000114,0.0000
 0119,0.00004487,0.00012326,0.00006044,0.00000469,0.00000084,0.00000092
 ,-0.00000174,-0.00000154,0.00000117,0.00000354,-0.00000028,-0.00000002
 ,-0.00000787,0.00000298,-0.00000158,-0.00000097,-0.00000199,-0.0000022
 3,0.00003978,-0.00030519,-0.00000132,0.00003120,-0.00000079,-0.0000507
 0,-0.00003656,0.00000916,0.00005387,0.00000387,-0.00004643,-0.00002947
 ,0.00210037,0.00734118,0.00043674,0.00163042,0.00286438,-0.00487592,0.
 00011928,-0.00048421,0.00005309,0.00427485,-0.03790270,-0.00053200,-0.
 00087485,-0.00417537,-0.00022215,0.00174966,0.00666231,0.00096603,-0.0
 0023502,-0.00119319,-0.00008540,-0.00196049,0.00300290,0.00448301,-0.0
 0607485,0.02711132,-0.00093750,0.00020013,-0.00023455,0.00000555,0.000
 00789,0.00000608,0.00045972,-0.00008290,0.00022482,0.00003217,0.000017
 45,0.00000909,-0.00001278,-0.00001187,0.00000352,0.00002608,-0.0000038
 7,-0.00000082,-0.00005806,0.00002028,-0.00000532,-0.00001798,-0.000030
 29,-0.00001893,0.00013636,-0.00004255,0.00001396,-0.00000235,0.0000091
 7,-0.00001412,-0.00000354,-0.00000683,-0.00000751,0.00002273,-0.000002
 28,-0.00004496,0.00087222,0.00019468,0.00171931,-0.00059196,0.00027993
 ,-0.00032535,-0.00074441,0.00007678,0.00036145,0.09327588,-0.00051634,
 -0.30573199,0.00010742,-0.00030108,0.00072409,-0.00389064,0.00113135,-
 0.00152935,0.00011087,-0.00008408,-0.00006389,0.01104844,-0.00070392,-
 0.01739139,-0.10018909,0.00010431,0.32244913,0.00101404,0.00000696,-0.
 00135268,-0.00000782,-0.00001233,-0.00000717,-0.00130381,0.00017629,-0
 .00038754,-0.00004737,-0.00002136,-0.00001330,0.00001789,0.00001748,-0
 .00000512,-0.00004868,0.00000394,0.00000660,0.00009735,-0.00003359,0.0
 0000274,0.00002765,0.00004523,0.00002505,-0.00011155,0.00001827,0.0000
 2626,0.00001907,-0.00000846,0.00000692,0.00001743,0.00000473,0.0000053
 2,-0.00004089,0.00000301,0.00005095,-0.00460194,0.00183184,0.00310282,
 -0.00037264,-0.00006435,0.00084466,-0.01436855,0.00428729,-0.02524658,
 -0.00009888,0.00104717,0.00260856,0.00002280,-0.00018646,-0.00015289,-
 0.16622121,0.02924103,-0.13433083,0.00074461,-0.00082589,0.00008918,0.
 01091757,-0.00195632,0.01091990,0.00044325,-0.00006564,0.00058499,0.17
 327866,-0.00010570,0.00063119,0.00024639,0.00000130,0.00000217,0.00000
 152,0.00016537,-0.00039567,0.00004621,0.00000626,0.00000284,0.00000234
 ,-0.00000323,-0.00000235,0.00000136,0.00000745,-0.00000153,-0.00000009
 ,-0.00001837,0.00000139,-0.00000108,-0.00000392,-0.00000447,-0.0000046
 7,0.00001921,-0.00001441,-0.00000915,-0.00001059,0.00001217,0.00000325
 ,0.00000835,0.00000548,-0.00000327,0.00000970,0.00001160,-0.00000790,0
 .00192203,0.00707044,-0.00016512,-0.00007912,-0.00046389,-0.00015807,0
 .00254150,0.00204951,0.00392963,0.00099165,0.00687130,0.00017491,-0.00
 018482,-0.00110548,-0.00004069,0.02924461,-0.04361699,0.03330901,-0.00
 080242,-0.00401636,-0.00029751,-0.00019100,0.00303858,-0.00068548,0.00
 002571,0.00024060,-0.00002894,-0.03276512,0.03352231,0.00075391,-0.000
 11099,0.00030864,-0.00000260,-0.00000398,-0.00000374,-0.00011237,0.000
 00539,-0.00009930,-0.00001599,-0.00001025,-0.00000462,0.00000715,0.000
 00606,-0.00000157,-0.00001023,0.00000424,-0.00000009,0.00002562,-0.000
 01149,0.00000353,0.00000867,0.00001573,0.00000984,-0.00007162,0.000008
 44,0.00006313,-0.00000524,-0.00001406,-0.00000234,-0.00000293,0.000016
 55,-0.00000192,-0.00001147,0.00000172,0.00000496,0.00144267,0.00011462
 ,0.00102786,0.00100241,-0.00018035,-0.00022762,0.00580276,-0.00127624,
 0.00804576,0.00356818,0.00001356,-0.00376237,-0.00015134,-0.00004241,0
 .00003863,-0.13450217,0.03333840,-0.22814072,-0.00028510,-0.00023246,0
 .00082104,-0.02018437,0.00452470,-0.01728481,-0.00103755,0.00024281,-0
 .00097803,0.14360311,-0.03610481,0.23930453,0.00041308,-0.00030553,-0.
 00002529,-0.00000303,-0.00000567,-0.00000326,-0.00039842,0.00011162,-0
 .00002732,-0.00002616,-0.00001159,-0.00001082,0.00000932,0.00001281,-0
 .00000317,-0.00002398,-0.00000410,0.00000105,0.00004967,-0.00001344,0.
 00000685,0.00001446,0.00002256,0.00001471,-0.00009649,0.00005551,0.000
 03358,-0.00000439,-0.00002851,-0.00000331,0.00002558,0.00000885,0.0000
 0130,-0.00002427,-0.00000217,0.00001552,0.00041148,-0.00014914,-0.0002
 4682,-0.00008650,0.00142244,-0.00356466,0.00147156,0.00087201,0.002033
 25,-0.01361363,0.00261545,0.00603425,-0.00069273,0.00006806,0.00036521
 ,-0.00616215,0.00177193,-0.00108715,-0.00043137,0.00006120,-0.00009333
 ,-0.32642546,0.04553888,0.04471262,0.00067146,-0.00074661,-0.00023414,
 0.00062304,-0.00077886,0.00017850,0.34429895,-0.00029072,-0.00135453,-
 0.00007359,0.00000100,0.00000087,0.00000077,0.00011245,0.00024830,0.00
 000727,0.00000114,0.00000109,-0.00000089,-0.00000104,-0.00000124,0.000
 00017,0.00000384,-0.00000142,-0.00000003,-0.00000676,0.00000329,-0.000
 00027,-0.00000337,-0.00000492,-0.00000082,0.00005182,0.00022728,0.0000
 1306,-0.00008860,-0.00002730,-0.00000522,0.00006740,-0.00005654,-0.000
 00423,0.00000015,-0.00002281,-0.00000456,-0.00015070,-0.00054361,0.000
 07894,0.00137867,0.00692517,0.00120806,0.00091331,0.00719496,0.0003759
 0,0.00435834,0.00338226,-0.00125649,0.00015193,-0.00018692,-0.00008679
 ,0.00002294,0.00405614,0.00038107,-0.00002806,-0.00010160,0.00001533,0
 .04554202,-0.04648645,-0.00587024,-0.00077634,-0.00371033,-0.00022704,
 -0.00074375,-0.00383843,-0.00030519,-0.05051569,0.03429672,-0.00019476
 ,-0.00004538,-0.00003880,0.00000007,0.00000129,0.00000165,0.00002947,-
 0.00000256,0.00023511,0.00000463,0.00000169,0.00000143,-0.00000266,-0.
 00000356,0.00000042,0.00000389,0.00000100,0.00000197,-0.00000275,0.000
 00091,-0.00000306,-0.00000162,-0.00000206,-0.00000204,0.00004192,0.000
 00356,-0.00001502,-0.00001074,0.00004309,0.00001608,-0.00001418,-0.000
 04285,0.00000904,0.00000821,-0.00000314,0.00003232,-0.00021554,0.00007
 347,-0.00124403,-0.00279858,0.00108362,-0.00366064,0.00127706,0.000498
 74,-0.00519996,-0.02468586,0.00387922,0.00856053,-0.00115471,0.0001659
 7,0.00029789,0.02974921,-0.00477845,0.00033219,0.00149712,-0.00025014,
 -0.00013932,0.04461351,-0.00585250,-0.06778069,0.00033480,-0.00031888,
 0.00083475,-0.00038094,-0.00020783,0.00087921,-0.04809759,0.00575480,0
 .06688096\\-0.00000285,0.00000663,-0.00000760,-0.00000004,0.00000059,0
 .00000178,0.00000331,-0.00000110,0.00000592,-0.00000391,0.00000576,0.0
 0000143,0.00000044,-0.00000216,-0.00000251,0.00000856,-0.00000403,-0.0
 0000994,-0.00000631,0.00000154,0.00000332,-0.00000010,-0.00000136,0.00
 000197,-0.00000472,-0.00000882,0.00000138,0.00000283,0.00000236,-0.000
 00106,0.00000065,0.00000297,0.00000134,0.00000012,0.00000167,-0.000004
 19,0.00000121,-0.00000214,0.00000172,0.00000151,-0.00000045,-0.0000003
 9,-0.00000050,-0.00000187,-0.00000040,0.00000039,-0.00000034,0.0000007
 3,0.00000049,-0.00000018,0.00000071,-0.00000040,0.00000065,0.00000110,
 -0.00000186,0.00000143,0.00000081,0.00000036,-0.00000058,0.00000075,0.
 00000094,-0.00000025,0.00000088,-0.00000036,0.00000009,0.00000104,0.00
 000024,-0.00000040,0.00000124\\\@


 HICKORY, DICKORY, DOCK
 TWO MICE RAN UP THE CLOCK
 THE CLOCK STRUCK ONE...
 THE OTHER ESCAPED WITH MINOR INJURIES.
 Job cpu time:       0 days  0 hours 36 minutes 17.7 seconds.
 Elapsed time:       0 days  0 hours  1 minutes  9.9 seconds.
 File lengths (MBytes):  RWF=    185 Int=      0 D2E=      0 Chk=     14 Scr=      1
 Normal termination of Gaussian 16 at Fri May 10 12:13:37 2019.
