 Entering Gaussian System, Link 0=g16
 Initial command:
 /project/6004141/group/g16/g16/l1.exe "/scratch/rzk/GaussianScratch/Gau-298656.inp" -scrdir="/scratch/rzk/GaussianScratch/"
 Entering Link 1 = /project/6004141/group/g16/g16/l1.exe PID=    298658.
  
 Copyright (c) 1988,1990,1992,1993,1995,1998,2003,2009,2016,
            Gaussian, Inc.  All Rights Reserved.
  
 This is part of the Gaussian(R) 16 program.  It is based on
 the Gaussian(R) 09 system (copyright 2009, Gaussian, Inc.),
 the Gaussian(R) 03 system (copyright 2003, Gaussian, Inc.),
 the Gaussian(R) 98 system (copyright 1998, Gaussian, Inc.),
 the Gaussian(R) 94 system (copyright 1995, Gaussian, Inc.),
 the Gaussian 92(TM) system (copyright 1992, Gaussian, Inc.),
 the Gaussian 90(TM) system (copyright 1990, Gaussian, Inc.),
 the Gaussian 88(TM) system (copyright 1988, Gaussian, Inc.),
 the Gaussian 86(TM) system (copyright 1986, Carnegie Mellon
 University), and the Gaussian 82(TM) system (copyright 1983,
 Carnegie Mellon University). Gaussian is a federally registered
 trademark of Gaussian, Inc.
  
 This software contains proprietary and confidential information,
 including trade secrets, belonging to Gaussian, Inc.
  
 This software is provided under written license and may be
 used, copied, transmitted, or stored only in accord with that
 written license.
  
 The following legend is applicable only to US Government
 contracts under FAR:
  
                    RESTRICTED RIGHTS LEGEND
  
 Use, reproduction and disclosure by the US Government is
 subject to restrictions as set forth in subparagraphs (a)
 and (c) of the Commercial Computer Software - Restricted
 Rights clause in FAR 52.227-19.
  
 Gaussian, Inc.
 340 Quinnipiac St., Bldg. 40, Wallingford CT 06492
  
  
 ---------------------------------------------------------------
 Warning -- This program may not be used in any manner that
 competes with the business of Gaussian, Inc. or will provide
 assistance to any competitor of Gaussian, Inc.  The licensee
 of this program is prohibited from giving any competitor of
 Gaussian, Inc. access to this program.  By using this program,
 the user acknowledges that Gaussian, Inc. is engaged in the
 business of creating and licensing software in the field of
 computational chemistry and represents and warrants to the
 licensee that it is not a competitor of Gaussian, Inc. and that
 it will not use this program in any manner prohibited above.
 ---------------------------------------------------------------
  

 Cite this work as:
 Gaussian 16, Revision A.03,
 M. J. Frisch, G. W. Trucks, H. B. Schlegel, G. E. Scuseria, 
 M. A. Robb, J. R. Cheeseman, G. Scalmani, V. Barone, 
 G. A. Petersson, H. Nakatsuji, X. Li, M. Caricato, A. V. Marenich, 
 J. Bloino, B. G. Janesko, R. Gomperts, B. Mennucci, H. P. Hratchian, 
 J. V. Ortiz, A. F. Izmaylov, J. L. Sonnenberg, D. Williams-Young, 
 F. Ding, F. Lipparini, F. Egidi, J. Goings, B. Peng, A. Petrone, 
 T. Henderson, D. Ranasinghe, V. G. Zakrzewski, J. Gao, N. Rega, 
 G. Zheng, W. Liang, M. Hada, M. Ehara, K. Toyota, R. Fukuda, 
 J. Hasegawa, M. Ishida, T. Nakajima, Y. Honda, O. Kitao, H. Nakai, 
 T. Vreven, K. Throssell, J. A. Montgomery, Jr., J. E. Peralta, 
 F. Ogliaro, M. J. Bearpark, J. J. Heyd, E. N. Brothers, K. N. Kudin, 
 V. N. Staroverov, T. A. Keith, R. Kobayashi, J. Normand, 
 K. Raghavachari, A. P. Rendell, J. C. Burant, S. S. Iyengar, 
 J. Tomasi, M. Cossi, J. M. Millam, M. Klene, C. Adamo, R. Cammi, 
 J. W. Ochterski, R. L. Martin, K. Morokuma, O. Farkas, 
 J. B. Foresman, and D. J. Fox, Gaussian, Inc., Wallingford CT, 2016.
 
 ******************************************
 Gaussian 16:  ES64L-G16RevA.03 25-Dec-2016
                15-Jul-2019 
 ******************************************
 %NProcShared=40
 Will use up to   40 processors via shared memory.
 %chk=ABH.chk
 ----------------------------------------------------------------------
 #p opt ub3lyp/6-31g(d,p) scrf=(iefpcm,solvent=acetonitrile) empiricald
 ispersion=gd3
 ----------------------------------------------------------------------
 1/18=20,19=15,26=3,38=1/1,3;
 2/9=110,12=2,17=6,18=5,40=1/2;
 3/5=1,6=6,7=101,11=2,25=1,30=1,70=2201,71=1,72=2,74=-5,116=2,124=31/1,2,3;
 4//1;
 5/5=2,38=5,53=2/2;
 6/7=2,8=2,9=2,10=2,28=1/1;
 7//1,2,3,16;
 1/18=20,19=15,26=3/3(2);
 2/9=110/2;
 99//99;
 2/9=110/2;
 3/5=1,6=6,7=101,11=2,25=1,30=1,70=2205,71=1,72=2,74=-5,116=2,124=31/1,2,3;
 4/5=5,16=3,69=1/1;
 5/5=2,38=5,53=2/2;
 7//1,2,3,16;
 1/18=20,19=15,26=3/3(-5);
 2/9=110/2;
 6/7=2,8=2,9=2,10=2,19=2,28=1/1;
 99/9=1/99;
 Leave Link    1 at Mon Jul 15 21:32:49 2019, MaxMem=           0 cpu:               7.2 elap:               0.2
 (Enter /project/6004141/group/g16/g16/l101.exe)
 ----------------------------------------------------------
 Start with the ground state acetophenone-hydrazine complex
 ----------------------------------------------------------
 Symbolic Z-matrix:
 Charge =  0 Multiplicity = 3
 C                     0.56833   0.21082  -0.4047 
 H                     4.90274  -0.95786  -0.402 
 O                     1.2594   -0.78588  -0.61312 
 N                     3.81889  -0.33344   1.14533 
 H                     3.50096   0.59323   1.42235 
 N                     4.21805  -0.22116  -0.24515 
 H                     3.41369  -0.45009  -0.83165 
 H                     2.98939  -0.92602   1.20901 
 C                     1.18804   1.59216  -0.38607 
 H                     0.71512   2.23599  -1.13463 
 H                     1.03617   2.06554   0.58974 
 H                     2.25554   1.52027  -0.59245 
 C                    -0.89882   0.07122  -0.16117 
 C                    -1.46194  -1.21651  -0.17624 
 C                    -1.72782   1.17837   0.08347 
 C                    -2.82339  -1.39442   0.04776 
 H                    -0.81242  -2.06419  -0.3654 
 C                    -3.09245   0.99861   0.30822 
 H                    -1.31682   2.1816    0.10067 
 C                    -3.6416   -0.2857    0.29062 
 H                    -3.24972  -2.39273   0.03424 
 H                    -3.72612   1.85949   0.49672 
 H                    -4.70436  -0.42336   0.46572 
 
 Add virtual bond connecting atoms H7         and O3         Dist= 4.14D+00.
 Add virtual bond connecting atoms H7         and H12        Dist= 4.34D+00.
 ITRead=  0  0  0  0  0  0  0  0  0  0  0  0  0  0  0  0  0  0  0  0
 ITRead=  0  0  0
 MicOpt= -1 -1 -1 -1 -1 -1 -1 -1 -1 -1 -1 -1 -1 -1 -1 -1 -1 -1 -1 -1
 MicOpt= -1 -1 -1
 NAtoms=     23 NQM=       23 NQMF=       0 NMMI=      0 NMMIF=      0
                NMic=       0 NMicF=      0.
                    Isotopes and Nuclear Properties:
 (Nuclear quadrupole moments (NQMom) in fm**2, nuclear magnetic moments (NMagM)
  in nuclear magnetons)

  Atom         1           2           3           4           5           6           7           8           9          10
 IAtWgt=          12           1          16          14           1          14           1           1          12           1
 AtmWgt=  12.0000000   1.0078250  15.9949146  14.0030740   1.0078250  14.0030740   1.0078250   1.0078250  12.0000000   1.0078250
 NucSpn=           0           1           0           2           1           2           1           1           0           1
 AtZEff=  -0.0000000  -0.0000000  -0.0000000  -0.0000000  -0.0000000  -0.0000000  -0.0000000  -0.0000000  -0.0000000  -0.0000000
 NQMom=    0.0000000   0.0000000   0.0000000   2.0440000   0.0000000   2.0440000   0.0000000   0.0000000   0.0000000   0.0000000
 NMagM=    0.0000000   2.7928460   0.0000000   0.4037610   2.7928460   0.4037610   2.7928460   2.7928460   0.0000000   2.7928460
 AtZNuc=   6.0000000   1.0000000   8.0000000   7.0000000   1.0000000   7.0000000   1.0000000   1.0000000   6.0000000   1.0000000

  Atom        11          12          13          14          15          16          17          18          19          20
 IAtWgt=           1           1          12          12          12          12           1          12           1          12
 AtmWgt=   1.0078250   1.0078250  12.0000000  12.0000000  12.0000000  12.0000000   1.0078250  12.0000000   1.0078250  12.0000000
 NucSpn=           1           1           0           0           0           0           1           0           1           0
 AtZEff=  -0.0000000  -0.0000000  -0.0000000  -0.0000000  -0.0000000  -0.0000000  -0.0000000  -0.0000000  -0.0000000  -0.0000000
 NQMom=    0.0000000   0.0000000   0.0000000   0.0000000   0.0000000   0.0000000   0.0000000   0.0000000   0.0000000   0.0000000
 NMagM=    2.7928460   2.7928460   0.0000000   0.0000000   0.0000000   0.0000000   2.7928460   0.0000000   2.7928460   0.0000000
 AtZNuc=   1.0000000   1.0000000   6.0000000   6.0000000   6.0000000   6.0000000   1.0000000   6.0000000   1.0000000   6.0000000

  Atom        21          22          23
 IAtWgt=           1           1           1
 AtmWgt=   1.0078250   1.0078250   1.0078250
 NucSpn=           1           1           1
 AtZEff=  -0.0000000  -0.0000000  -0.0000000
 NQMom=    0.0000000   0.0000000   0.0000000
 NMagM=    2.7928460   2.7928460   2.7928460
 AtZNuc=   1.0000000   1.0000000   1.0000000
 Leave Link  101 at Mon Jul 15 21:32:50 2019, MaxMem=   104857600 cpu:               6.6 elap:               0.2
 (Enter /project/6004141/group/g16/g16/l103.exe)

 GradGradGradGradGradGradGradGradGradGradGradGradGradGradGradGradGradGrad
 Berny optimization.
 Initialization pass.
                           ----------------------------
                           !    Initial Parameters    !
                           ! (Angstroms and Degrees)  !
 --------------------------                            --------------------------
 ! Name  Definition              Value          Derivative Info.                !
 --------------------------------------------------------------------------------
 ! R1    R(1,3)                  1.2306         estimate D2E/DX2                !
 ! R2    R(1,9)                  1.5141         estimate D2E/DX2                !
 ! R3    R(1,13)                 1.4938         estimate D2E/DX2                !
 ! R4    R(2,6)                  1.0179         estimate D2E/DX2                !
 ! R5    R(3,7)                  2.1912         estimate D2E/DX2                !
 ! R6    R(4,5)                  1.0181         estimate D2E/DX2                !
 ! R7    R(4,6)                  1.451          estimate D2E/DX2                !
 ! R8    R(4,8)                  1.0214         estimate D2E/DX2                !
 ! R9    R(6,7)                  1.0215         estimate D2E/DX2                !
 ! R10   R(7,12)                 2.298          estimate D2E/DX2                !
 ! R11   R(9,10)                 1.0948         estimate D2E/DX2                !
 ! R12   R(9,11)                 1.0951         estimate D2E/DX2                !
 ! R13   R(9,12)                 1.0896         estimate D2E/DX2                !
 ! R14   R(13,14)                1.4056         estimate D2E/DX2                !
 ! R15   R(13,15)                1.4046         estimate D2E/DX2                !
 ! R16   R(14,16)                1.3912         estimate D2E/DX2                !
 ! R17   R(14,17)                1.0845         estimate D2E/DX2                !
 ! R18   R(15,18)                1.3946         estimate D2E/DX2                !
 ! R19   R(15,19)                1.0843         estimate D2E/DX2                !
 ! R20   R(16,20)                1.3992         estimate D2E/DX2                !
 ! R21   R(16,21)                1.0856         estimate D2E/DX2                !
 ! R22   R(18,20)                1.3969         estimate D2E/DX2                !
 ! R23   R(18,22)                1.0854         estimate D2E/DX2                !
 ! R24   R(20,23)                1.0859         estimate D2E/DX2                !
 ! A1    A(3,1,9)              120.7396         estimate D2E/DX2                !
 ! A2    A(3,1,13)             120.231          estimate D2E/DX2                !
 ! A3    A(9,1,13)             119.0291         estimate D2E/DX2                !
 ! A4    A(1,3,7)              116.4158         estimate D2E/DX2                !
 ! A5    A(5,4,6)              106.0342         estimate D2E/DX2                !
 ! A6    A(5,4,8)              104.9215         estimate D2E/DX2                !
 ! A7    A(6,4,8)              109.1502         estimate D2E/DX2                !
 ! A8    A(2,6,4)              106.0632         estimate D2E/DX2                !
 ! A9    A(2,6,7)              106.2            estimate D2E/DX2                !
 ! A10   A(4,6,7)              108.4374         estimate D2E/DX2                !
 ! A11   A(3,7,6)              138.6996         estimate D2E/DX2                !
 ! A12   A(3,7,12)              68.008          estimate D2E/DX2                !
 ! A13   A(6,7,12)              98.333          estimate D2E/DX2                !
 ! A14   A(1,9,10)             110.5681         estimate D2E/DX2                !
 ! A15   A(1,9,11)             110.3986         estimate D2E/DX2                !
 ! A16   A(1,9,12)             109.7823         estimate D2E/DX2                !
 ! A17   A(10,9,11)            107.166          estimate D2E/DX2                !
 ! A18   A(10,9,12)            109.421          estimate D2E/DX2                !
 ! A19   A(11,9,12)            109.4593         estimate D2E/DX2                !
 ! A20   A(7,12,9)             124.7526         estimate D2E/DX2                !
 ! A21   A(1,13,14)            118.5141         estimate D2E/DX2                !
 ! A22   A(1,13,15)            122.3049         estimate D2E/DX2                !
 ! A23   A(14,13,15)           119.1809         estimate D2E/DX2                !
 ! A24   A(13,14,16)           120.4987         estimate D2E/DX2                !
 ! A25   A(13,14,17)           118.5558         estimate D2E/DX2                !
 ! A26   A(16,14,17)           120.9455         estimate D2E/DX2                !
 ! A27   A(13,15,18)           120.2636         estimate D2E/DX2                !
 ! A28   A(13,15,19)           120.5546         estimate D2E/DX2                !
 ! A29   A(18,15,19)           119.1818         estimate D2E/DX2                !
 ! A30   A(14,16,20)           119.9265         estimate D2E/DX2                !
 ! A31   A(14,16,21)           119.9941         estimate D2E/DX2                !
 ! A32   A(20,16,21)           120.0794         estimate D2E/DX2                !
 ! A33   A(15,18,20)           120.0746         estimate D2E/DX2                !
 ! A34   A(15,18,22)           119.8011         estimate D2E/DX2                !
 ! A35   A(20,18,22)           120.1243         estimate D2E/DX2                !
 ! A36   A(16,20,18)           120.0558         estimate D2E/DX2                !
 ! A37   A(16,20,23)           119.9914         estimate D2E/DX2                !
 ! A38   A(18,20,23)           119.9528         estimate D2E/DX2                !
 ! D1    D(9,1,3,7)              3.4465         estimate D2E/DX2                !
 ! D2    D(13,1,3,7)          -176.3442         estimate D2E/DX2                !
 ! D3    D(3,1,9,10)           121.7559         estimate D2E/DX2                !
 ! D4    D(3,1,9,11)          -119.8283         estimate D2E/DX2                !
 ! D5    D(3,1,9,12)             0.9333         estimate D2E/DX2                !
 ! D6    D(13,1,9,10)          -58.4509         estimate D2E/DX2                !
 ! D7    D(13,1,9,11)           59.9649         estimate D2E/DX2                !
 ! D8    D(13,1,9,12)         -179.2735         estimate D2E/DX2                !
 ! D9    D(3,1,13,14)            0.0148         estimate D2E/DX2                !
 ! D10   D(3,1,13,15)          179.8847         estimate D2E/DX2                !
 ! D11   D(9,1,13,14)         -179.7795         estimate D2E/DX2                !
 ! D12   D(9,1,13,15)            0.0905         estimate D2E/DX2                !
 ! D13   D(1,3,7,6)             73.2068         estimate D2E/DX2                !
 ! D14   D(1,3,7,12)            -3.9145         estimate D2E/DX2                !
 ! D15   D(5,4,6,2)            154.6            estimate D2E/DX2                !
 ! D16   D(5,4,6,7)            -91.6949         estimate D2E/DX2                !
 ! D17   D(8,4,6,2)            -92.8548         estimate D2E/DX2                !
 ! D18   D(8,4,6,7)             20.8503         estimate D2E/DX2                !
 ! D19   D(2,6,7,3)            124.1916         estimate D2E/DX2                !
 ! D20   D(2,6,7,12)          -169.807          estimate D2E/DX2                !
 ! D21   D(4,6,7,3)             10.5768         estimate D2E/DX2                !
 ! D22   D(4,6,7,12)            76.5782         estimate D2E/DX2                !
 ! D23   D(3,7,12,9)             5.3809         estimate D2E/DX2                !
 ! D24   D(6,7,12,9)          -134.0572         estimate D2E/DX2                !
 ! D25   D(1,9,12,7)            -5.0179         estimate D2E/DX2                !
 ! D26   D(10,9,12,7)         -126.5306         estimate D2E/DX2                !
 ! D27   D(11,9,12,7)          116.3095         estimate D2E/DX2                !
 ! D28   D(1,13,14,16)         179.8933         estimate D2E/DX2                !
 ! D29   D(1,13,14,17)          -0.0809         estimate D2E/DX2                !
 ! D30   D(15,13,14,16)          0.0192         estimate D2E/DX2                !
 ! D31   D(15,13,14,17)       -179.955          estimate D2E/DX2                !
 ! D32   D(1,13,15,18)        -179.8716         estimate D2E/DX2                !
 ! D33   D(1,13,15,19)           0.0963         estimate D2E/DX2                !
 ! D34   D(14,13,15,18)         -0.0024         estimate D2E/DX2                !
 ! D35   D(14,13,15,19)        179.9654         estimate D2E/DX2                !
 ! D36   D(13,14,16,20)         -0.0182         estimate D2E/DX2                !
 ! D37   D(13,14,16,21)        179.9979         estimate D2E/DX2                !
 ! D38   D(17,14,16,20)        179.9554         estimate D2E/DX2                !
 ! D39   D(17,14,16,21)         -0.0285         estimate D2E/DX2                !
 ! D40   D(13,15,18,20)         -0.0152         estimate D2E/DX2                !
 ! D41   D(13,15,18,22)        179.9881         estimate D2E/DX2                !
 ! D42   D(19,15,18,20)       -179.9835         estimate D2E/DX2                !
 ! D43   D(19,15,18,22)          0.0198         estimate D2E/DX2                !
 ! D44   D(14,16,20,18)          0.0004         estimate D2E/DX2                !
 ! D45   D(14,16,20,23)       -179.9916         estimate D2E/DX2                !
 ! D46   D(21,16,20,18)        179.9842         estimate D2E/DX2                !
 ! D47   D(21,16,20,23)         -0.0077         estimate D2E/DX2                !
 ! D48   D(15,18,20,16)          0.0163         estimate D2E/DX2                !
 ! D49   D(15,18,20,23)       -179.9917         estimate D2E/DX2                !
 ! D50   D(22,18,20,16)       -179.987          estimate D2E/DX2                !
 ! D51   D(22,18,20,23)          0.0049         estimate D2E/DX2                !
 --------------------------------------------------------------------------------
 Trust Radius=3.00D-01 FncErr=1.00D-07 GrdErr=1.00D-06 EigMax=2.50D+02 EigMin=1.00D-04
 Number of steps in this run=    123 maximum allowed number of steps=    138.
 GradGradGradGradGradGradGradGradGradGradGradGradGradGradGradGradGradGrad

 Leave Link  103 at Mon Jul 15 21:32:50 2019, MaxMem=   104857600 cpu:               3.7 elap:               0.1
 (Enter /project/6004141/group/g16/g16/l202.exe)
                          Input orientation:                          
 ---------------------------------------------------------------------
 Center     Atomic      Atomic             Coordinates (Angstroms)
 Number     Number       Type             X           Y           Z
 ---------------------------------------------------------------------
      1          6           0        0.568326    0.210816   -0.404695
      2          1           0        4.902740   -0.957863   -0.402000
      3          8           0        1.259404   -0.785877   -0.613115
      4          7           0        3.818887   -0.333442    1.145330
      5          1           0        3.500957    0.593234    1.422347
      6          7           0        4.218046   -0.221155   -0.245149
      7          1           0        3.413694   -0.450090   -0.831653
      8          1           0        2.989393   -0.926021    1.209005
      9          6           0        1.188036    1.592164   -0.386071
     10          1           0        0.715121    2.235994   -1.134627
     11          1           0        1.036166    2.065539    0.589738
     12          1           0        2.255536    1.520265   -0.592445
     13          6           0       -0.898822    0.071220   -0.161174
     14          6           0       -1.461944   -1.216508   -0.176239
     15          6           0       -1.727815    1.178365    0.083471
     16          6           0       -2.823394   -1.394418    0.047758
     17          1           0       -0.812423   -2.064189   -0.365400
     18          6           0       -3.092445    0.998613    0.308223
     19          1           0       -1.316817    2.181601    0.100673
     20          6           0       -3.641595   -0.285698    0.290616
     21          1           0       -3.249722   -2.392727    0.034242
     22          1           0       -3.726118    1.859493    0.496723
     23          1           0       -4.704364   -0.423359    0.465721
 ---------------------------------------------------------------------
                    Distance matrix (angstroms):
                    1          2          3          4          5
     1  C    0.000000
     2  H    4.489205   0.000000
     3  O    1.230620   3.653498   0.000000
     4  N    3.642107   1.989691   3.138117   0.000000
     5  H    3.476298   2.774732   3.327103   1.018109   0.000000
     6  N    3.678656   1.017913   3.034448   1.450989   1.989470
     7  H    2.952153   1.630857   2.191227   2.021447   2.485288
     8  H    3.123778   2.501449   2.516470   1.021403   1.617204
     9  C    1.514104   4.505765   2.389921   3.602017   3.101264
    10  H    2.157706   5.317294   3.114470   4.629640   4.122822
    11  H    2.155868   5.007484   3.102783   3.715821   2.989333
    12  H    2.143965   3.631126   2.512170   2.983313   2.543589
    13  C    1.493758   5.897044   2.365757   4.911973   4.705113
    14  C    2.492277   6.373937   2.789631   5.514846   5.519151
    15  C    2.539039   6.983080   3.642383   5.846282   5.429091
    16  C    3.779584   7.751517   4.180468   6.815441   6.770352
    17  H    2.661515   5.821373   2.447021   5.169799   5.372447
    18  C    3.811840   8.261670   4.792897   7.088133   6.699146
    19  H    2.773654   6.985113   3.994037   5.813106   5.242202
    20  C    4.295744   8.598673   5.008662   7.509435   7.284874
    21  H    4.642046   8.289257   4.830451   7.445831   7.510956
    22  H    4.687530   9.121534   5.751969   7.883956   7.395323
    23  H    5.381548   9.661008   6.071395   8.550775   8.323214
                    6          7          8          9         10
     6  N    0.000000
     7  H    1.021460   0.000000
     8  H    2.030022   2.137949   0.000000
     9  C    3.533970   3.053342   3.482874   0.000000
    10  H    4.370267   3.819573   4.545686   1.094761   0.000000
    11  H    4.006291   3.741842   3.626020   1.095149   1.762260
    12  H    2.646621   2.298010   3.125393   1.089640   1.783005
    13  C    5.125902   4.395350   4.241473   2.592070   2.870308
    14  C    5.766954   4.978836   4.670940   3.867178   4.192599
    15  C    6.117182   5.470323   5.286522   2.982262   2.927504
    16  C    7.144524   6.369175   5.946123   5.019905   5.205671
    17  H    5.358811   4.547832   4.269424   4.167875   4.627815
    18  C    7.432182   6.762241   6.442389   4.376856   4.255642
    19  H    6.043802   5.492974   5.424865   2.618901   2.378591
    20  C    7.878145   7.145881   6.724839   5.225859   5.231751
    21  H    7.782117   6.994621   6.515969   5.979107   6.205747
    22  H    8.245557   7.620740   7.305102   4.999970   4.746331
    23  H    8.952967   8.221117   7.745905   6.285560   6.245325
                   11         12         13         14         15
    11  H    0.000000
    12  H    1.783744   0.000000
    13  C    2.878429   3.497957   0.000000
    14  C    4.195129   4.634955   1.405552   0.000000
    15  C    2.946689   4.054731   1.404582   2.423541   0.000000
    16  C    5.211645   5.890736   2.428111   1.391177   2.796566
    17  H    4.624308   4.723583   2.146892   1.084538   3.399056
    18  C    4.273524   5.448323   2.427421   2.792848   1.394647
    19  H    2.406072   3.698579   2.167254   3.412461   1.084296
    20  C    5.243972   6.230365   2.802554   2.415624   2.418459
    21  H    6.209150   6.783223   3.411151   2.150336   3.882180
    22  H    4.767647   6.089462   3.409450   3.878291   2.151262
    23  H    6.258089   7.303259   3.888413   3.399189   3.401688
                   16         17         18         19         20
    16  C    0.000000
    17  H    2.159467   0.000000
    18  C    2.422154   3.877244   0.000000
    19  H    3.880784   4.300973   2.143687   0.000000
    20  C    1.399176   3.405525   1.396900   3.395326   0.000000
    21  H    1.085615   2.491601   3.406022   4.966388   2.158440
    22  H    3.406526   4.962676   1.085444   2.462791   2.156726
    23  H    2.157706   4.304682   2.155248   4.288887   1.085859
                   21         22         23
    21  H    0.000000
    22  H    4.303745   0.000000
    23  H    2.486075   2.483816   0.000000
 Stoichiometry    C8H12N2O(3)
 Framework group  C1[X(C8H12N2O)]
 Deg. of freedom    63
 Full point group                 C1      NOp   1
 Largest Abelian subgroup         C1      NOp   1
 Largest concise Abelian subgroup C1      NOp   1
                         Standard orientation:                         
 ---------------------------------------------------------------------
 Center     Atomic      Atomic             Coordinates (Angstroms)
 Number     Number       Type             X           Y           Z
 ---------------------------------------------------------------------
      1          6           0        0.568326    0.210816   -0.404695
      2          1           0        4.902740   -0.957863   -0.402000
      3          8           0        1.259404   -0.785877   -0.613115
      4          7           0        3.818887   -0.333442    1.145330
      5          1           0        3.500957    0.593234    1.422347
      6          7           0        4.218046   -0.221155   -0.245149
      7          1           0        3.413694   -0.450090   -0.831653
      8          1           0        2.989393   -0.926021    1.209005
      9          6           0        1.188036    1.592164   -0.386071
     10          1           0        0.715121    2.235994   -1.134627
     11          1           0        1.036166    2.065539    0.589738
     12          1           0        2.255536    1.520265   -0.592445
     13          6           0       -0.898822    0.071220   -0.161174
     14          6           0       -1.461944   -1.216508   -0.176239
     15          6           0       -1.727815    1.178365    0.083471
     16          6           0       -2.823394   -1.394418    0.047758
     17          1           0       -0.812423   -2.064189   -0.365400
     18          6           0       -3.092445    0.998613    0.308223
     19          1           0       -1.316817    2.181601    0.100673
     20          6           0       -3.641595   -0.285698    0.290616
     21          1           0       -3.249722   -2.392727    0.034242
     22          1           0       -3.726118    1.859493    0.496723
     23          1           0       -4.704364   -0.423359    0.465721
 ---------------------------------------------------------------------
 Rotational constants (GHZ):           2.7287111           0.4626245           0.4212131
 Leave Link  202 at Mon Jul 15 21:32:51 2019, MaxMem=   104857600 cpu:               3.3 elap:               0.1
 (Enter /project/6004141/group/g16/g16/l301.exe)
 Standard basis: 6-31G(d,p) (6D, 7F)
 Ernie: Thresh=  0.10000D-02 Tol=  0.10000D-05 Strict=F.
 There are   225 symmetry adapted cartesian basis functions of A   symmetry.
 There are   225 symmetry adapted basis functions of A   symmetry.
   225 basis functions,   392 primitive gaussians,   225 cartesian basis functions
    42 alpha electrons       40 beta electrons
       nuclear repulsion energy       569.4143960803 Hartrees.
 IExCor=  402 DFT=T Ex+Corr=B3LYP ExCW=0 ScaHFX=  0.200000
 ScaDFX=  0.800000  0.720000  1.000000  0.810000 ScalE2=  1.000000  1.000000
 IRadAn=      5 IRanWt=     -1 IRanGd=            0 ICorTp=0 IEmpDi=131
 NAtoms=   23 NActive=   23 NUniq=   23 SFac= 1.00D+00 NAtFMM=   60 NAOKFM=F Big=F
 Integral buffers will be    131072 words long.
 Raffenetti 2 integral format.
 Two-electron integral symmetry is turned on.
 R6Disp:  Grimme-D3 Dispersion energy=       -0.0174004410 Hartrees.
 Nuclear repulsion after empirical dispersion term =      569.3969956392 Hartrees.
 ------------------------------------------------------------------------------
 Polarizable Continuum Model (PCM)
 =================================
 Model                : PCM.
 Atomic radii         : UFF (Universal Force Field).
 Polarization charges : Total charges.
 Charge compensation  : None.
 Solution method      : On-the-fly selection.
 Cavity type          : Scaled VdW (van der Waals Surface) (Alpha=1.100).
 Cavity algorithm     : GePol (No added spheres)
                        Default sphere list used, NSphG=   23.
                        Lebedev-Laikov grids with approx.  5.0 points / Ang**2.
                        Smoothing algorithm: York/Karplus (Gamma=1.0000).
                        Polarization charges: spherical gaussians, with
                                              point-specific exponents (IZeta= 3).
                        Self-potential: point-specific (ISelfS= 7).
                        Self-field    : sphere-specific E.n sum rule (ISelfD= 2).
 1st derivatives      : Analytical E(r).r(x)/FMM algorithm (CHGder, D1EAlg=3).
                        Cavity 1st derivative terms included.
 Solvent              : Acetonitrile, Eps=  35.688000 Eps(inf)=   1.806874
 ------------------------------------------------------------------------------
 GePol: Number of generator spheres                  =      23
 GePol: Total number of spheres                      =      23
 GePol: Number of exposed spheres                    =      23 (100.00%)
 GePol: Number of points                             =    1844
 GePol: Average weight of points                     =       0.13
 GePol: Minimum weight of points                     =   0.10D-10
 GePol: Maximum weight of points                     =    0.20577
 GePol: Number of points with low weight             =     117
 GePol: Fraction of low-weight points (<1% of avg)   =       6.34%
 GePol: Cavity surface area                          =    240.276 Ang**2
 GePol: Cavity volume                                =    243.489 Ang**3
 Leave Link  301 at Mon Jul 15 21:32:51 2019, MaxMem=   104857600 cpu:               7.6 elap:               0.3
 (Enter /project/6004141/group/g16/g16/l302.exe)
 NPDir=0 NMtPBC=     1 NCelOv=     1 NCel=       1 NClECP=     1 NCelD=      1
         NCelK=      1 NCelE2=     1 NClLst=     1 CellRange=     0.0.
 One-electron integrals computed using PRISM.
 One-electron integral symmetry used in STVInt
 PrsmSu:  requested number of processors reduced to:  29 ShMem   1 Linda.
 NBasis=   225 RedAO= T EigKep=  4.70D-04  NBF=   225
 NBsUse=   225 1.00D-06 EigRej= -1.00D+00 NBFU=   225
 Precomputing XC quadrature grid using
 IXCGrd= 4 IRadAn=           5 IRanWt=          -1 IRanGd=           0 AccXCQ= 0.00D+00.
 Generated NRdTot=       0 NPtTot=           0 NUsed=           0 NTot=          32
 NSgBfM=   224   224   224   224   224 MxSgAt=    23 MxSgA2=    23.
 Leave Link  302 at Mon Jul 15 21:32:52 2019, MaxMem=   104857600 cpu:              20.7 elap:               0.6
 (Enter /project/6004141/group/g16/g16/l303.exe)
 DipDrv:  MaxL=1.
 Leave Link  303 at Mon Jul 15 21:32:53 2019, MaxMem=   104857600 cpu:               3.5 elap:               0.1
 (Enter /project/6004141/group/g16/g16/l401.exe)
 ExpMin= 1.61D-01 ExpMax= 5.48D+03 ExpMxC= 8.25D+02 IAcc=3 IRadAn=         5 AccDes= 0.00D+00
 Harris functional with IExCor=  402 and IRadAn=       5 diagonalized for initial guess.
 HarFok:  IExCor=  402 AccDes= 0.00D+00 IRadAn=         5 IDoV= 1 UseB2=F ITyADJ=14
 ICtDFT=  3500011 ScaDFX=  1.000000  1.000000  1.000000  1.000000
 FoFCou: FMM=F IPFlag=           0 FMFlag=      100000 FMFlg1=           0
         NFxFlg=           0 DoJE=T BraDBF=F KetDBF=T FulRan=T
         wScrn=  0.000000 ICntrl=       500 IOpCl=  0 I1Cent=   200000004 NGrid=           0
         NMat0=    1 NMatS0=      1 NMatT0=    0 NMatD0=    1 NMtDS0=    0 NMtDT0=    0
 Petite list used in FoFCou.
 Harris En= -496.701645658394    
 JPrj=0 DoOrth=F DoCkMO=F.
 Initial guess <Sx>= 0.0000 <Sy>= 0.0000 <Sz>= 1.0000 <S**2>= 2.0000 S= 1.0000
 Leave Link  401 at Mon Jul 15 21:32:54 2019, MaxMem=   104857600 cpu:              31.3 elap:               0.9
 (Enter /project/6004141/group/g16/g16/l502.exe)
 Integral symmetry usage will be decided dynamically.
 UHF open shell SCF:
 Using DIIS extrapolation, IDIIS=  1040.
 NGot=   104857600 LenX=   104744810 LenY=   104693744
 Requested convergence on RMS density matrix=1.00D-08 within 128 cycles.
 Requested convergence on MAX density matrix=1.00D-06.
 Requested convergence on             energy=1.00D-06.
 No special actions if energy rises.
 Fock matrices will be formed incrementally for  20 cycles.

 Cycle   1  Pass 1  IDiag  1:
 FoFJK:  IHMeth= 1 ICntrl=       0 DoSepK=F KAlg= 0 I1Cent=           0 FoldK=F
 IRaf= 840000000 NMat=       1 IRICut=       1 DoRegI=T DoRafI=F ISym2E= 0 IDoP0=0 IntGTp=1.
 FoFCou: FMM=F IPFlag=           0 FMFlag=      100000 FMFlg1=           0
         NFxFlg=           0 DoJE=F BraDBF=F KetDBF=F FulRan=T
         wScrn=  0.000000 ICntrl=         0 IOpCl=  1 I1Cent=           0 NGrid=           0
         NMat0=    1 NMatS0=      1 NMatT0=    0 NMatD0=    1 NMtDS0=    0 NMtDT0=    0
 Symmetry not used in FoFCou.
 Inv3:  Mode=1 IEnd=    10201008.
 Iteration    1 A*A^-1 deviation from unit magnitude is 3.33D-15 for   1339.
 Iteration    1 A*A^-1 deviation from orthogonality  is 2.62D-15 for   1454    502.
 Iteration    1 A^-1*A deviation from unit magnitude is 3.44D-15 for   1339.
 Iteration    1 A^-1*A deviation from orthogonality  is 5.64D-14 for    960    930.
 E= -496.299663824563    
 DIIS: error= 5.15D-02 at cycle   1 NSaved=   1.
 NSaved= 1 IEnMin= 1 EnMin= -496.299663824563     IErMin= 1 ErrMin= 5.15D-02
 ErrMax= 5.15D-02  0.00D+00 EMaxC= 1.00D-01 BMatC= 1.26D+00 BMatP= 1.26D+00
 IDIUse=3 WtCom= 4.85D-01 WtEn= 5.15D-01
 Coeff-Com:  0.100D+01
 Coeff-En:   0.100D+01
 Coeff:      0.100D+01
 Gap=     0.109 Goal=   None    Shift=    0.000
 Gap=     0.064 Goal=   None    Shift=    0.000
 GapD=    0.064 DampG=0.500 DampE=0.500 DampFc=0.2500 IDamp=-1.
 Damping current iteration by 2.50D-01
 RMSDP=1.51D-02 MaxDP=1.73D+00              OVMax= 8.96D-01

 Cycle   2  Pass 1  IDiag  1:
 RMSU=  3.77D-03    CP:  9.88D-01
 E= -496.419235864220     Delta-E=       -0.119572039657 Rises=F Damp=T
 DIIS: error= 2.63D-02 at cycle   2 NSaved=   2.
 NSaved= 2 IEnMin= 2 EnMin= -496.419235864220     IErMin= 2 ErrMin= 2.63D-02
 ErrMax= 2.63D-02  0.00D+00 EMaxC= 1.00D-01 BMatC= 2.92D-01 BMatP= 1.26D+00
 IDIUse=3 WtCom= 7.37D-01 WtEn= 2.63D-01
 Coeff-Com: -0.441D+00 0.144D+01
 Coeff-En:   0.000D+00 0.100D+01
 Coeff:     -0.325D+00 0.132D+01
 Gap=    -0.021 Goal=   None    Shift=    0.000
 Gap=    -0.030 Goal=   None    Shift=    0.000
 RMSDP=4.25D-03 MaxDP=4.27D-01 DE=-1.20D-01 OVMax= 8.77D-01

 Cycle   3  Pass 1  IDiag  1:
 RMSU=  3.19D-03    CP:  9.64D-01  2.65D-01
 E= -496.487741435430     Delta-E=       -0.068505571210 Rises=F Damp=F
 DIIS: error= 2.19D-02 at cycle   3 NSaved=   3.
 NSaved= 3 IEnMin= 3 EnMin= -496.487741435430     IErMin= 3 ErrMin= 2.19D-02
 ErrMax= 2.19D-02  0.00D+00 EMaxC= 1.00D-01 BMatC= 6.10D-01 BMatP= 2.92D-01
 IDIUse=2 WtCom= 0.00D+00 WtEn= 1.00D+00
 Coeff-En:   0.000D+00 0.333D+00 0.667D+00
 Coeff:      0.000D+00 0.333D+00 0.667D+00
 Gap=     0.051 Goal=   None    Shift=    0.000
 Gap=    -0.064 Goal=   None    Shift=    0.000
 RMSDP=5.23D-03 MaxDP=2.79D-01 DE=-6.85D-02 OVMax= 8.67D-01

 Cycle   4  Pass 1  IDiag  1:
 RMSU=  4.41D-03    CP:  9.60D-01  7.19D-01  3.00D-01
 E= -496.170229161159     Delta-E=        0.317512274272 Rises=F Damp=F
 DIIS: error= 5.31D-02 at cycle   4 NSaved=   4.
 NSaved= 4 IEnMin= 3 EnMin= -496.487741435430     IErMin= 3 ErrMin= 2.19D-02
 ErrMax= 5.31D-02  0.00D+00 EMaxC= 1.00D-01 BMatC= 2.11D+00 BMatP= 2.92D-01
 IDIUse=2 WtCom= 0.00D+00 WtEn= 1.00D+00
 Coeff-En:   0.000D+00 0.000D+00 0.666D+00 0.334D+00
 Coeff:      0.000D+00 0.000D+00 0.666D+00 0.334D+00
 Gap=     0.162 Goal=   None    Shift=    0.000
 Gap=     0.052 Goal=   None    Shift=    0.000
 RMSDP=3.13D-03 MaxDP=1.42D-01 DE= 3.18D-01 OVMax= 2.87D-01

 Cycle   5  Pass 1  IDiag  1:
 RMSU=  2.15D-03    CP:  9.59D-01  4.13D-01  5.46D-01  5.96D-01
 E= -496.624178950582     Delta-E=       -0.453949789424 Rises=F Damp=F
 DIIS: error= 1.36D-02 at cycle   5 NSaved=   5.
 NSaved= 5 IEnMin= 5 EnMin= -496.624178950582     IErMin= 5 ErrMin= 1.36D-02
 ErrMax= 1.36D-02  0.00D+00 EMaxC= 1.00D-01 BMatC= 2.30D-01 BMatP= 2.92D-01
 IDIUse=3 WtCom= 8.64D-01 WtEn= 1.36D-01
 Coeff-Com: -0.151D+00 0.388D+00 0.356D+00 0.429D-05 0.406D+00
 Coeff-En:   0.000D+00 0.000D+00 0.293D+00 0.000D+00 0.707D+00
 Coeff:     -0.130D+00 0.336D+00 0.347D+00 0.371D-05 0.447D+00
 Gap=     0.113 Goal=   None    Shift=    0.000
 Gap=     0.033 Goal=   None    Shift=    0.000
 RMSDP=7.52D-04 MaxDP=3.01D-02 DE=-4.54D-01 OVMax= 6.48D-02

 Cycle   6  Pass 1  IDiag  1:
 RMSU=  6.19D-04    CP:  9.55D-01  4.03D-01  6.53D-01  5.46D-01  1.04D+00
 E= -496.663657831527     Delta-E=       -0.039478880944 Rises=F Damp=F
 DIIS: error= 1.28D-02 at cycle   6 NSaved=   6.
 NSaved= 6 IEnMin= 6 EnMin= -496.663657831527     IErMin= 6 ErrMin= 1.28D-02
 ErrMax= 1.28D-02  0.00D+00 EMaxC= 1.00D-01 BMatC= 8.95D-02 BMatP= 2.30D-01
 IDIUse=3 WtCom= 8.72D-01 WtEn= 1.28D-01
 Coeff-Com: -0.417D-01 0.138D+00 0.168D+00-0.125D+00 0.253D+00 0.608D+00
 Coeff-En:   0.000D+00 0.000D+00 0.124D+00 0.000D+00 0.000D+00 0.876D+00
 Coeff:     -0.364D-01 0.120D+00 0.163D+00-0.109D+00 0.221D+00 0.642D+00
 Gap=     0.125 Goal=   None    Shift=    0.000
 Gap=     0.038 Goal=   None    Shift=    0.000
 RMSDP=5.90D-04 MaxDP=2.96D-02 DE=-3.95D-02 OVMax= 5.87D-02

 Cycle   7  Pass 1  IDiag  1:
 RMSU=  2.96D-04    CP:  9.54D-01  3.69D-01  6.99D-01  4.71D-01  1.20D+00
                    CP:  9.70D-01
 E= -496.682373249363     Delta-E=       -0.018715417836 Rises=F Damp=F
 DIIS: error= 3.60D-03 at cycle   7 NSaved=   7.
 NSaved= 7 IEnMin= 7 EnMin= -496.682373249363     IErMin= 7 ErrMin= 3.60D-03
 ErrMax= 3.60D-03  0.00D+00 EMaxC= 1.00D-01 BMatC= 1.12D-02 BMatP= 8.95D-02
 IDIUse=3 WtCom= 9.64D-01 WtEn= 3.60D-02
 Coeff-Com:  0.493D-01-0.415D-01 0.412D-02 0.906D-02-0.212D+00-0.859D-01
 Coeff-Com:  0.128D+01
 Coeff-En:   0.000D+00 0.000D+00 0.000D+00 0.000D+00 0.000D+00 0.000D+00
 Coeff-En:   0.100D+01
 Coeff:      0.476D-01-0.400D-01 0.397D-02 0.873D-02-0.205D+00-0.828D-01
 Coeff:      0.127D+01
 Gap=     0.134 Goal=   None    Shift=    0.000
 Gap=     0.051 Goal=   None    Shift=    0.000
 RMSDP=4.08D-04 MaxDP=1.94D-02 DE=-1.87D-02 OVMax= 4.67D-02

 Cycle   8  Pass 1  IDiag  1:
 RMSU=  1.99D-04    CP:  9.53D-01  3.49D-01  7.29D-01  4.30D-01  1.28D+00
                    CP:  1.23D+00  1.56D+00
 E= -496.685553752745     Delta-E=       -0.003180503383 Rises=F Damp=F
 DIIS: error= 1.87D-03 at cycle   8 NSaved=   8.
 NSaved= 8 IEnMin= 8 EnMin= -496.685553752745     IErMin= 8 ErrMin= 1.87D-03
 ErrMax= 1.87D-03  0.00D+00 EMaxC= 1.00D-01 BMatC= 1.81D-03 BMatP= 1.12D-02
 IDIUse=3 WtCom= 9.81D-01 WtEn= 1.87D-02
 Coeff-Com:  0.469D-01-0.620D-01-0.175D-01 0.295D-01-0.175D+00-0.184D+00
 Coeff-Com:  0.860D+00 0.503D+00
 Coeff-En:   0.000D+00 0.000D+00 0.000D+00 0.000D+00 0.000D+00 0.000D+00
 Coeff-En:   0.000D+00 0.100D+01
 Coeff:      0.460D-01-0.609D-01-0.172D-01 0.290D-01-0.172D+00-0.181D+00
 Coeff:      0.844D+00 0.512D+00
 Gap=     0.135 Goal=   None    Shift=    0.000
 Gap=     0.055 Goal=   None    Shift=    0.000
 RMSDP=1.38D-04 MaxDP=4.82D-03 DE=-3.18D-03 OVMax= 1.30D-02

 Cycle   9  Pass 1  IDiag  1:
 RMSU=  9.84D-05    CP:  9.52D-01  3.46D-01  7.31D-01  4.26D-01  1.29D+00
                    CP:  1.21D+00  1.83D+00  8.79D-01
 E= -496.686084829028     Delta-E=       -0.000531076283 Rises=F Damp=F
 DIIS: error= 3.75D-04 at cycle   9 NSaved=   9.
 NSaved= 9 IEnMin= 9 EnMin= -496.686084829028     IErMin= 9 ErrMin= 3.75D-04
 ErrMax= 3.75D-04  0.00D+00 EMaxC= 1.00D-01 BMatC= 6.96D-05 BMatP= 1.81D-03
 IDIUse=3 WtCom= 9.96D-01 WtEn= 3.75D-03
 Coeff-Com: -0.324D-02 0.319D-02 0.300D-02-0.929D-03 0.222D-01 0.104D-01
 Coeff-Com: -0.907D-01 0.107D+00 0.949D+00
 Coeff-En:   0.000D+00 0.000D+00 0.000D+00 0.000D+00 0.000D+00 0.000D+00
 Coeff-En:   0.000D+00 0.000D+00 0.100D+01
 Coeff:     -0.323D-02 0.318D-02 0.299D-02-0.925D-03 0.221D-01 0.104D-01
 Coeff:     -0.904D-01 0.107D+00 0.949D+00
 Gap=     0.134 Goal=   None    Shift=    0.000
 Gap=     0.055 Goal=   None    Shift=    0.000
 RMSDP=6.85D-05 MaxDP=2.33D-03 DE=-5.31D-04 OVMax= 1.41D-02

 Cycle  10  Pass 1  IDiag  1:
 RMSU=  3.09D-05    CP:  9.52D-01  3.48D-01  7.31D-01  4.29D-01  1.29D+00
                    CP:  1.19D+00  1.85D+00  1.12D+00  1.28D+00
 E= -496.686132073037     Delta-E=       -0.000047244009 Rises=F Damp=F
 DIIS: error= 1.74D-04 at cycle  10 NSaved=  10.
 NSaved=10 IEnMin=10 EnMin= -496.686132073037     IErMin=10 ErrMin= 1.74D-04
 ErrMax= 1.74D-04  0.00D+00 EMaxC= 1.00D-01 BMatC= 2.98D-05 BMatP= 6.96D-05
 IDIUse=3 WtCom= 9.98D-01 WtEn= 1.74D-03
 Coeff-Com: -0.516D-02 0.665D-02 0.307D-02-0.280D-02 0.231D-01 0.151D-01
 Coeff-Com: -0.110D+00 0.217D-02 0.455D+00 0.613D+00
 Coeff-En:   0.000D+00 0.000D+00 0.000D+00 0.000D+00 0.000D+00 0.000D+00
 Coeff-En:   0.000D+00 0.000D+00 0.000D+00 0.100D+01
 Coeff:     -0.515D-02 0.664D-02 0.307D-02-0.280D-02 0.231D-01 0.151D-01
 Coeff:     -0.110D+00 0.216D-02 0.455D+00 0.614D+00
 Gap=     0.134 Goal=   None    Shift=    0.000
 Gap=     0.055 Goal=   None    Shift=    0.000
 RMSDP=2.99D-05 MaxDP=1.06D-03 DE=-4.72D-05 OVMax= 6.62D-03

 Cycle  11  Pass 1  IDiag  1:
 RMSU=  1.45D-05    CP:  9.52D-01  3.49D-01  7.33D-01  4.28D-01  1.29D+00
                    CP:  1.18D+00  1.88D+00  1.20D+00  1.45D+00  1.14D+00
 E= -496.686146525008     Delta-E=       -0.000014451970 Rises=F Damp=F
 DIIS: error= 1.07D-04 at cycle  11 NSaved=  11.
 NSaved=11 IEnMin=11 EnMin= -496.686146525008     IErMin=11 ErrMin= 1.07D-04
 ErrMax= 1.07D-04  0.00D+00 EMaxC= 1.00D-01 BMatC= 1.08D-05 BMatP= 2.98D-05
 IDIUse=3 WtCom= 9.99D-01 WtEn= 1.07D-03
 Coeff-Com:  0.457D-03-0.109D-02 0.178D-03-0.462D-03 0.877D-03-0.334D-02
 Coeff-Com: -0.140D-01-0.339D-01-0.959D-01 0.234D+00 0.913D+00
 Coeff-En:   0.000D+00 0.000D+00 0.000D+00 0.000D+00 0.000D+00 0.000D+00
 Coeff-En:   0.000D+00 0.000D+00 0.000D+00 0.000D+00 0.100D+01
 Coeff:      0.456D-03-0.109D-02 0.178D-03-0.462D-03 0.876D-03-0.334D-02
 Coeff:     -0.140D-01-0.339D-01-0.958D-01 0.234D+00 0.913D+00
 Gap=     0.134 Goal=   None    Shift=    0.000
 Gap=     0.055 Goal=   None    Shift=    0.000
 RMSDP=3.20D-05 MaxDP=1.11D-03 DE=-1.45D-05 OVMax= 7.42D-03

 Cycle  12  Pass 1  IDiag  1:
 RMSU=  7.46D-06    CP:  9.52D-01  3.48D-01  7.33D-01  4.28D-01  1.30D+00
                    CP:  1.17D+00  1.92D+00  1.29D+00  1.62D+00  1.53D+00
                    CP:  1.37D+00
 E= -496.686155022912     Delta-E=       -0.000008497905 Rises=F Damp=F
 DIIS: error= 3.73D-05 at cycle  12 NSaved=  12.
 NSaved=12 IEnMin=12 EnMin= -496.686155022912     IErMin=12 ErrMin= 3.73D-05
 ErrMax= 3.73D-05  0.00D+00 EMaxC= 1.00D-01 BMatC= 4.95D-07 BMatP= 1.08D-05
 IDIUse=1 WtCom= 1.00D+00 WtEn= 0.00D+00
 Coeff-Com:  0.873D-03-0.101D-02-0.396D-03 0.283D-03-0.388D-02-0.263D-02
 Coeff-Com:  0.160D-01-0.747D-02-0.870D-01-0.568D-01 0.136D+00 0.101D+01
 Coeff:      0.873D-03-0.101D-02-0.396D-03 0.283D-03-0.388D-02-0.263D-02
 Coeff:      0.160D-01-0.747D-02-0.870D-01-0.568D-01 0.136D+00 0.101D+01
 Gap=     0.135 Goal=   None    Shift=    0.000
 Gap=     0.055 Goal=   None    Shift=    0.000
 RMSDP=1.69D-05 MaxDP=5.71D-04 DE=-8.50D-06 OVMax= 4.15D-03

 Cycle  13  Pass 1  IDiag  1:
 RMSU=  3.75D-06    CP:  9.52D-01  3.49D-01  7.34D-01  4.28D-01  1.30D+00
                    CP:  1.16D+00  1.93D+00  1.33D+00  1.71D+00  1.76D+00
                    CP:  1.77D+00  1.65D+00
 E= -496.686156921647     Delta-E=       -0.000001898735 Rises=F Damp=F
 DIIS: error= 2.65D-05 at cycle  13 NSaved=  13.
 NSaved=13 IEnMin=13 EnMin= -496.686156921647     IErMin=13 ErrMin= 2.65D-05
 ErrMax= 2.65D-05  0.00D+00 EMaxC= 1.00D-01 BMatC= 2.33D-07 BMatP= 4.95D-07
 IDIUse=1 WtCom= 1.00D+00 WtEn= 0.00D+00
 Coeff-Com:  0.432D-03-0.466D-03-0.289D-03 0.195D-03-0.204D-02 0.231D-04
 Coeff-Com:  0.960D-02 0.337D-02-0.170D-01-0.574D-01-0.971D-01 0.326D+00
 Coeff-Com:  0.835D+00
 Coeff:      0.432D-03-0.466D-03-0.289D-03 0.195D-03-0.204D-02 0.231D-04
 Coeff:      0.960D-02 0.337D-02-0.170D-01-0.574D-01-0.971D-01 0.326D+00
 Coeff:      0.835D+00
 Gap=     0.135 Goal=   None    Shift=    0.000
 Gap=     0.055 Goal=   None    Shift=    0.000
 RMSDP=8.43D-06 MaxDP=3.22D-04 DE=-1.90D-06 OVMax= 1.85D-03

 Cycle  14  Pass 1  IDiag  1:
 RMSU=  2.13D-06    CP:  9.52D-01  3.49D-01  7.33D-01  4.28D-01  1.30D+00
                    CP:  1.16D+00  1.93D+00  1.35D+00  1.74D+00  1.88D+00
                    CP:  1.98D+00  2.17D+00  1.64D+00
 E= -496.686157608275     Delta-E=       -0.000000686628 Rises=F Damp=F
 DIIS: error= 2.45D-05 at cycle  14 NSaved=  14.
 NSaved=14 IEnMin=14 EnMin= -496.686157608275     IErMin=14 ErrMin= 2.45D-05
 ErrMax= 2.45D-05  0.00D+00 EMaxC= 1.00D-01 BMatC= 1.40D-07 BMatP= 2.33D-07
 IDIUse=1 WtCom= 1.00D+00 WtEn= 0.00D+00
 Coeff-Com: -0.127D-03 0.157D-03 0.224D-04-0.555D-04 0.644D-03 0.178D-02
 Coeff-Com: -0.213D-02 0.492D-02 0.277D-01-0.649D-02-0.109D+00-0.267D+00
 Coeff-Com:  0.480D+00 0.870D+00
 Coeff:     -0.127D-03 0.157D-03 0.224D-04-0.555D-04 0.644D-03 0.178D-02
 Coeff:     -0.213D-02 0.492D-02 0.277D-01-0.649D-02-0.109D+00-0.267D+00
 Coeff:      0.480D+00 0.870D+00
 Gap=     0.135 Goal=   None    Shift=    0.000
 Gap=     0.055 Goal=   None    Shift=    0.000
 RMSDP=8.06D-06 MaxDP=3.47D-04 DE=-6.87D-07 OVMax= 1.55D-03

 Cycle  15  Pass 1  IDiag  1:
 RMSU=  1.40D-06    CP:  9.52D-01  3.49D-01  7.33D-01  4.28D-01  1.30D+00
                    CP:  1.16D+00  1.93D+00  1.36D+00  1.77D+00  1.97D+00
                    CP:  2.17D+00  2.70D+00  2.63D+00  1.68D+00
 E= -496.686158119427     Delta-E=       -0.000000511152 Rises=F Damp=F
 DIIS: error= 1.85D-05 at cycle  15 NSaved=  15.
 NSaved=15 IEnMin=15 EnMin= -496.686158119427     IErMin=15 ErrMin= 1.85D-05
 ErrMax= 1.85D-05  0.00D+00 EMaxC= 1.00D-01 BMatC= 4.91D-08 BMatP= 1.40D-07
 IDIUse=1 WtCom= 1.00D+00 WtEn= 0.00D+00
 Coeff-Com: -0.333D-03 0.436D-03 0.181D-03-0.141D-03 0.127D-02 0.768D-03
 Coeff-Com: -0.588D-02 0.969D-04 0.189D-01 0.247D-01 0.790D-02-0.228D+00
 Coeff-Com: -0.250D+00 0.242D+00 0.119D+01
 Coeff:     -0.333D-03 0.436D-03 0.181D-03-0.141D-03 0.127D-02 0.768D-03
 Coeff:     -0.588D-02 0.969D-04 0.189D-01 0.247D-01 0.790D-02-0.228D+00
 Coeff:     -0.250D+00 0.242D+00 0.119D+01
 Gap=     0.135 Goal=   None    Shift=    0.000
 Gap=     0.055 Goal=   None    Shift=    0.000
 RMSDP=7.93D-06 MaxDP=3.75D-04 DE=-5.11D-07 OVMax= 1.75D-03

 Cycle  16  Pass 1  IDiag  1:
 RMSU=  3.42D-06    CP:  9.52D-01  3.49D-01  7.33D-01  4.28D-01  1.30D+00
                    CP:  1.16D+00  1.94D+00  1.37D+00  1.79D+00  2.05D+00
                    CP:  2.35D+00  3.00D+00  3.00D+00  3.00D+00  2.00D+00
 E= -496.686158468674     Delta-E=       -0.000000349248 Rises=F Damp=F
 DIIS: error= 1.17D-05 at cycle  16 NSaved=  16.
 NSaved=16 IEnMin=16 EnMin= -496.686158468674     IErMin=16 ErrMin= 1.17D-05
 ErrMax= 1.17D-05  0.00D+00 EMaxC= 1.00D-01 BMatC= 3.09D-08 BMatP= 4.91D-08
 IDIUse=1 WtCom= 1.00D+00 WtEn= 0.00D+00
 Coeff-Com: -0.206D-04 0.162D-05 0.388D-04 0.851D-05 0.828D-04-0.922D-03
 Coeff-Com: -0.120D-02-0.252D-02-0.700D-02 0.131D-01 0.615D-01 0.448D-01
 Coeff-Com: -0.393D+00-0.359D+00 0.660D+00 0.984D+00
 Coeff:     -0.206D-04 0.162D-05 0.388D-04 0.851D-05 0.828D-04-0.922D-03
 Coeff:     -0.120D-02-0.252D-02-0.700D-02 0.131D-01 0.615D-01 0.448D-01
 Coeff:     -0.393D+00-0.359D+00 0.660D+00 0.984D+00
 Gap=     0.135 Goal=   None    Shift=    0.000
 Gap=     0.055 Goal=   None    Shift=    0.000
 RMSDP=6.36D-06 MaxDP=3.09D-04 DE=-3.49D-07 OVMax= 1.56D-03

 Cycle  17  Pass 1  IDiag  1:
 RMSU=  2.68D-06    CP:  9.52D-01  3.49D-01  7.33D-01  4.28D-01  1.30D+00
                    CP:  1.16D+00  1.94D+00  1.37D+00  1.80D+00  2.11D+00
                    CP:  2.48D+00  3.00D+00  3.00D+00  3.00D+00  3.00D+00
                    CP:  2.38D+00
 E= -496.686158644087     Delta-E=       -0.000000175413 Rises=F Damp=F
 DIIS: error= 6.60D-06 at cycle  17 NSaved=  17.
 NSaved=17 IEnMin=17 EnMin= -496.686158644087     IErMin=17 ErrMin= 6.60D-06
 ErrMax= 6.60D-06  0.00D+00 EMaxC= 1.00D-01 BMatC= 8.54D-09 BMatP= 3.09D-08
 IDIUse=1 WtCom= 1.00D+00 WtEn= 0.00D+00
 Coeff-Com:  0.106D-03-0.155D-03-0.309D-04 0.471D-04-0.302D-03-0.428D-03
 Coeff-Com:  0.168D-02-0.901D-03-0.846D-02-0.590D-02 0.931D-02 0.115D+00
 Coeff-Com:  0.284D-01-0.212D+00-0.373D+00 0.209D+00 0.124D+01
 Coeff:      0.106D-03-0.155D-03-0.309D-04 0.471D-04-0.302D-03-0.428D-03
 Coeff:      0.168D-02-0.901D-03-0.846D-02-0.590D-02 0.931D-02 0.115D+00
 Coeff:      0.284D-01-0.212D+00-0.373D+00 0.209D+00 0.124D+01
 Gap=     0.135 Goal=   None    Shift=    0.000
 Gap=     0.055 Goal=   None    Shift=    0.000
 RMSDP=4.48D-06 MaxDP=2.14D-04 DE=-1.75D-07 OVMax= 1.21D-03

 Cycle  18  Pass 1  IDiag  1:
 RMSU=  1.84D-06    CP:  9.52D-01  3.49D-01  7.33D-01  4.28D-01  1.30D+00
                    CP:  1.16D+00  1.94D+00  1.37D+00  1.80D+00  2.14D+00
                    CP:  2.55D+00  3.00D+00  3.00D+00  3.00D+00  3.00D+00
                    CP:  3.00D+00  1.82D+00
 E= -496.686158709526     Delta-E=       -0.000000065439 Rises=F Damp=F
 DIIS: error= 2.81D-06 at cycle  18 NSaved=  18.
 NSaved=18 IEnMin=18 EnMin= -496.686158709526     IErMin=18 ErrMin= 2.81D-06
 ErrMax= 2.81D-06  0.00D+00 EMaxC= 1.00D-01 BMatC= 4.44D-09 BMatP= 8.54D-09
 IDIUse=1 WtCom= 1.00D+00 WtEn= 0.00D+00
 Coeff-Com:  0.705D-05 0.806D-05-0.463D-05-0.104D-06-0.448D-04 0.187D-03
 Coeff-Com:  0.774D-03 0.311D-03-0.659D-04-0.376D-02-0.128D-01 0.273D-01
 Coeff-Com:  0.119D+00-0.338D-03-0.334D+00-0.177D+00 0.513D+00 0.867D+00
 Coeff:      0.705D-05 0.806D-05-0.463D-05-0.104D-06-0.448D-04 0.187D-03
 Coeff:      0.774D-03 0.311D-03-0.659D-04-0.376D-02-0.128D-01 0.273D-01
 Coeff:      0.119D+00-0.338D-03-0.334D+00-0.177D+00 0.513D+00 0.867D+00
 Gap=     0.135 Goal=   None    Shift=    0.000
 Gap=     0.055 Goal=   None    Shift=    0.000
 RMSDP=1.98D-06 MaxDP=9.09D-05 DE=-6.54D-08 OVMax= 5.46D-04

 Cycle  19  Pass 1  IDiag  1:
 RMSU=  6.38D-07    CP:  9.52D-01  3.49D-01  7.33D-01  4.28D-01  1.30D+00
                    CP:  1.16D+00  1.94D+00  1.37D+00  1.80D+00  2.14D+00
                    CP:  2.58D+00  3.00D+00  3.00D+00  3.00D+00  3.00D+00
                    CP:  3.00D+00  2.19D+00  1.81D+00
 E= -496.686158722285     Delta-E=       -0.000000012759 Rises=F Damp=F
 DIIS: error= 1.11D-06 at cycle  19 NSaved=  19.
 NSaved=19 IEnMin=19 EnMin= -496.686158722285     IErMin=19 ErrMin= 1.11D-06
 ErrMax= 1.11D-06  0.00D+00 EMaxC= 1.00D-01 BMatC= 9.72D-10 BMatP= 4.44D-09
 IDIUse=1 WtCom= 1.00D+00 WtEn= 0.00D+00
 Coeff-Com: -0.129D-04 0.203D-04 0.487D-05-0.100D-04 0.631D-04 0.214D-03
 Coeff-Com: -0.693D-04 0.327D-03 0.178D-02-0.269D-03-0.832D-02-0.193D-01
 Coeff-Com:  0.501D-01 0.666D-01-0.339D-01-0.161D+00-0.200D+00 0.439D+00
 Coeff-Com:  0.864D+00
 Coeff:     -0.129D-04 0.203D-04 0.487D-05-0.100D-04 0.631D-04 0.214D-03
 Coeff:     -0.693D-04 0.327D-03 0.178D-02-0.269D-03-0.832D-02-0.193D-01
 Coeff:      0.501D-01 0.666D-01-0.339D-01-0.161D+00-0.200D+00 0.439D+00
 Coeff:      0.864D+00
 Gap=     0.135 Goal=   None    Shift=    0.000
 Gap=     0.055 Goal=   None    Shift=    0.000
 RMSDP=8.72D-07 MaxDP=3.94D-05 DE=-1.28D-08 OVMax= 2.40D-04

 Cycle  20  Pass 1  IDiag  1:
 RMSU=  1.12D-07    CP:  9.52D-01  3.49D-01  7.33D-01  4.28D-01  1.30D+00
                    CP:  1.16D+00  1.94D+00  1.37D+00  1.80D+00  2.15D+00
                    CP:  2.59D+00  3.00D+00  3.00D+00  3.00D+00  3.00D+00
                    CP:  3.00D+00  2.35D+00  2.18D+00  1.37D+00
 E= -496.686158724425     Delta-E=       -0.000000002140 Rises=F Damp=F
 DIIS: error= 3.41D-07 at cycle  20 NSaved=  20.
 NSaved=20 IEnMin=20 EnMin= -496.686158724425     IErMin=20 ErrMin= 3.41D-07
 ErrMax= 3.41D-07  0.00D+00 EMaxC= 1.00D-01 BMatC= 1.10D-10 BMatP= 9.72D-10
 IDIUse=1 WtCom= 1.00D+00 WtEn= 0.00D+00
 Coeff-Com:  0.651D-06-0.358D-05 0.235D-06-0.817D-07 0.898D-05 0.823D-05
 Coeff-Com: -0.910D-04 0.482D-04 0.344D-03 0.295D-03-0.652D-03-0.907D-02
 Coeff-Com: -0.882D-02 0.167D-01 0.489D-01-0.130D-01-0.134D+00-0.343D-01
 Coeff-Com:  0.207D+00 0.926D+00
 Coeff:      0.651D-06-0.358D-05 0.235D-06-0.817D-07 0.898D-05 0.823D-05
 Coeff:     -0.910D-04 0.482D-04 0.344D-03 0.295D-03-0.652D-03-0.907D-02
 Coeff:     -0.882D-02 0.167D-01 0.489D-01-0.130D-01-0.134D+00-0.343D-01
 Coeff:      0.207D+00 0.926D+00
 Gap=     0.135 Goal=   None    Shift=    0.000
 Gap=     0.055 Goal=   None    Shift=    0.000
 RMSDP=2.79D-07 MaxDP=1.28D-05 DE=-2.14D-09 OVMax= 6.30D-05

 Cycle  21  Pass 1  IDiag  1:
 Restarting incremental Fock formation.
 E= -496.686158724663     Delta-E=       -0.000000000237 Rises=F Damp=F
 DIIS: error= 2.24D-07 at cycle  21 NSaved=  20.
 NSaved=20 IEnMin=20 EnMin= -496.686158724663     IErMin=20 ErrMin= 2.24D-07
 ErrMax= 2.24D-07  0.00D+00 EMaxC= 1.00D-01 BMatC= 3.29D-11 BMatP= 1.10D-10
 IDIUse=1 WtCom= 1.00D+00 WtEn= 0.00D+00
 Coeff-Com: -0.666D-06 0.679D-06 0.621D-06 0.151D-05-0.142D-04-0.695D-04
 Coeff-Com: -0.903D-05 0.104D-03 0.382D-03 0.739D-03-0.258D-02-0.109D-01
 Coeff-Com:  0.136D-02 0.282D-01 0.126D-01-0.369D-01-0.817D-01-0.212D-01
 Coeff-Com:  0.421D+00 0.689D+00
 Coeff:     -0.666D-06 0.679D-06 0.621D-06 0.151D-05-0.142D-04-0.695D-04
 Coeff:     -0.903D-05 0.104D-03 0.382D-03 0.739D-03-0.258D-02-0.109D-01
 Coeff:      0.136D-02 0.282D-01 0.126D-01-0.369D-01-0.817D-01-0.212D-01
 Coeff:      0.421D+00 0.689D+00
 Gap=     0.135 Goal=   None    Shift=    0.000
 Gap=     0.055 Goal=   None    Shift=    0.000
 RMSDP=5.98D-08 MaxDP=2.41D-06 DE=-2.37D-10 OVMax= 1.06D-05

 Cycle  22  Pass 1  IDiag  1:
 RMSU=  5.98D-08    CP:  1.00D+00
 E= -496.686158724689     Delta-E=       -0.000000000026 Rises=F Damp=F
 DIIS: error= 1.58D-07 at cycle  22 NSaved=  20.
 NSaved=20 IEnMin=20 EnMin= -496.686158724689     IErMin=20 ErrMin= 1.58D-07
 ErrMax= 1.58D-07  0.00D+00 EMaxC= 1.00D-01 BMatC= 1.17D-11 BMatP= 3.29D-11
 IDIUse=1 WtCom= 1.00D+00 WtEn= 0.00D+00
 Coeff-Com:  0.853D-06 0.556D-06-0.466D-06 0.261D-05-0.544D-05-0.207D-05
 Coeff-Com:  0.333D-04 0.667D-04-0.252D-04 0.131D-02 0.894D-03-0.215D-02
 Coeff-Com: -0.991D-02 0.247D-02 0.373D-01-0.659D-02-0.640D-01-0.230D+00
 Coeff-Com:  0.291D+00 0.980D+00
 Coeff:      0.853D-06 0.556D-06-0.466D-06 0.261D-05-0.544D-05-0.207D-05
 Coeff:      0.333D-04 0.667D-04-0.252D-04 0.131D-02 0.894D-03-0.215D-02
 Coeff:     -0.991D-02 0.247D-02 0.373D-01-0.659D-02-0.640D-01-0.230D+00
 Coeff:      0.291D+00 0.980D+00
 Gap=     0.135 Goal=   None    Shift=    0.000
 Gap=     0.055 Goal=   None    Shift=    0.000
 RMSDP=5.31D-08 MaxDP=1.91D-06 DE=-2.64D-11 OVMax= 1.29D-05

 Cycle  23  Pass 1  IDiag  1:
 RMSU=  3.94D-08    CP:  1.00D+00  1.60D+00
 E= -496.686158724707     Delta-E=       -0.000000000018 Rises=F Damp=F
 DIIS: error= 6.25D-08 at cycle  23 NSaved=  20.
 NSaved=20 IEnMin=20 EnMin= -496.686158724707     IErMin=20 ErrMin= 6.25D-08
 ErrMax= 6.25D-08  0.00D+00 EMaxC= 1.00D-01 BMatC= 3.05D-12 BMatP= 1.17D-11
 IDIUse=1 WtCom= 1.00D+00 WtEn= 0.00D+00
 Coeff-Com:  0.167D-07 0.625D-06 0.424D-05-0.327D-05 0.973D-05 0.727D-04
 Coeff-Com:  0.105D-04-0.300D-03-0.760D-04 0.203D-02 0.141D-02-0.435D-02
 Coeff-Com: -0.476D-02 0.522D-02 0.141D-01 0.754D-02-0.949D-01-0.498D-01
 Coeff-Com:  0.499D-02 0.112D+01
 Coeff:      0.167D-07 0.625D-06 0.424D-05-0.327D-05 0.973D-05 0.727D-04
 Coeff:      0.105D-04-0.300D-03-0.760D-04 0.203D-02 0.141D-02-0.435D-02
 Coeff:     -0.476D-02 0.522D-02 0.141D-01 0.754D-02-0.949D-01-0.498D-01
 Coeff:      0.499D-02 0.112D+01
 Gap=     0.135 Goal=   None    Shift=    0.000
 Gap=     0.055 Goal=   None    Shift=    0.000
 RMSDP=2.34D-08 MaxDP=8.99D-07 DE=-1.82D-11 OVMax= 5.47D-06

 Cycle  24  Pass 1  IDiag  1:
 RMSU=  5.52D-09    CP:  1.00D+00  1.81D+00  1.47D+00
 E= -496.686158724711     Delta-E=       -0.000000000004 Rises=F Damp=F
 DIIS: error= 2.87D-08 at cycle  24 NSaved=  20.
 NSaved=20 IEnMin=20 EnMin= -496.686158724711     IErMin=20 ErrMin= 2.87D-08
 ErrMax= 2.87D-08  0.00D+00 EMaxC= 1.00D-01 BMatC= 6.61D-13 BMatP= 3.05D-12
 IDIUse=1 WtCom= 1.00D+00 WtEn= 0.00D+00
 Coeff-Com: -0.147D-06 0.152D-05 0.301D-05 0.808D-05 0.367D-04-0.142D-04
 Coeff-Com: -0.207D-03-0.273D-03 0.103D-02 0.125D-02-0.827D-03-0.340D-02
 Coeff-Com: -0.363D-02 0.101D-01 0.181D-01-0.125D-01-0.772D-01-0.207D+00
 Coeff-Com:  0.593D+00 0.681D+00
 Coeff:     -0.147D-06 0.152D-05 0.301D-05 0.808D-05 0.367D-04-0.142D-04
 Coeff:     -0.207D-03-0.273D-03 0.103D-02 0.125D-02-0.827D-03-0.340D-02
 Coeff:     -0.363D-02 0.101D-01 0.181D-01-0.125D-01-0.772D-01-0.207D+00
 Coeff:      0.593D+00 0.681D+00
 Gap=     0.135 Goal=   None    Shift=    0.000
 Gap=     0.055 Goal=   None    Shift=    0.000
 RMSDP=1.06D-08 MaxDP=4.42D-07 DE=-3.98D-12 OVMax= 2.48D-06

 Cycle  25  Pass 1  IDiag  1:
 RMSU=  2.19D-09    CP:  1.00D+00  1.89D+00  1.71D+00  1.25D+00
 E= -496.686158724711     Delta-E=       -0.000000000000 Rises=F Damp=F
 DIIS: error= 1.13D-08 at cycle  25 NSaved=  20.
 NSaved=20 IEnMin=20 EnMin= -496.686158724711     IErMin=20 ErrMin= 1.13D-08
 ErrMax= 1.13D-08  0.00D+00 EMaxC= 1.00D-01 BMatC= 1.03D-13 BMatP= 6.61D-13
 IDIUse=1 WtCom= 1.00D+00 WtEn= 0.00D+00
 Coeff-Com:  0.978D-08 0.189D-05 0.372D-05 0.942D-05-0.162D-04-0.809D-04
 Coeff-Com: -0.162D-03 0.170D-03 0.490D-03 0.516D-03-0.893D-03-0.316D-02
 Coeff-Com:  0.177D-02 0.774D-02 0.151D-01-0.204D-01-0.104D+00 0.562D-02
 Coeff-Com:  0.292D+00 0.806D+00
 Coeff:      0.978D-08 0.189D-05 0.372D-05 0.942D-05-0.162D-04-0.809D-04
 Coeff:     -0.162D-03 0.170D-03 0.490D-03 0.516D-03-0.893D-03-0.316D-02
 Coeff:      0.177D-02 0.774D-02 0.151D-01-0.204D-01-0.104D+00 0.562D-02
 Coeff:      0.292D+00 0.806D+00
 Gap=     0.135 Goal=   None    Shift=    0.000
 Gap=     0.055 Goal=   None    Shift=    0.000
 RMSDP=5.01D-09 MaxDP=2.11D-07 DE=-3.41D-13 OVMax= 1.21D-06

 Error on total polarization charges =  0.00855
 SCF Done:  E(UB3LYP) =  -496.686158725     A.U. after   25 cycles
            NFock= 25  Conv=0.50D-08     -V/T= 2.0091
 <Sx>= 0.0000 <Sy>= 0.0000 <Sz>= 1.0000 <S**2>= 2.0193 S= 1.0064
 <L.S>=  0.00000000000    
 KE= 4.921947964288D+02 PE=-2.293535823081D+03 EE= 7.352578722885D+02
 Annihilation of the first spin contaminant:
 S**2 before annihilation     2.0193,   after     2.0002
 Leave Link  502 at Mon Jul 15 21:33:13 2019, MaxMem=   104857600 cpu:             733.8 elap:              18.9
 (Enter /project/6004141/group/g16/g16/l601.exe)
 Copying SCF densities to generalized density rwf, IOpCl= 1 IROHF=0.

 **********************************************************************

            Population analysis using the SCF density.

 **********************************************************************

 Orbital symmetries:
 Alpha Orbitals:
       Occupied  (A) (A) (A) (A) (A) (A) (A) (A) (A) (A) (A) (A)
                 (A) (A) (A) (A) (A) (A) (A) (A) (A) (A) (A) (A)
                 (A) (A) (A) (A) (A) (A) (A) (A) (A) (A) (A) (A)
                 (A) (A) (A) (A) (A) (A)
       Virtual   (A) (A) (A) (A) (A) (A) (A) (A) (A) (A) (A) (A)
                 (A) (A) (A) (A) (A) (A) (A) (A) (A) (A) (A) (A)
                 (A) (A) (A) (A) (A) (A) (A) (A) (A) (A) (A) (A)
                 (A) (A) (A) (A) (A) (A) (A) (A) (A) (A) (A) (A)
                 (A) (A) (A) (A) (A) (A) (A) (A) (A) (A) (A) (A)
                 (A) (A) (A) (A) (A) (A) (A) (A) (A) (A) (A) (A)
                 (A) (A) (A) (A) (A) (A) (A) (A) (A) (A) (A) (A)
                 (A) (A) (A) (A) (A) (A) (A) (A) (A) (A) (A) (A)
                 (A) (A) (A) (A) (A) (A) (A) (A) (A) (A) (A) (A)
                 (A) (A) (A) (A) (A) (A) (A) (A) (A) (A) (A) (A)
                 (A) (A) (A) (A) (A) (A) (A) (A) (A) (A) (A) (A)
                 (A) (A) (A) (A) (A) (A) (A) (A) (A) (A) (A) (A)
                 (A) (A) (A) (A) (A) (A) (A) (A) (A) (A) (A) (A)
                 (A) (A) (A) (A) (A) (A) (A) (A) (A) (A) (A) (A)
                 (A) (A) (A) (A) (A) (A) (A) (A) (A) (A) (A) (A)
                 (A) (A) (A)
 Beta  Orbitals:
       Occupied  (A) (A) (A) (A) (A) (A) (A) (A) (A) (A) (A) (A)
                 (A) (A) (A) (A) (A) (A) (A) (A) (A) (A) (A) (A)
                 (A) (A) (A) (A) (A) (A) (A) (A) (A) (A) (A) (A)
                 (A) (A) (A) (A)
       Virtual   (A) (A) (A) (A) (A) (A) (A) (A) (A) (A) (A) (A)
                 (A) (A) (A) (A) (A) (A) (A) (A) (A) (A) (A) (A)
                 (A) (A) (A) (A) (A) (A) (A) (A) (A) (A) (A) (A)
                 (A) (A) (A) (A) (A) (A) (A) (A) (A) (A) (A) (A)
                 (A) (A) (A) (A) (A) (A) (A) (A) (A) (A) (A) (A)
                 (A) (A) (A) (A) (A) (A) (A) (A) (A) (A) (A) (A)
                 (A) (A) (A) (A) (A) (A) (A) (A) (A) (A) (A) (A)
                 (A) (A) (A) (A) (A) (A) (A) (A) (A) (A) (A) (A)
                 (A) (A) (A) (A) (A) (A) (A) (A) (A) (A) (A) (A)
                 (A) (A) (A) (A) (A) (A) (A) (A) (A) (A) (A) (A)
                 (A) (A) (A) (A) (A) (A) (A) (A) (A) (A) (A) (A)
                 (A) (A) (A) (A) (A) (A) (A) (A) (A) (A) (A) (A)
                 (A) (A) (A) (A) (A) (A) (A) (A) (A) (A) (A) (A)
                 (A) (A) (A) (A) (A) (A) (A) (A) (A) (A) (A) (A)
                 (A) (A) (A) (A) (A) (A) (A) (A) (A) (A) (A) (A)
                 (A) (A) (A) (A) (A)
 The electronic state is 3-A.
 Alpha  occ. eigenvalues --  -19.24267 -14.34359 -14.33943 -10.25872 -10.21386
 Alpha  occ. eigenvalues --  -10.21365 -10.19050 -10.18956 -10.18873 -10.18817
 Alpha  occ. eigenvalues --  -10.18310  -1.12306  -0.94362  -0.85735  -0.78284
 Alpha  occ. eigenvalues --   -0.74809  -0.74755  -0.73765  -0.63760  -0.60390
 Alpha  occ. eigenvalues --   -0.56664  -0.53625  -0.50746  -0.48529  -0.48224
 Alpha  occ. eigenvalues --   -0.47720  -0.47641  -0.44586  -0.44296  -0.43546
 Alpha  occ. eigenvalues --   -0.42349  -0.40877  -0.40294  -0.37004  -0.36869
 Alpha  occ. eigenvalues --   -0.34354  -0.33085  -0.26888  -0.26302  -0.25631
 Alpha  occ. eigenvalues --   -0.25045  -0.13819
 Alpha virt. eigenvalues --   -0.00362   0.02185   0.07522   0.10313   0.10559
 Alpha virt. eigenvalues --    0.12655   0.13862   0.15185   0.15758   0.16705
 Alpha virt. eigenvalues --    0.16969   0.17565   0.18620   0.19145   0.20861
 Alpha virt. eigenvalues --    0.21334   0.23394   0.27126   0.29528   0.30509
 Alpha virt. eigenvalues --    0.31509   0.35707   0.36107   0.47240   0.50558
 Alpha virt. eigenvalues --    0.51383   0.53399   0.53626   0.55546   0.56074
 Alpha virt. eigenvalues --    0.58001   0.58299   0.59292   0.59869   0.61318
 Alpha virt. eigenvalues --    0.61746   0.64322   0.64727   0.66164   0.66194
 Alpha virt. eigenvalues --    0.67246   0.67311   0.68662   0.71029   0.72448
 Alpha virt. eigenvalues --    0.73837   0.76227   0.76684   0.78501   0.81024
 Alpha virt. eigenvalues --    0.82079   0.82241   0.82783   0.83930   0.84941
 Alpha virt. eigenvalues --    0.87349   0.89506   0.90552   0.91327   0.92052
 Alpha virt. eigenvalues --    0.93159   0.95089   0.95237   1.00339   1.01864
 Alpha virt. eigenvalues --    1.04628   1.06252   1.07043   1.09414   1.11337
 Alpha virt. eigenvalues --    1.14110   1.16960   1.20377   1.24661   1.25414
 Alpha virt. eigenvalues --    1.26249   1.27900   1.30002   1.34261   1.35987
 Alpha virt. eigenvalues --    1.36635   1.37383   1.40317   1.41889   1.42543
 Alpha virt. eigenvalues --    1.42879   1.44074   1.45188   1.53856   1.65535
 Alpha virt. eigenvalues --    1.66086   1.73018   1.73509   1.75820   1.77449
 Alpha virt. eigenvalues --    1.80237   1.82247   1.86175   1.87331   1.87782
 Alpha virt. eigenvalues --    1.89795   1.90713   1.92315   1.92884   1.97025
 Alpha virt. eigenvalues --    1.97317   2.00257   2.00363   2.01994   2.04683
 Alpha virt. eigenvalues --    2.06117   2.06964   2.07475   2.09023   2.11382
 Alpha virt. eigenvalues --    2.15680   2.15909   2.21903   2.24381   2.24672
 Alpha virt. eigenvalues --    2.27580   2.27708   2.30045   2.32271   2.37036
 Alpha virt. eigenvalues --    2.37329   2.38159   2.39406   2.41144   2.43837
 Alpha virt. eigenvalues --    2.44910   2.45793   2.46082   2.49218   2.50997
 Alpha virt. eigenvalues --    2.51919   2.55086   2.56703   2.59335   2.60003
 Alpha virt. eigenvalues --    2.64415   2.64988   2.65351   2.65831   2.72359
 Alpha virt. eigenvalues --    2.74495   2.75077   2.76945   2.80246   2.81657
 Alpha virt. eigenvalues --    2.84189   2.86095   2.91536   2.92754   3.02415
 Alpha virt. eigenvalues --    3.03510   3.05915   3.07815   3.19009   3.22211
 Alpha virt. eigenvalues --    3.24570   3.25653   3.27613   3.32870   3.37387
 Alpha virt. eigenvalues --    3.38465   3.41511   3.43172   3.45767   3.51618
 Alpha virt. eigenvalues --    3.55553   3.78029   3.89671   3.95709   4.08443
 Alpha virt. eigenvalues --    4.12476   4.15599   4.16406   4.32515   4.41982
 Alpha virt. eigenvalues --    4.43727   4.58566   4.83729
  Beta  occ. eigenvalues --  -19.21794 -14.34294 -14.33944 -10.25021 -10.21285
  Beta  occ. eigenvalues --  -10.21162 -10.19073 -10.18967 -10.18784 -10.18593
  Beta  occ. eigenvalues --  -10.18035  -1.06978  -0.94263  -0.85203  -0.76680
  Beta  occ. eigenvalues --   -0.74671  -0.74347  -0.72950  -0.61874  -0.60167
  Beta  occ. eigenvalues --   -0.55063  -0.51570  -0.49659  -0.48113  -0.46759
  Beta  occ. eigenvalues --   -0.45794  -0.44563  -0.44249  -0.44076  -0.42432
  Beta  occ. eigenvalues --   -0.41957  -0.39458  -0.38385  -0.35759  -0.34906
  Beta  occ. eigenvalues --   -0.34026  -0.26157  -0.25316  -0.24910  -0.24859
  Beta virt. eigenvalues --   -0.19315  -0.04402   0.00157   0.05151   0.07818
  Beta virt. eigenvalues --    0.10471   0.10706   0.12879   0.14236   0.15333
  Beta virt. eigenvalues --    0.16533   0.16974   0.17493   0.18348   0.18819
  Beta virt. eigenvalues --    0.19381   0.21257   0.22228   0.24385   0.28109
  Beta virt. eigenvalues --    0.30076   0.30774   0.32013   0.36323   0.37440
  Beta virt. eigenvalues --    0.48264   0.51893   0.52077   0.53886   0.54644
  Beta virt. eigenvalues --    0.56116   0.56666   0.58725   0.59108   0.59775
  Beta virt. eigenvalues --    0.60186   0.61652   0.61932   0.65383   0.65654
  Beta virt. eigenvalues --    0.66510   0.66691   0.67549   0.67945   0.68867
  Beta virt. eigenvalues --    0.71313   0.73262   0.74427   0.76595   0.76979
  Beta virt. eigenvalues --    0.79324   0.81428   0.82330   0.82436   0.82973
  Beta virt. eigenvalues --    0.84382   0.85330   0.87818   0.90164   0.90753
  Beta virt. eigenvalues --    0.91917   0.92782   0.93844   0.95310   0.95522
  Beta virt. eigenvalues --    1.01000   1.02336   1.05252   1.07457   1.07528
  Beta virt. eigenvalues --    1.09711   1.12179   1.14392   1.17235   1.22547
  Beta virt. eigenvalues --    1.25441   1.26538   1.27552   1.28380   1.30534
  Beta virt. eigenvalues --    1.34915   1.36188   1.37827   1.38316   1.40607
  Beta virt. eigenvalues --    1.42519   1.42998   1.43302   1.45135   1.45486
  Beta virt. eigenvalues --    1.55442   1.67437   1.69890   1.74764   1.75168
  Beta virt. eigenvalues --    1.76220   1.77849   1.81407   1.82462   1.86784
  Beta virt. eigenvalues --    1.88210   1.88720   1.90680   1.92431   1.92899
  Beta virt. eigenvalues --    1.94412   1.97474   1.97691   2.00586   2.02333
  Beta virt. eigenvalues --    2.02579   2.04837   2.06445   2.07451   2.07915
  Beta virt. eigenvalues --    2.09275   2.11795   2.16506   2.17009   2.22359
  Beta virt. eigenvalues --    2.24507   2.24746   2.28300   2.28752   2.30465
  Beta virt. eigenvalues --    2.34281   2.37150   2.37509   2.38370   2.40076
  Beta virt. eigenvalues --    2.41325   2.44900   2.45195   2.46230   2.46351
  Beta virt. eigenvalues --    2.49732   2.52063   2.52597   2.55355   2.57826
  Beta virt. eigenvalues --    2.59775   2.60197   2.64796   2.65471   2.66014
  Beta virt. eigenvalues --    2.66395   2.73216   2.75258   2.75473   2.77038
  Beta virt. eigenvalues --    2.80308   2.82043   2.84771   2.86929   2.92748
  Beta virt. eigenvalues --    2.93225   3.02674   3.04201   3.06249   3.08516
  Beta virt. eigenvalues --    3.19357   3.22764   3.24654   3.25706   3.27650
  Beta virt. eigenvalues --    3.32915   3.37517   3.38740   3.42076   3.43420
  Beta virt. eigenvalues --    3.46049   3.51722   3.55607   3.78080   3.89916
  Beta virt. eigenvalues --    3.98346   4.08539   4.12904   4.15939   4.16871
  Beta virt. eigenvalues --    4.34183   4.42468   4.43945   4.59579   4.84157
          Condensed to atoms (all electrons):
               1          2          3          4          5          6
     1  C    4.972527   0.000004   0.272202   0.001865  -0.000269   0.000224
     2  H    0.000004   0.462088   0.000207  -0.048342   0.005878   0.342957
     3  O    0.272202   0.000207   8.096670  -0.003853   0.000251  -0.003840
     4  N    0.001865  -0.048342  -0.003853   6.719819   0.348347   0.216039
     5  H   -0.000269   0.005878   0.000251   0.348347   0.470638  -0.053036
     6  N    0.000224   0.342957  -0.003840   0.216039  -0.053036   6.729395
     7  H   -0.002727  -0.036988   0.016704  -0.045699   0.001227   0.322383
     8  H   -0.000933   0.000633   0.009802   0.340809  -0.043448  -0.040215
     9  C    0.332389   0.000153  -0.048327   0.001150   0.002685  -0.004887
    10  H   -0.032175   0.000000   0.001516   0.000093  -0.000004  -0.000002
    11  H   -0.032608  -0.000001   0.001685  -0.000156   0.000606   0.000039
    12  H   -0.022586  -0.000197  -0.005093  -0.000892  -0.001278   0.011821
    13  C    0.395835  -0.000001  -0.032418  -0.000029  -0.000012  -0.000003
    14  C   -0.057770   0.000000  -0.008488   0.000004   0.000000  -0.000000
    15  C   -0.056969  -0.000000   0.004046  -0.000003  -0.000000   0.000000
    16  C    0.005762  -0.000000   0.000571  -0.000000   0.000000   0.000000
    17  H   -0.013100  -0.000000   0.005805   0.000000  -0.000000  -0.000001
    18  C    0.005740   0.000000  -0.000054   0.000000   0.000000  -0.000000
    19  H   -0.013435  -0.000000   0.000055  -0.000000  -0.000001   0.000000
    20  C    0.000557  -0.000000  -0.000008   0.000000  -0.000000  -0.000000
    21  H   -0.000185  -0.000000  -0.000005  -0.000000  -0.000000  -0.000000
    22  H   -0.000160   0.000000   0.000000   0.000000  -0.000000   0.000000
    23  H    0.000009  -0.000000   0.000000  -0.000000   0.000000   0.000000
               7          8          9         10         11         12
     1  C   -0.002727  -0.000933   0.332389  -0.032175  -0.032608  -0.022586
     2  H   -0.036988   0.000633   0.000153   0.000000  -0.000001  -0.000197
     3  O    0.016704   0.009802  -0.048327   0.001516   0.001685  -0.005093
     4  N   -0.045699   0.340809   0.001150   0.000093  -0.000156  -0.000892
     5  H    0.001227  -0.043448   0.002685  -0.000004   0.000606  -0.001278
     6  N    0.322383  -0.040215  -0.004887  -0.000002   0.000039   0.011821
     7  H    0.500245  -0.013352   0.000818  -0.000099  -0.000006  -0.002484
     8  H   -0.013352   0.486473  -0.000354  -0.000006   0.000045   0.001310
     9  C    0.000818  -0.000354   5.025332   0.373290   0.375815   0.362646
    10  H   -0.000099  -0.000006   0.373290   0.560888  -0.039923  -0.021901
    11  H   -0.000006   0.000045   0.375815  -0.039923   0.560890  -0.025051
    12  H   -0.002484   0.001310   0.362646  -0.021901  -0.025051   0.553191
    13  C    0.000165  -0.000161  -0.047286  -0.005326  -0.006039   0.003699
    14  C   -0.000005   0.000034   0.006207  -0.000005  -0.000024  -0.000080
    15  C   -0.000000  -0.000003  -0.011109   0.002572   0.002835   0.000250
    16  C    0.000000   0.000000  -0.000154   0.000000   0.000001   0.000002
    17  H   -0.000006   0.000017   0.000284  -0.000009  -0.000009  -0.000001
    18  C    0.000000   0.000000   0.000080   0.000068   0.000072  -0.000007
    19  H    0.000000  -0.000000   0.005705   0.000952   0.000937   0.000031
    20  C    0.000000  -0.000000   0.000001  -0.000007  -0.000007   0.000000
    21  H   -0.000000  -0.000000   0.000001   0.000000   0.000000  -0.000000
    22  H   -0.000000   0.000000   0.000004  -0.000000  -0.000001   0.000000
    23  H   -0.000000   0.000000  -0.000000  -0.000000  -0.000000  -0.000000
              13         14         15         16         17         18
     1  C    0.395835  -0.057770  -0.056969   0.005762  -0.013100   0.005740
     2  H   -0.000001   0.000000  -0.000000  -0.000000  -0.000000   0.000000
     3  O   -0.032418  -0.008488   0.004046   0.000571   0.005805  -0.000054
     4  N   -0.000029   0.000004  -0.000003  -0.000000   0.000000   0.000000
     5  H   -0.000012   0.000000  -0.000000   0.000000  -0.000000   0.000000
     6  N   -0.000003  -0.000000   0.000000   0.000000  -0.000001  -0.000000
     7  H    0.000165  -0.000005  -0.000000   0.000000  -0.000006   0.000000
     8  H   -0.000161   0.000034  -0.000003   0.000000   0.000017   0.000000
     9  C   -0.047286   0.006207  -0.011109  -0.000154   0.000284   0.000080
    10  H   -0.005326  -0.000005   0.002572   0.000000  -0.000009   0.000068
    11  H   -0.006039  -0.000024   0.002835   0.000001  -0.000009   0.000072
    12  H    0.003699  -0.000080   0.000250   0.000002  -0.000001  -0.000007
    13  C    4.761186   0.480099   0.506100  -0.021534  -0.047110  -0.019644
    14  C    0.480099   5.001579  -0.061601   0.524266   0.373288  -0.040731
    15  C    0.506100  -0.061601   4.990010  -0.040625   0.005416   0.527083
    16  C   -0.021534   0.524266  -0.040625   4.837000  -0.037863  -0.029496
    17  H   -0.047110   0.373288   0.005416  -0.037863   0.616367   0.000344
    18  C   -0.019644  -0.040731   0.527083  -0.029496   0.000344   4.830659
    19  H   -0.038605   0.005276   0.368303   0.000294  -0.000168  -0.039741
    20  C   -0.032132  -0.045834  -0.047217   0.532515   0.004732   0.537143
    21  H    0.003618  -0.035804   0.000859   0.368708  -0.005783   0.004449
    22  H    0.003512   0.000813  -0.036481   0.004448   0.000015   0.370319
    23  H    0.000755   0.004731   0.004941  -0.041391  -0.000171  -0.041313
              19         20         21         22         23
     1  C   -0.013435   0.000557  -0.000185  -0.000160   0.000009
     2  H   -0.000000  -0.000000  -0.000000   0.000000  -0.000000
     3  O    0.000055  -0.000008  -0.000005   0.000000   0.000000
     4  N   -0.000000   0.000000  -0.000000   0.000000  -0.000000
     5  H   -0.000001  -0.000000  -0.000000  -0.000000   0.000000
     6  N    0.000000  -0.000000  -0.000000   0.000000   0.000000
     7  H    0.000000   0.000000  -0.000000  -0.000000  -0.000000
     8  H   -0.000000  -0.000000  -0.000000   0.000000   0.000000
     9  C    0.005705   0.000001   0.000001   0.000004  -0.000000
    10  H    0.000952  -0.000007   0.000000  -0.000000  -0.000000
    11  H    0.000937  -0.000007   0.000000  -0.000001  -0.000000
    12  H    0.000031   0.000000  -0.000000   0.000000  -0.000000
    13  C   -0.038605  -0.032132   0.003618   0.003512   0.000755
    14  C    0.005276  -0.045834  -0.035804   0.000813   0.004731
    15  C    0.368303  -0.047217   0.000859  -0.036481   0.004941
    16  C    0.000294   0.532515   0.368708   0.004448  -0.041391
    17  H   -0.000168   0.004732  -0.005783   0.000015  -0.000171
    18  C   -0.039741   0.537143   0.004449   0.370319  -0.041313
    19  H    0.613450   0.004852   0.000015  -0.006080  -0.000182
    20  C    0.004852   4.870694  -0.040592  -0.040503   0.371943
    21  H    0.000015  -0.040592   0.610392  -0.000184  -0.005848
    22  H   -0.006080  -0.040503  -0.000184   0.608688  -0.005891
    23  H   -0.000182   0.371943  -0.005848  -0.005891   0.620629
          Atomic-Atomic Spin Densities.
               1          2          3          4          5          6
     1  C    0.706785  -0.000007  -0.205062   0.000950  -0.000206   0.000079
     2  H   -0.000007  -0.001112   0.000045   0.000001  -0.000025   0.000253
     3  O   -0.205062   0.000045   1.135047  -0.000060  -0.000047  -0.003064
     4  N    0.000950   0.000001  -0.000060   0.001017   0.000212  -0.001885
     5  H   -0.000206  -0.000025  -0.000047   0.000212   0.000158   0.000125
     6  N    0.000079   0.000253  -0.003064  -0.001885   0.000125   0.032573
     7  H   -0.000516  -0.000245  -0.000937   0.000427  -0.000274   0.005413
     8  H   -0.002339   0.000066   0.002211  -0.001528   0.000093  -0.000807
     9  C    0.026332  -0.000005  -0.025028  -0.000101   0.000121   0.000407
    10  H   -0.016013  -0.000000   0.001575   0.000011  -0.000013  -0.000016
    11  H   -0.016599   0.000001   0.001805  -0.000111   0.000041   0.000021
    12  H   -0.000334   0.000010   0.004012   0.000046  -0.000081  -0.000264
    13  C    0.083248   0.000000  -0.024956   0.000016  -0.000010  -0.000020
    14  C   -0.020009  -0.000000   0.008390  -0.000003   0.000001   0.000001
    15  C   -0.017681  -0.000000   0.000717  -0.000001   0.000000   0.000000
    16  C   -0.001114   0.000000  -0.000024  -0.000000   0.000000   0.000000
    17  H   -0.000991  -0.000000   0.002909  -0.000001   0.000000   0.000001
    18  C   -0.000440   0.000000  -0.000016   0.000000  -0.000000  -0.000000
    19  H    0.000439  -0.000000   0.000008  -0.000000   0.000000   0.000000
    20  C    0.000340  -0.000000  -0.000009   0.000000  -0.000000  -0.000000
    21  H    0.000011  -0.000000   0.000008  -0.000000   0.000000   0.000000
    22  H    0.000002  -0.000000   0.000000  -0.000000   0.000000   0.000000
    23  H   -0.000001   0.000000  -0.000000   0.000000  -0.000000  -0.000000
               7          8          9         10         11         12
     1  C   -0.000516  -0.002339   0.026332  -0.016013  -0.016599  -0.000334
     2  H   -0.000245   0.000066  -0.000005  -0.000000   0.000001   0.000010
     3  O   -0.000937   0.002211  -0.025028   0.001575   0.001805   0.004012
     4  N    0.000427  -0.001528  -0.000101   0.000011  -0.000111   0.000046
     5  H   -0.000274   0.000093   0.000121  -0.000013   0.000041  -0.000081
     6  N    0.005413  -0.000807   0.000407  -0.000016   0.000021  -0.000264
     7  H   -0.010211   0.000521  -0.000343   0.000061  -0.000035   0.000669
     8  H    0.000521   0.003593  -0.000317  -0.000019   0.000245   0.000054
     9  C   -0.000343  -0.000317   0.120213  -0.003498  -0.003723  -0.007616
    10  H    0.000061  -0.000019  -0.003498   0.054418  -0.012441   0.001948
    11  H   -0.000035   0.000245  -0.003723  -0.012441   0.057624   0.001098
    12  H    0.000669   0.000054  -0.007616   0.001948   0.001098  -0.001839
[...]
    19  H   -0.000000   0.000000   0.000126   0.000015   0.000029   0.000002
    20  C    0.000000   0.000000   0.000001  -0.000005  -0.000005   0.000000
    21  H    0.000000  -0.000000   0.000000  -0.000000  -0.000000  -0.000000
    22  H   -0.000000  -0.000000   0.000000  -0.000000  -0.000000   0.000000
    23  H   -0.000000   0.000000  -0.000000   0.000000   0.000000   0.000000
              13         14         15         16         17         18
     1  C    0.044933  -0.020228  -0.018772  -0.000218  -0.000343  -0.000239
     2  H   -0.000000  -0.000000  -0.000000   0.000000   0.000000  -0.000000
     3  O   -0.003653   0.003254   0.000405  -0.000007   0.000060   0.000002
     4  N   -0.000003  -0.000000   0.000000  -0.000000   0.000000   0.000000
     5  H    0.000001   0.000000   0.000000   0.000000   0.000000  -0.000000
     6  N    0.000048   0.000001  -0.000000  -0.000000  -0.000000  -0.000000
     7  H   -0.000030  -0.000021  -0.000002  -0.000001  -0.000015   0.000000
     8  H    0.000000   0.000000  -0.000000  -0.000000   0.000000  -0.000000
     9  C   -0.000016  -0.000071   0.000120   0.000007  -0.000016  -0.000024
    10  H   -0.000935   0.000104   0.001738   0.000001  -0.000000   0.000018
    11  H   -0.000775   0.000124   0.001670   0.000001   0.000000   0.000018
    12  H    0.000131   0.000003  -0.000011  -0.000000   0.000001  -0.000000
    13  C   -0.117813  -0.025868  -0.028531  -0.000165   0.000987   0.000165
    14  C   -0.025868   0.258577   0.009023   0.009896   0.001107   0.001502
    15  C   -0.028531   0.009023   0.254203   0.001273   0.000011   0.010318
    16  C   -0.000165   0.009896   0.001273  -0.119836   0.000465  -0.000123
    17  H    0.000987   0.001107   0.000011   0.000465  -0.012436  -0.000016
    18  C    0.000165   0.001502   0.010318  -0.000123  -0.000016  -0.119563
    19  H    0.000583  -0.000017   0.001321  -0.000013   0.000002   0.000416
    20  C    0.002460  -0.012820  -0.012330  -0.008952   0.000017  -0.010170
    21  H    0.000016  -0.000588  -0.000007   0.000495   0.000047  -0.000001
    22  H   -0.000003  -0.000007  -0.000549  -0.000002  -0.000000   0.000519
    23  H   -0.000040   0.000012   0.000009   0.000080   0.000003   0.000076
              19         20         21         22         23
     1  C    0.000061   0.000329  -0.000003  -0.000004  -0.000000
     2  H    0.000000   0.000000   0.000000  -0.000000   0.000000
     3  O   -0.000001  -0.000004   0.000000   0.000000  -0.000000
     4  N   -0.000000   0.000000   0.000000  -0.000000  -0.000000
     5  H    0.000000  -0.000000   0.000000   0.000000   0.000000
     6  N    0.000000   0.000000  -0.000000  -0.000000   0.000000
     7  H   -0.000000   0.000000   0.000000  -0.000000  -0.000000
     8  H    0.000000   0.000000  -0.000000  -0.000000   0.000000
     9  C    0.000126   0.000001   0.000000   0.000000  -0.000000
    10  H    0.000015  -0.000005  -0.000000  -0.000000   0.000000
    11  H    0.000029  -0.000005  -0.000000  -0.000000   0.000000
    12  H    0.000002   0.000000  -0.000000   0.000000   0.000000
    13  C    0.000583   0.002460   0.000016  -0.000003  -0.000040
    14  C   -0.000017  -0.012820  -0.000588  -0.000007   0.000012
    15  C    0.001321  -0.012330  -0.000007  -0.000549   0.000009
    16  C   -0.000013  -0.008952   0.000495  -0.000002   0.000080
    17  H    0.000002   0.000017   0.000047  -0.000000   0.000003
    18  C    0.000416  -0.010170  -0.000001   0.000519   0.000076
    19  H   -0.012390   0.000017  -0.000000   0.000043   0.000003
    20  C    0.000017   0.301051  -0.000575  -0.000542   0.001755
    21  H   -0.000000  -0.000575   0.004704  -0.000000   0.000081
    22  H    0.000043  -0.000542  -0.000000   0.004610   0.000082
    23  H    0.000003   0.001755   0.000081   0.000082  -0.014402
 Mulliken charges and spin densities:
               1          2
     1  C    0.230608   0.565464
     2  H    0.277877  -0.022695
     3  O   -0.582797   0.116159
     4  N   -0.370035   0.335299
     5  H    0.313960  -0.007775
     6  N   -0.427327   0.708138
     7  H    0.382160  -0.014529
     8  H    0.308235  -0.004488
     9  C   -0.387160  -0.045982
    10  H    0.128355   0.026566
    11  H    0.128045   0.025834
    12  H    0.122967   0.000569
    13  C    0.095895  -0.128506
    14  C   -0.148085   0.223983
    15  C   -0.161417   0.219890
    16  C   -0.104431  -0.117099
    17  H    0.086905  -0.010127
    18  C   -0.109839  -0.117100
    19  H    0.083524  -0.009805
    20  C   -0.123370   0.260226
    21  H    0.085898   0.004170
    22  H    0.086727   0.004147
    23  H    0.083304  -0.012340
 Sum of Mulliken charges =  -0.00000   2.00000
 Mulliken charges and spin densities with hydrogens summed into heavy atoms:
               1          2
     1  C    0.230608   0.565464
     3  O   -0.200637   0.101631
     4  N    0.252160   0.323036
     6  N   -0.149450   0.685444
     9  C   -0.007793   0.006988
    13  C    0.095895  -0.128506
    14  C   -0.061180   0.213856
    15  C   -0.077893   0.210085
    16  C   -0.018533  -0.112930
    18  C   -0.023112  -0.112953
    20  C   -0.040066   0.247886
 Electronic spatial extent (au):  <R**2>=           2775.2051
 Charge=             -0.0000 electrons
 Dipole moment (field-independent basis, Debye):
    X=              8.5807    Y=              1.1685    Z=              1.2156  Tot=              8.7448
 Quadrupole moment (field-independent basis, Debye-Ang):
   XX=            -25.8172   YY=            -64.0869   ZZ=            -64.9447
   XY=             -2.1745   XZ=              3.7725   YZ=             -2.0652
 Traceless Quadrupole moment (field-independent basis, Debye-Ang):
   XX=             25.7990   YY=            -12.4706   ZZ=            -13.3284
   XY=             -2.1745   XZ=              3.7725   YZ=             -2.0652
 Octapole moment (field-independent basis, Debye-Ang**2):
  XXX=            261.3795  YYY=             -1.4966  ZZZ=              2.9147  XYY=              1.0639
  XXY=            -18.3527  XXZ=             20.9444  XZZ=             39.1752  YZZ=             -2.4914
  YYZ=              1.2579  XYZ=             -8.7126
 Hexadecapole moment (field-independent basis, Debye-Ang**3):
 XXXX=          -1620.0918 YYYY=           -480.5834 ZZZZ=           -110.0252 XXXY=           -104.2119
 XXXZ=             81.7207 YYYX=             -5.4287 YYYZ=             -0.1117 ZZZX=             21.6478
 ZZZY=             -4.7008 XXYY=           -578.3268 XXZZ=           -464.2328 YYZZ=           -106.4172
 XXYZ=            -31.4548 YYXZ=              3.9729 ZZXY=            -15.6740
 N-N= 5.640371211805D+02 E-N=-2.284702238981D+03  KE= 4.920144114309D+02
                          Isotropic Fermi Contact Couplings
        Atom                 a.u.       MegaHertz       Gauss      10(-4) cm-1
     1  C(13)              0.06428      36.13324      12.89324      12.05275
     2  H(1)              -0.01027     -22.94167      -8.18616      -7.65252
     3  O(17)              0.02467      -7.47802      -2.66834      -2.49440
     4  N(14)              0.10226      16.51963       5.89461       5.51036
     5  H(1)              -0.00276      -6.16018      -2.19810      -2.05481
     6  N(14)              0.10904      17.61573       6.28573       5.87597
     7  H(1)              -0.00219      -4.89833      -1.74785      -1.63391
     8  H(1)              -0.00024      -0.53480      -0.19083      -0.17839
     9  C(13)             -0.01644      -9.23828      -3.29645      -3.08156
    10  H(1)               0.01264      28.25943      10.08367       9.42633
    11  H(1)               0.01234      27.57942       9.84102       9.19950
    12  H(1)               0.00023       0.51550       0.18394       0.17195
    13  C(13)             -0.02799     -15.73551      -5.61482      -5.24880
    14  C(13)              0.02411      13.55465       4.83664       4.52134
    15  C(13)              0.02369      13.31726       4.75193       4.44216
    16  C(13)             -0.01768      -9.93971      -3.54673      -3.31553
    17  H(1)              -0.00337      -7.54272      -2.69143      -2.51598
    18  C(13)             -0.01778      -9.99466      -3.56634      -3.33386
    19  H(1)              -0.00331      -7.39430      -2.63847      -2.46647
    20  C(13)              0.02810      15.79416       5.63575       5.26836
    21  H(1)               0.00133       2.96888       1.05937       0.99031
    22  H(1)               0.00132       2.94121       1.04950       0.98108
    23  H(1)              -0.00395      -8.83576      -3.15282      -2.94729
 --------------------------------------------------------
       Center         ----  Spin Dipole Couplings  ----
                      3XX-RR        3YY-RR        3ZZ-RR
 --------------------------------------------------------
     1   Atom       -0.329138     -0.345908      0.675045
     2   Atom       -0.009716     -0.014904      0.024619
     3   Atom       -0.308388     -0.330000      0.638388
     4   Atom       -0.411886      0.804484     -0.392598
     5   Atom       -0.021589     -0.009823      0.031413
     6   Atom       -0.680018      1.447083     -0.767065
     7   Atom        0.060163     -0.030611     -0.029552
     8   Atom        0.057326     -0.016013     -0.041313
     9   Atom        0.005022      0.002748     -0.007770
    10   Atom       -0.002549      0.008854     -0.006305
    11   Atom       -0.002023      0.007892     -0.005869
    12   Atom        0.009923      0.003561     -0.013485
    13   Atom        0.049906      0.022925     -0.072831
    14   Atom       -0.098234     -0.105922      0.204156
    15   Atom       -0.098245     -0.106333      0.204578
    16   Atom        0.050581      0.039144     -0.089725
    17   Atom       -0.000791      0.005459     -0.004668
    18   Atom        0.047877      0.042146     -0.090023
    19   Atom       -0.007238      0.010958     -0.003720
    20   Atom       -0.116886     -0.131774      0.248660
    21   Atom        0.005967     -0.001726     -0.004241
    22   Atom        0.004456     -0.000277     -0.004179
    23   Atom        0.017968     -0.017806     -0.000162
 --------------------------------------------------------
                        XY            XZ            YZ
 --------------------------------------------------------
     1   Atom       -0.004276      0.100636     -0.050311
     2   Atom        0.007478     -0.078416     -0.021053
     3   Atom       -0.000015      0.083898     -0.052398
     4   Atom       -0.156486     -0.015104      0.206363
     5   Atom        0.007119     -0.032631     -0.020181
     6   Atom       -0.505761     -0.060947      0.213181
     7   Atom        0.011055     -0.002797     -0.000141
     8   Atom        0.001486      0.006462      0.003483
     9   Atom        0.002169     -0.000660     -0.000148
    10   Atom        0.000866     -0.000097     -0.005504
    11   Atom        0.001516      0.000323      0.006163
    12   Atom       -0.003803     -0.000468     -0.000228
    13   Atom        0.003905     -0.011434      0.004053
    14   Atom        0.001010      0.029908     -0.012948
    15   Atom       -0.002395      0.029627     -0.013319
    16   Atom       -0.002176     -0.013840      0.005909
    17   Atom       -0.008009     -0.000486      0.001280
    18   Atom        0.005786     -0.013223      0.005286
    19   Atom        0.004505      0.000674      0.000159
    20   Atom       -0.000061      0.036104     -0.017018
    21   Atom       -0.001228     -0.001006      0.000253
    22   Atom        0.002963     -0.000674     -0.000123
    23   Atom        0.005097     -0.001517     -0.001268
 --------------------------------------------------------


 ---------------------------------------------------------------------------------
              Anisotropic Spin Dipole Couplings in Principal Axis System
 ---------------------------------------------------------------------------------

       Atom             a.u.   MegaHertz   Gauss  10(-4) cm-1        Axes

              Baa    -0.3484   -46.756   -16.684   -15.596 -0.0711  0.9959  0.0559
     1 C(13)  Bbb    -0.3391   -45.500   -16.235   -15.177  0.9926  0.0762 -0.0947
              Bcc     0.6875    92.256    32.919    30.773  0.0986 -0.0488  0.9939
 
              Baa    -0.0738   -39.371   -14.049   -13.133  0.7617  0.1302  0.6348
     2 H(1)   Bbb    -0.0181    -9.664    -3.448    -3.224 -0.2235  0.9723  0.0688
              Bcc     0.0919    49.035    17.497    16.356 -0.6082 -0.1943  0.7696
 
              Baa    -0.3339    24.163     8.622     8.060 -0.2384  0.9684  0.0728
     3 O(17)  Bbb    -0.3146    22.765     8.123     7.594  0.9672  0.2435 -0.0718
              Bcc     0.6485   -46.929   -16.745   -15.654  0.0872 -0.0533  0.9948
 
              Baa    -0.4403   -16.981    -6.059    -5.664  0.7637  0.1979 -0.6145
     4 N(14)  Bbb    -0.4181   -16.127    -5.754    -5.379  0.6338 -0.0492  0.7719
              Bcc     0.8584    33.107    11.814    11.043 -0.1225  0.9790  0.1630
 
              Baa    -0.0374   -19.930    -7.111    -6.648  0.8870  0.1009  0.4505
     5 H(1)   Bbb    -0.0167    -8.906    -3.178    -2.971 -0.2293  0.9433  0.2402
              Bcc     0.0540    28.836    10.289     9.619 -0.4007 -0.3164  0.8598
 
              Baa    -0.8039   -31.004   -11.063   -10.342  0.7814  0.1175  0.6129
     6 N(14)  Bbb    -0.7782   -30.013   -10.709   -10.011 -0.5841 -0.2079  0.7846
              Bcc     1.5821    61.017    21.772    20.353 -0.2196  0.9711  0.0938
 
              Baa    -0.0320   -17.049    -6.084    -5.687 -0.1212  0.9891 -0.0833
     7 H(1)   Bbb    -0.0296   -15.805    -5.639    -5.272  0.0204  0.0863  0.9961
              Bcc     0.0616    32.854    11.723    10.959  0.9924  0.1191 -0.0306
 
              Baa    -0.0422   -22.501    -8.029    -7.505 -0.0624 -0.1282  0.9898
     8 H(1)   Bbb    -0.0156    -8.332    -2.973    -2.779 -0.0314  0.9915  0.1265
              Bcc     0.0578    30.832    11.002    10.285  0.9976  0.0232  0.0659
 
              Baa    -0.0078    -1.047    -0.374    -0.349  0.0508  0.0036  0.9987
     9 C(13)  Bbb     0.0014     0.193     0.069     0.065 -0.5149  0.8569  0.0231
              Bcc     0.0064     0.854     0.305     0.285  0.8558  0.5154 -0.0453
 
              Baa    -0.0081    -4.321    -1.542    -1.441 -0.0318  0.3101  0.9502
    10 H(1)   Bbb    -0.0026    -1.386    -0.495    -0.462  0.9974 -0.0513  0.0501
              Bcc     0.0107     5.707     2.036     1.904  0.0643  0.9493 -0.3077
 
              Baa    -0.0082    -4.394    -1.568    -1.466  0.0394 -0.3599  0.9321
    11 H(1)   Bbb    -0.0022    -1.175    -0.419    -0.392  0.9917 -0.0998 -0.0804
              Bcc     0.0104     5.569     1.987     1.857  0.1220  0.9276  0.3530
 
              Baa    -0.0135    -7.203    -2.570    -2.403  0.0230  0.0185  0.9996
    12 H(1)   Bbb     0.0018     0.958     0.342     0.319  0.4224  0.9060 -0.0265
              Bcc     0.0117     6.245     2.228     2.083  0.9061 -0.4228 -0.0130
 
              Baa    -0.0741    -9.942    -3.547    -3.316  0.0931 -0.0453  0.9946
    13 C(13)  Bbb     0.0227     3.044     1.086     1.016 -0.1186  0.9913  0.0563
              Bcc     0.0514     6.897     2.461     2.301  0.9886  0.1232 -0.0870
 
              Baa    -0.1073   -14.396    -5.137    -4.802 -0.3419  0.9370  0.0718
    14 C(13)  Bbb    -0.1003   -13.463    -4.804    -4.491  0.9347  0.3470 -0.0771
              Bcc     0.2076    27.859     9.941     9.293  0.0971 -0.0408  0.9944
 
              Baa    -0.1071   -14.373    -5.129    -4.794  0.1834  0.9827  0.0246
    15 C(13)  Bbb    -0.1009   -13.542    -4.832    -4.517  0.9783 -0.1800 -0.1027
              Bcc     0.2080    27.915     9.961     9.312  0.0965 -0.0429  0.9944
 
              Baa    -0.0913   -12.255    -4.373    -4.088  0.0963 -0.0434  0.9944
    16 C(13)  Bbb     0.0388     5.209     1.859     1.738  0.2075  0.9780  0.0226
              Bcc     0.0525     7.046     2.514     2.350  0.9735 -0.2042 -0.1032
 
              Baa    -0.0063    -3.377    -1.205    -1.126  0.7998  0.5653 -0.2017
    17 H(1)   Bbb    -0.0047    -2.516    -0.898    -0.839  0.2138  0.0456  0.9758
              Bcc     0.0110     5.892     2.103     1.966 -0.5608  0.8236  0.0844
 
              Baa    -0.0915   -12.283    -4.383    -4.097  0.0961 -0.0435  0.9944
    18 C(13)  Bbb     0.0395     5.304     1.893     1.769 -0.4739  0.8765  0.0841
              Bcc     0.0520     6.979     2.490     2.328  0.8753  0.4794 -0.0636
 
              Baa    -0.0084    -4.468    -1.594    -1.490  0.9656 -0.2239 -0.1323
    19 H(1)   Bbb    -0.0036    -1.944    -0.694    -0.648  0.1243 -0.0492  0.9910
              Bcc     0.0120     6.412     2.288     2.139  0.2284  0.9734  0.0196
 
              Baa    -0.1327   -17.811    -6.355    -5.941 -0.1236  0.9908  0.0559
    20 C(13)  Bbb    -0.1202   -16.131    -5.756    -5.381  0.9876  0.1283 -0.0907
              Bcc     0.2529    33.942    12.111    11.322  0.0971 -0.0440  0.9943
 
              Baa    -0.0043    -2.319    -0.827    -0.774  0.0906 -0.0538  0.9944
    21 H(1)   Bbb    -0.0019    -1.021    -0.364    -0.341  0.1587  0.9866  0.0389
              Bcc     0.0063     3.340     1.192     1.114  0.9832 -0.1543 -0.0979
 
              Baa    -0.0042    -2.260    -0.806    -0.754  0.0894 -0.0359  0.9954
    22 H(1)   Bbb    -0.0017    -0.902    -0.322    -0.301 -0.4269  0.9015  0.0708
              Bcc     0.0059     3.161     1.128     1.054  0.8999  0.4312 -0.0653
 
              Baa    -0.0186    -9.912    -3.537    -3.306 -0.1356  0.9891  0.0570
    23 H(1)   Bbb    -0.0003    -0.134    -0.048    -0.045  0.0952 -0.0442  0.9945
              Bcc     0.0188    10.046     3.585     3.351  0.9862  0.1403 -0.0882
 

 ---------------------------------------------------------------------------------

 No NMR shielding tensors so no spin-rotation constants.
 Leave Link  601 at Mon Jul 15 21:44:40 2019, MaxMem=   104857600 cpu:               9.3 elap:               0.3
 (Enter /project/6004141/group/g16/g16/l9999.exe)
 1\1\GINC-BLG8232\FOpt\UB3LYP\6-31G(d,p)\C8H12N2O1(3)\RZK\15-Jul-2019\0
 \\#p opt ub3lyp/6-31g(d,p) scrf=(iefpcm,solvent=acetonitrile) empirica
 ldispersion=gd3\\Start with the ground state acetophenone-hydrazine co
 mplex\\0,3\C,0.4451154233,0.2520818915,-0.1714020251\H,4.5301500515,-0
 .3690215478,-0.90418796\O,1.1777498889,-0.8836171864,-0.2165352612\N,4
 .4889661581,-0.3758171995,1.016649999\H,3.9749298436,-0.7065747278,1.8
 236332305\N,3.8585013091,-0.5494488105,-0.1555216552\H,2.1637626608,-0
 .7016841351,-0.2252630651\H,5.4970621622,-0.4824865664,1.0734064059\C,
 1.1410790711,1.5846061941,-0.1863845902\H,0.841132317,2.188355919,-1.0
 531138103\H,0.9018225287,2.1767943028,0.706628739\H,2.2243143825,1.456
 4480485,-0.2244179187\C,-0.9655304016,0.1159137261,-0.1181064131\C,-1.
 5872366316,-1.1709465363,-0.1014768634\C,-1.8276806825,1.2541758932,-0
 .0780727072\C,-2.967027124,-1.2987975299,-0.0485509018\H,-0.9580209061
 ,-2.0535905401,-0.1300906346\C,-3.20704225,1.1064908083,-0.0253355963\
 H,-1.4022972681,2.2525233733,-0.0891779285\C,-3.7970810257,-0.16652568
 56,-0.0098964369\H,-3.409695954,-2.2919349933,-0.036893574\H,-3.835514
 8692,1.993146455,0.0040854677\H,-4.8766116841,-0.2741341531,0.03130249
 97\\Version=ES64L-G16RevA.03\State=3-A\HF=-496.7492053\S2=2.025812\S2-
 1=0.\S2A=2.000362\RMSD=3.316e-09\RMSF=5.503e-06\Dipole=3.3605153,0.339
 9426,0.6543612\Quadrupole=18.588127,-9.2298081,-9.3583189,-2.5672735,4
 .4502603,-1.8255181\PG=C01 [X(C8H12N2O1)]\\@


 TELEVISION IS CALLED A MEDIUM BECAUSE IT ISN'T
 RARE, AND IT ISN'T WELL DONE.
 Job cpu time:       0 days  7 hours 13 minutes 49.3 seconds.
 Elapsed time:       0 days  0 hours 11 minutes 39.3 seconds.
 File lengths (MBytes):  RWF=    181 Int=      0 D2E=      0 Chk=     10 Scr=      2
 Normal termination of Gaussian 16 at Mon Jul 15 21:44:42 2019.
