 Entering Gaussian System, Link 0=g16
 Initial command:
 /opt/software/gaussian/g16.b01/l1.exe "/localscratch/rzk.14619570.0/Gau-13035.inp" -scrdir="/localscratch/rzk.14619570.0/"
 Entering Link 1 = /opt/software/gaussian/g16.b01/l1.exe PID=     13036.
  
 Copyright (c) 1988-2017, Gaussian, Inc.  All Rights Reserved.
  
 This is part of the Gaussian(R) 16 program.  It is based on
 the Gaussian(R) 09 system (copyright 2009, Gaussian, Inc.),
 the Gaussian(R) 03 system (copyright 2003, Gaussian, Inc.),
 the Gaussian(R) 98 system (copyright 1998, Gaussian, Inc.),
 the Gaussian(R) 94 system (copyright 1995, Gaussian, Inc.),
 the Gaussian 92(TM) system (copyright 1992, Gaussian, Inc.),
 the Gaussian 90(TM) system (copyright 1990, Gaussian, Inc.),
 the Gaussian 88(TM) system (copyright 1988, Gaussian, Inc.),
 the Gaussian 86(TM) system (copyright 1986, Carnegie Mellon
 University), and the Gaussian 82(TM) system (copyright 1983,
 Carnegie Mellon University). Gaussian is a federally registered
 trademark of Gaussian, Inc.
  
 This software contains proprietary and confidential information,
 including trade secrets, belonging to Gaussian, Inc.
  
 This software is provided under written license and may be
 used, copied, transmitted, or stored only in accord with that
 written license.
  
 The following legend is applicable only to US Government
 contracts under FAR:
  
                    RESTRICTED RIGHTS LEGEND
  
 Use, reproduction and disclosure by the US Government is
 subject to restrictions as set forth in subparagraphs (a)
 and (c) of the Commercial Computer Software - Restricted
 Rights clause in FAR 52.227-19.
  
 Gaussian, Inc.
 340 Quinnipiac St., Bldg. 40, Wallingford CT 06492
  
  
 ---------------------------------------------------------------
 Warning -- This program may not be used in any manner that
 competes with the business of Gaussian, Inc. or will provide
 assistance to any competitor of Gaussian, Inc.  The licensee
 of this program is prohibited from giving any competitor of
 Gaussian, Inc. access to this program.  By using this program,
 the user acknowledges that Gaussian, Inc. is engaged in the
 business of creating and licensing software in the field of
 computational chemistry and represents and warrants to the
 licensee that it is not a competitor of Gaussian, Inc. and that
 it will not use this program in any manner prohibited above.
 ---------------------------------------------------------------
  

 Cite this work as:
 Gaussian 16, Revision B.01,
 M. J. Frisch, G. W. Trucks, H. B. Schlegel, G. E. Scuseria, 
 M. A. Robb, J. R. Cheeseman, G. Scalmani, V. Barone, 
 G. A. Petersson, H. Nakatsuji, X. Li, M. Caricato, A. V. Marenich, 
 J. Bloino, B. G. Janesko, R. Gomperts, B. Mennucci, H. P. Hratchian, 
 J. V. Ortiz, A. F. Izmaylov, J. L. Sonnenberg, D. Williams-Young, 
 F. Ding, F. Lipparini, F. Egidi, J. Goings, B. Peng, A. Petrone, 
 T. Henderson, D. Ranasinghe, V. G. Zakrzewski, J. Gao, N. Rega, 
 G. Zheng, W. Liang, M. Hada, M. Ehara, K. Toyota, R. Fukuda, 
 J. Hasegawa, M. Ishida, T. Nakajima, Y. Honda, O. Kitao, H. Nakai, 
 T. Vreven, K. Throssell, J. A. Montgomery, Jr., J. E. Peralta, 
 F. Ogliaro, M. J. Bearpark, J. J. Heyd, E. N. Brothers, K. N. Kudin, 
 V. N. Staroverov, T. A. Keith, R. Kobayashi, J. Normand, 
 K. Raghavachari, A. P. Rendell, J. C. Burant, S. S. Iyengar, 
 J. Tomasi, M. Cossi, J. M. Millam, M. Klene, C. Adamo, R. Cammi, 
 J. W. Ochterski, R. L. Martin, K. Morokuma, O. Farkas, 
 J. B. Foresman, and D. J. Fox, Gaussian, Inc., Wallingford CT, 2016.
 
 ******************************************
 Gaussian 16:  ES64L-G16RevB.01 20-Dec-2017
                10-May-2019 
 ******************************************
 %NProcShared=32
 Will use up to   32 processors via shared memory.
 %chk=AA.chk
 ----------------------------------------------------------------------
 #p opt freq b3lyp/6-31g(d,p) scrf=(iefpcm,solvent=acetonitrile) empiri
 caldispersion=gd3
 ----------------------------------------------------------------------
 1/18=20,19=15,26=3,38=1/1,3;
 2/9=110,12=2,17=6,18=5,40=1/2;
 3/5=1,6=6,7=101,11=2,25=1,30=1,70=2201,71=1,72=2,74=-5,124=31/1,2,3;
 4//1;
 5/5=2,38=5,53=2/2;
 6/7=2,8=2,9=2,10=2,28=1/1;
 7//1,2,3,16;
 1/18=20,19=15,26=3/3(2);
 2/9=110/2;
 99//99;
 2/9=110/2;
 3/5=1,6=6,7=101,11=2,25=1,30=1,70=2205,71=1,72=2,74=-5,124=31/1,2,3;
 4/5=5,16=3,69=1/1;
 5/5=2,38=5,53=2/2;
 7//1,2,3,16;
 1/18=20,19=15,26=3/3(-5);
 2/9=110/2;
 6/7=2,8=2,9=2,10=2,19=2,28=1/1;
 99/9=1/99;
 Leave Link    1 at Fri May 10 15:57:40 2019, MaxMem=           0 cpu:               2.0 elap:               0.1
 (Enter /opt/software/gaussian/g16.b01/l101.exe)
 -------------------
 Title Card Required
 -------------------
 Symbolic Z-matrix:
 Charge =  0 Multiplicity = 1
 C                     0.2737    1.92458  -0.16043 
 C                    -1.07181   1.43554  -0.84352 
 C                    -1.4041   -0.01224  -0.49479 
 C                    -2.11007  -0.31379   0.68145 
 C                    -0.96357  -1.06501  -1.31411 
 C                    -2.3555   -1.64474   1.04269 
 H                    -2.46601   0.50376   1.30503 
 C                    -1.20669  -2.39776  -0.95605 
 H                    -0.41526  -0.83994  -2.22863 
 C                    -1.90098  -2.69152   0.22653 
 H                    -2.90096  -1.86578   1.95908 
 H                    -0.85836  -3.20417  -1.59963 
 H                    -2.09188  -3.72627   0.50628 
 C                     0.97176   0.86153   0.66034 
 C                     0.72125   0.73131   2.03666 
 C                     1.84027  -0.04565   0.03019 
 C                     1.32098  -0.30029   2.76894 
 H                     0.05307   1.44125   2.51849 
 C                     2.43613  -1.08213   0.76122 
 H                     2.04479   0.05551  -1.03575 
 C                     2.17593  -1.21307   2.13283 
 H                     1.12022  -0.39377   3.83503 
 H                     3.10612  -1.78056   0.26266 
 H                     2.64051  -2.01575   2.70283 
 H                     0.69362   3.63524   0.73012 
 H                    -1.77426   2.76024   0.34956 
 O                    -2.13364   2.3063   -0.44674 
 O                    -0.10031   3.08493   0.61504 
 C                     1.20337   2.37604  -1.30214 
 H                     2.18315   2.55909  -0.91302 
 H                     1.25276   1.60885  -2.04637 
 H                     0.82013   3.27384  -1.74028 
 C                    -0.86731   1.54864  -2.36568 
 H                    -1.69052   1.08868  -2.8713 
 H                    -0.81054   2.58073  -2.64221 
 H                     0.04123   1.05509  -2.64114 
 
 ITRead=  0  0  0  0  0  0  0  0  0  0  0  0  0  0  0  0  0  0  0  0
 ITRead=  0  0  0  0  0  0  0  0  0  0  0  0  0  0  0  0
 MicOpt= -1 -1 -1 -1 -1 -1 -1 -1 -1 -1 -1 -1 -1 -1 -1 -1 -1 -1 -1 -1
 MicOpt= -1 -1 -1 -1 -1 -1 -1 -1 -1 -1 -1 -1 -1 -1 -1 -1
 NAtoms=     36 NQM=       36 NQMF=       0 NMMI=      0 NMMIF=      0
                NMic=       0 NMicF=      0.
                    Isotopes and Nuclear Properties:
 (Nuclear quadrupole moments (NQMom) in fm**2, nuclear magnetic moments (NMagM)
  in nuclear magnetons)

  Atom         1           2           3           4           5           6           7           8           9          10
 IAtWgt=          12          12          12          12          12          12           1          12           1          12
 AtmWgt=  12.0000000  12.0000000  12.0000000  12.0000000  12.0000000  12.0000000   1.0078250  12.0000000   1.0078250  12.0000000
 NucSpn=           0           0           0           0           0           0           1           0           1           0
 AtZEff=  -0.0000000  -0.0000000  -0.0000000  -0.0000000  -0.0000000  -0.0000000  -0.0000000  -0.0000000  -0.0000000  -0.0000000
 NQMom=    0.0000000   0.0000000   0.0000000   0.0000000   0.0000000   0.0000000   0.0000000   0.0000000   0.0000000   0.0000000
 NMagM=    0.0000000   0.0000000   0.0000000   0.0000000   0.0000000   0.0000000   2.7928460   0.0000000   2.7928460   0.0000000
 AtZNuc=   6.0000000   6.0000000   6.0000000   6.0000000   6.0000000   6.0000000   1.0000000   6.0000000   1.0000000   6.0000000

  Atom        11          12          13          14          15          16          17          18          19          20
 IAtWgt=           1           1           1          12          12          12          12           1          12           1
 AtmWgt=   1.0078250   1.0078250   1.0078250  12.0000000  12.0000000  12.0000000  12.0000000   1.0078250  12.0000000   1.0078250
 NucSpn=           1           1           1           0           0           0           0           1           0           1
 AtZEff=  -0.0000000  -0.0000000  -0.0000000  -0.0000000  -0.0000000  -0.0000000  -0.0000000  -0.0000000  -0.0000000  -0.0000000
 NQMom=    0.0000000   0.0000000   0.0000000   0.0000000   0.0000000   0.0000000   0.0000000   0.0000000   0.0000000   0.0000000
 NMagM=    2.7928460   2.7928460   2.7928460   0.0000000   0.0000000   0.0000000   0.0000000   2.7928460   0.0000000   2.7928460
 AtZNuc=   1.0000000   1.0000000   1.0000000   6.0000000   6.0000000   6.0000000   6.0000000   1.0000000   6.0000000   1.0000000

  Atom        21          22          23          24          25          26          27          28          29          30
 IAtWgt=          12           1           1           1           1           1          16          16          12           1
 AtmWgt=  12.0000000   1.0078250   1.0078250   1.0078250   1.0078250   1.0078250  15.9949146  15.9949146  12.0000000   1.0078250
 NucSpn=           0           1           1           1           1           1           0           0           0           1
 AtZEff=  -0.0000000  -0.0000000  -0.0000000  -0.0000000  -0.0000000  -0.0000000  -0.0000000  -0.0000000  -0.0000000  -0.0000000
 NQMom=    0.0000000   0.0000000   0.0000000   0.0000000   0.0000000   0.0000000   0.0000000   0.0000000   0.0000000   0.0000000
 NMagM=    0.0000000   2.7928460   2.7928460   2.7928460   2.7928460   2.7928460   0.0000000   0.0000000   0.0000000   2.7928460
 AtZNuc=   6.0000000   1.0000000   1.0000000   1.0000000   1.0000000   1.0000000   8.0000000   8.0000000   6.0000000   1.0000000

  Atom        31          32          33          34          35          36
 IAtWgt=           1           1          12           1           1           1
 AtmWgt=   1.0078250   1.0078250  12.0000000   1.0078250   1.0078250   1.0078250
 NucSpn=           1           1           0           1           1           1
 AtZEff=  -0.0000000  -0.0000000  -0.0000000  -0.0000000  -0.0000000  -0.0000000
 NQMom=    0.0000000   0.0000000   0.0000000   0.0000000   0.0000000   0.0000000
 NMagM=    2.7928460   2.7928460   0.0000000   2.7928460   2.7928460   2.7928460
 AtZNuc=   1.0000000   1.0000000   6.0000000   1.0000000   1.0000000   1.0000000
 Leave Link  101 at Fri May 10 15:57:40 2019, MaxMem=   104857600 cpu:               6.0 elap:               0.2
 (Enter /opt/software/gaussian/g16.b01/l103.exe)

 GradGradGradGradGradGradGradGradGradGradGradGradGradGradGradGradGradGrad
 Berny optimization.
 Initialization pass.
                           ----------------------------
                           !    Initial Parameters    !
                           ! (Angstroms and Degrees)  !
 --------------------------                            --------------------------
 ! Name  Definition              Value          Derivative Info.                !
 --------------------------------------------------------------------------------
 ! R1    R(1,2)                  1.5862         estimate D2E/DX2                !
 ! R2    R(1,14)                 1.5136         estimate D2E/DX2                !
 ! R3    R(1,28)                 1.4449         estimate D2E/DX2                !
 ! R4    R(1,29)                 1.54           estimate D2E/DX2                !
 ! R5    R(2,3)                  1.5258         estimate D2E/DX2                !
 ! R6    R(2,27)                 1.4294         estimate D2E/DX2                !
 ! R7    R(2,33)                 1.54           estimate D2E/DX2                !
 ! R8    R(3,4)                  1.4046         estimate D2E/DX2                !
 ! R9    R(3,5)                  1.4049         estimate D2E/DX2                !
 ! R10   R(4,6)                  1.4008         estimate D2E/DX2                !
 ! R11   R(4,7)                  1.0881         estimate D2E/DX2                !
 ! R12   R(5,8)                  1.4013         estimate D2E/DX2                !
 ! R13   R(5,9)                  1.0898         estimate D2E/DX2                !
 ! R14   R(6,10)                 1.403          estimate D2E/DX2                !
 ! R15   R(6,11)                 1.0891         estimate D2E/DX2                !
 ! R16   R(8,10)                 1.4024         estimate D2E/DX2                !
 ! R17   R(8,12)                 1.089          estimate D2E/DX2                !
 ! R18   R(10,13)                1.0888         estimate D2E/DX2                !
 ! R19   R(14,15)                1.405          estimate D2E/DX2                !
 ! R20   R(14,16)                1.4051         estimate D2E/DX2                !
 ! R21   R(15,17)                1.4            estimate D2E/DX2                !
 ! R22   R(15,18)                1.0875         estimate D2E/DX2                !
 ! R23   R(16,19)                1.4013         estimate D2E/DX2                !
 ! R24   R(16,20)                1.0901         estimate D2E/DX2                !
 ! R25   R(17,21)                1.4031         estimate D2E/DX2                !
 ! R26   R(17,22)                1.0889         estimate D2E/DX2                !
 ! R27   R(19,21)                1.4022         estimate D2E/DX2                !
 ! R28   R(19,23)                1.0887         estimate D2E/DX2                !
 ! R29   R(21,24)                1.0886         estimate D2E/DX2                !
 ! R30   R(25,28)                0.9728         estimate D2E/DX2                !
 ! R31   R(26,27)                0.9845         estimate D2E/DX2                !
 ! R32   R(29,30)                1.07           estimate D2E/DX2                !
 ! R33   R(29,31)                1.07           estimate D2E/DX2                !
 ! R34   R(29,32)                1.07           estimate D2E/DX2                !
 ! R35   R(33,34)                1.07           estimate D2E/DX2                !
 ! R36   R(33,35)                1.07           estimate D2E/DX2                !
 ! R37   R(33,36)                1.07           estimate D2E/DX2                !
 ! A1    A(2,1,14)             114.0911         estimate D2E/DX2                !
 ! A2    A(2,1,28)             105.0196         estimate D2E/DX2                !
 ! A3    A(2,1,29)             106.4504         estimate D2E/DX2                !
 ! A4    A(14,1,28)            113.1024         estimate D2E/DX2                !
 ! A5    A(14,1,29)            109.2378         estimate D2E/DX2                !
 ! A6    A(28,1,29)            108.5859         estimate D2E/DX2                !
 ! A7    A(1,2,3)              112.2618         estimate D2E/DX2                !
 ! A8    A(1,2,27)             108.8302         estimate D2E/DX2                !
 ! A9    A(1,2,33)             106.8797         estimate D2E/DX2                !
 ! A10   A(3,2,27)             110.6593         estimate D2E/DX2                !
 ! A11   A(3,2,33)             108.9362         estimate D2E/DX2                !
 ! A12   A(27,2,33)            109.1644         estimate D2E/DX2                !
 ! A13   A(2,3,4)              120.3029         estimate D2E/DX2                !
 ! A14   A(2,3,5)              120.6279         estimate D2E/DX2                !
 ! A15   A(4,3,5)              119.0196         estimate D2E/DX2                !
 ! A16   A(3,4,6)              120.532          estimate D2E/DX2                !
 ! A17   A(3,4,7)              118.8837         estimate D2E/DX2                !
 ! A18   A(6,4,7)              120.5839         estimate D2E/DX2                !
 ! A19   A(3,5,8)              120.6174         estimate D2E/DX2                !
 ! A20   A(3,5,9)              119.499          estimate D2E/DX2                !
 ! A21   A(8,5,9)              119.8776         estimate D2E/DX2                !
 ! A22   A(4,6,10)             120.1406         estimate D2E/DX2                !
 ! A23   A(4,6,11)             119.8402         estimate D2E/DX2                !
 ! A24   A(10,6,11)            120.0192         estimate D2E/DX2                !
 ! A25   A(5,8,10)             120.0385         estimate D2E/DX2                !
 ! A26   A(5,8,12)             119.8551         estimate D2E/DX2                !
 ! A27   A(10,8,12)            120.1062         estimate D2E/DX2                !
 ! A28   A(6,10,8)             119.6449         estimate D2E/DX2                !
 ! A29   A(6,10,13)            120.1862         estimate D2E/DX2                !
 ! A30   A(8,10,13)            120.1677         estimate D2E/DX2                !
 ! A31   A(1,14,15)            120.9348         estimate D2E/DX2                !
 ! A32   A(1,14,16)            119.6908         estimate D2E/DX2                !
 ! A33   A(15,14,16)           119.3195         estimate D2E/DX2                !
 ! A34   A(14,15,17)           120.2844         estimate D2E/DX2                !
 ! A35   A(14,15,18)           118.8858         estimate D2E/DX2                !
 ! A36   A(17,15,18)           120.8294         estimate D2E/DX2                !
 ! A37   A(14,16,19)           120.4247         estimate D2E/DX2                !
 ! A38   A(14,16,20)           119.6421         estimate D2E/DX2                !
 ! A39   A(19,16,20)           119.9318         estimate D2E/DX2                !
 ! A40   A(15,17,21)           120.2136         estimate D2E/DX2                !
 ! A41   A(15,17,22)           119.7611         estimate D2E/DX2                !
 ! A42   A(21,17,22)           120.0252         estimate D2E/DX2                !
 ! A43   A(16,19,21)           120.0294         estimate D2E/DX2                !
 ! A44   A(16,19,23)           119.8205         estimate D2E/DX2                !
 ! A45   A(21,19,23)           120.1488         estimate D2E/DX2                !
 ! A46   A(17,21,19)           119.7218         estimate D2E/DX2                !
 ! A47   A(17,21,24)           120.1544         estimate D2E/DX2                !
 ! A48   A(19,21,24)           120.1225         estimate D2E/DX2                !
 ! A49   A(2,27,26)            103.5463         estimate D2E/DX2                !
 ! A50   A(1,28,25)            107.8502         estimate D2E/DX2                !
 ! A51   A(1,29,30)            109.4712         estimate D2E/DX2                !
 ! A52   A(1,29,31)            109.4712         estimate D2E/DX2                !
 ! A53   A(1,29,32)            109.4712         estimate D2E/DX2                !
 ! A54   A(30,29,31)           109.4713         estimate D2E/DX2                !
 ! A55   A(30,29,32)           109.4712         estimate D2E/DX2                !
 ! A56   A(31,29,32)           109.4712         estimate D2E/DX2                !
 ! A57   A(2,33,34)            109.4712         estimate D2E/DX2                !
 ! A58   A(2,33,35)            109.4712         estimate D2E/DX2                !
 ! A59   A(2,33,36)            109.4712         estimate D2E/DX2                !
 ! A60   A(34,33,35)           109.4713         estimate D2E/DX2                !
 ! A61   A(34,33,36)           109.4712         estimate D2E/DX2                !
 ! A62   A(35,33,36)           109.4712         estimate D2E/DX2                !
 ! D1    D(14,1,2,3)             1.5559         estimate D2E/DX2                !
 ! D2    D(14,1,2,27)          124.4016         estimate D2E/DX2                !
 ! D3    D(14,1,2,33)         -117.8276         estimate D2E/DX2                !
 ! D4    D(28,1,2,3)          -122.8457         estimate D2E/DX2                !
 ! D5    D(28,1,2,27)            0.0            estimate D2E/DX2                !
 ! D6    D(28,1,2,33)          117.7708         estimate D2E/DX2                !
 ! D7    D(29,1,2,3)           122.1105         estimate D2E/DX2                !
 ! D8    D(29,1,2,27)         -115.0438         estimate D2E/DX2                !
 ! D9    D(29,1,2,33)            2.727          estimate D2E/DX2                !
 ! D10   D(2,1,14,15)          -92.3567         estimate D2E/DX2                !
 ! D11   D(2,1,14,16)           84.9319         estimate D2E/DX2                !
 ! D12   D(28,1,14,15)          27.6014         estimate D2E/DX2                !
 ! D13   D(28,1,14,16)        -155.1099         estimate D2E/DX2                !
 ! D14   D(29,1,14,15)         148.6575         estimate D2E/DX2                !
 ! D15   D(29,1,14,16)         -34.0538         estimate D2E/DX2                !
 ! D16   D(2,1,28,25)         -155.7391         estimate D2E/DX2                !
 ! D17   D(14,1,28,25)          79.2358         estimate D2E/DX2                !
 ! D18   D(29,1,28,25)         -42.1885         estimate D2E/DX2                !
 ! D19   D(2,1,29,30)         -170.4454         estimate D2E/DX2                !
 ! D20   D(2,1,29,31)          -50.4454         estimate D2E/DX2                !
 ! D21   D(2,1,29,32)           69.5546         estimate D2E/DX2                !
 ! D22   D(14,1,29,30)         -46.8155         estimate D2E/DX2                !
 ! D23   D(14,1,29,31)          73.1846         estimate D2E/DX2                !
 ! D24   D(14,1,29,32)        -166.8155         estimate D2E/DX2                !
 ! D25   D(28,1,29,30)          76.9502         estimate D2E/DX2                !
 ! D26   D(28,1,29,31)        -163.0498         estimate D2E/DX2                !
 ! D27   D(28,1,29,32)         -43.0498         estimate D2E/DX2                !
 ! D28   D(1,2,3,4)             85.7473         estimate D2E/DX2                !
 ! D29   D(1,2,3,5)            -91.6684         estimate D2E/DX2                !
 ! D30   D(27,2,3,4)           -36.0609         estimate D2E/DX2                !
 ! D31   D(27,2,3,5)           146.5234         estimate D2E/DX2                !
 ! D32   D(33,2,3,4)          -156.0792         estimate D2E/DX2                !
 ! D33   D(33,2,3,5)            26.5052         estimate D2E/DX2                !
 ! D34   D(1,2,27,26)          -17.8857         estimate D2E/DX2                !
 ! D35   D(3,2,27,26)          105.9182         estimate D2E/DX2                !
 ! D36   D(33,2,27,26)        -134.2002         estimate D2E/DX2                !
 ! D37   D(1,2,33,34)          171.3105         estimate D2E/DX2                !
 ! D38   D(1,2,33,35)          -68.6894         estimate D2E/DX2                !
 ! D39   D(1,2,33,36)           51.3105         estimate D2E/DX2                !
 ! D40   D(3,2,33,34)           49.8002         estimate D2E/DX2                !
 ! D41   D(3,2,33,35)          169.8002         estimate D2E/DX2                !
 ! D42   D(3,2,33,36)          -70.1998         estimate D2E/DX2                !
 ! D43   D(27,2,33,34)         -71.1382         estimate D2E/DX2                !
 ! D44   D(27,2,33,35)          48.8618         estimate D2E/DX2                !
 ! D45   D(27,2,33,36)         168.8618         estimate D2E/DX2                !
 ! D46   D(2,3,4,6)           -176.5739         estimate D2E/DX2                !
 ! D47   D(2,3,4,7)              3.6468         estimate D2E/DX2                !
 ! D48   D(5,3,4,6)              0.8831         estimate D2E/DX2                !
 ! D49   D(5,3,4,7)           -178.8963         estimate D2E/DX2                !
 ! D50   D(2,3,5,8)            176.5441         estimate D2E/DX2                !
 ! D51   D(2,3,5,9)             -2.5619         estimate D2E/DX2                !
 ! D52   D(4,3,5,8)             -0.9043         estimate D2E/DX2                !
 ! D53   D(4,3,5,9)            179.9897         estimate D2E/DX2                !
 ! D54   D(3,4,6,10)            -0.256          estimate D2E/DX2                !
 ! D55   D(3,4,6,11)           179.7803         estimate D2E/DX2                !
 ! D56   D(7,4,6,10)           179.5196         estimate D2E/DX2                !
 ! D57   D(7,4,6,11)            -0.4441         estimate D2E/DX2                !
 ! D58   D(3,5,8,10)             0.2973         estimate D2E/DX2                !
 ! D59   D(3,5,8,12)          -179.9101         estimate D2E/DX2                !
 ! D60   D(9,5,8,10)           179.3999         estimate D2E/DX2                !
 ! D61   D(9,5,8,12)            -0.8075         estimate D2E/DX2                !
 ! D62   D(4,6,10,8)            -0.3621         estimate D2E/DX2                !
 ! D63   D(4,6,10,13)         -179.9612         estimate D2E/DX2                !
 ! D64   D(11,6,10,8)          179.6016         estimate D2E/DX2                !
 ! D65   D(11,6,10,13)           0.0024         estimate D2E/DX2                !
 ! D66   D(5,8,10,6)             0.3414         estimate D2E/DX2                !
 ! D67   D(5,8,10,13)          179.9406         estimate D2E/DX2                !
 ! D68   D(12,8,10,6)         -179.4507         estimate D2E/DX2                !
 ! D69   D(12,8,10,13)           0.1486         estimate D2E/DX2                !
 ! D70   D(1,14,15,17)         176.6644         estimate D2E/DX2                !
 ! D71   D(1,14,15,18)          -3.1014         estimate D2E/DX2                !
 ! D72   D(16,14,15,17)         -0.6342         estimate D2E/DX2                !
 ! D73   D(16,14,15,18)        179.6            estimate D2E/DX2                !
 ! D74   D(1,14,16,19)        -176.4055         estimate D2E/DX2                !
 ! D75   D(1,14,16,20)           3.1693         estimate D2E/DX2                !
 ! D76   D(15,14,16,19)          0.9272         estimate D2E/DX2                !
 ! D77   D(15,14,16,20)       -179.498          estimate D2E/DX2                !
 ! D78   D(14,15,17,21)         -0.0714         estimate D2E/DX2                !
 ! D79   D(14,15,17,22)       -179.9489         estimate D2E/DX2                !
 ! D80   D(18,15,17,21)        179.6898         estimate D2E/DX2                !
 ! D81   D(18,15,17,22)         -0.1877         estimate D2E/DX2                !
 ! D82   D(14,16,19,21)         -0.5137         estimate D2E/DX2                !
 ! D83   D(14,16,19,23)        179.8901         estimate D2E/DX2                !
 ! D84   D(20,16,19,21)        179.9128         estimate D2E/DX2                !
 ! D85   D(20,16,19,23)          0.3165         estimate D2E/DX2                !
 ! D86   D(15,17,21,19)          0.4907         estimate D2E/DX2                !
 ! D87   D(15,17,21,24)       -179.9047         estimate D2E/DX2                !
 ! D88   D(22,17,21,19)       -179.6321         estimate D2E/DX2                !
 ! D89   D(22,17,21,24)         -0.0275         estimate D2E/DX2                !
 ! D90   D(16,19,21,17)         -0.199          estimate D2E/DX2                !
 ! D91   D(16,19,21,24)       -179.8038         estimate D2E/DX2                !
 ! D92   D(23,19,21,17)        179.3959         estimate D2E/DX2                !
 ! D93   D(23,19,21,24)         -0.2088         estimate D2E/DX2                !
 --------------------------------------------------------------------------------
 Trust Radius=3.00D-01 FncErr=1.00D-07 GrdErr=1.00D-06 EigMax=2.50D+02 EigMin=1.00D-04
 Number of steps in this run=    202 maximum allowed number of steps=    216.
 GradGradGradGradGradGradGradGradGradGradGradGradGradGradGradGradGradGrad

 Leave Link  103 at Fri May 10 15:57:40 2019, MaxMem=   104857600 cpu:               2.1 elap:               0.1
 (Enter /opt/software/gaussian/g16.b01/l202.exe)
                          Input orientation:                          
 ---------------------------------------------------------------------
 Center     Atomic      Atomic             Coordinates (Angstroms)
 Number     Number       Type             X           Y           Z
 ---------------------------------------------------------------------
      1          6           0        0.273697    1.924575   -0.160427
      2          6           0       -1.071811    1.435536   -0.843517
      3          6           0       -1.404103   -0.012238   -0.494786
      4          6           0       -2.110065   -0.313791    0.681450
      5          6           0       -0.963570   -1.065006   -1.314105
      6          6           0       -2.355497   -1.644737    1.042694
      7          1           0       -2.466010    0.503760    1.305029
      8          6           0       -1.206689   -2.397760   -0.956046
      9          1           0       -0.415264   -0.839938   -2.228627
     10          6           0       -1.900981   -2.691518    0.226534
     11          1           0       -2.900963   -1.865776    1.959076
     12          1           0       -0.858356   -3.204168   -1.599632
     13          1           0       -2.091882   -3.726266    0.506280
     14          6           0        0.971762    0.861533    0.660338
     15          6           0        0.721255    0.731308    2.036663
     16          6           0        1.840270   -0.045647    0.030194
     17          6           0        1.320976   -0.300294    2.768939
     18          1           0        0.053070    1.441249    2.518490
     19          6           0        2.436132   -1.082128    0.761219
     20          1           0        2.044786    0.055511   -1.035745
     21          6           0        2.175930   -1.213066    2.132827
     22          1           0        1.120217   -0.393767    3.835033
     23          1           0        3.106117   -1.780558    0.262656
     24          1           0        2.640505   -2.015748    2.702827
     25          1           0        0.693622    3.635236    0.730122
     26          1           0       -1.774257    2.760240    0.349560
     27          8           0       -2.133639    2.306304   -0.446735
     28          8           0       -0.100306    3.084934    0.615036
     29          6           0        1.203366    2.376035   -1.302136
     30          1           0        2.183154    2.559089   -0.913023
     31          1           0        1.252759    1.608850   -2.046372
     32          1           0        0.820126    3.273843   -1.740276
     33          6           0       -0.867309    1.548638   -2.365682
     34          1           0       -1.690525    1.088678   -2.871303
     35          1           0       -0.810538    2.580727   -2.642213
     36          1           0        0.041227    1.055093   -2.641139
 ---------------------------------------------------------------------
                    Distance matrix (angstroms):
                    1          2          3          4          5
     1  C    0.000000
     2  C    1.586242   0.000000
     3  C    2.584193   1.525805   0.000000
     4  C    3.376590   2.542369   1.404581   0.000000
     5  C    3.435025   2.546739   1.404875   2.420953   0.000000
     6  C    4.593490   3.833239   2.435990   1.400768   2.797865
     7  H    3.416471   2.725481   2.152495   1.088089   3.402678
     8  C    4.637578   3.837318   2.437714   2.800073   1.401266
     9  H    3.520604   2.743604   2.160809   3.408479   1.089792
    10  C    5.117351   4.343398   2.818817   2.429866   2.428549
    11  H    5.379361   4.700956   3.420180   2.160210   3.886957
    12  H    5.445811   4.705755   3.421541   3.889009   2.160697
    13  H    6.162180   5.432007   3.907579   3.417016   3.416020
    14  C    1.513608   2.601394   2.782539   3.298408   3.369791
    15  C    2.539961   3.465034   3.387956   3.308354   4.158489
    16  C    2.524334   3.381936   3.286742   4.012628   3.272270
    17  C    3.824659   4.667802   4.261564   4.016196   4.740800
    18  H    2.731094   3.545206   3.649084   3.336770   4.690806
    19  C    3.816519   4.606460   4.179667   4.611357   3.983119
    20  H    2.719621   3.413883   3.491714   4.510868   3.222305
    21  C    4.326927   5.140189   4.600323   4.613561   4.664732
    22  H    4.696276   5.480891   5.026439   4.515109   5.595208
    23  H    4.682907   5.387204   4.903342   5.434644   4.422731
    24  H    5.415363   6.186212   5.531514   5.436041   5.479874
    25  H    1.973772   3.229825   4.382341   4.843330   5.386782
    26  H    2.269920   1.916169   2.921741   3.110078   4.249412
    27  O    2.454171   1.429389   2.431084   2.852763   3.672482
    28  O    1.444872   2.406598   3.538936   3.949034   4.657125
    29  C    1.540000   2.504257   3.626921   4.706230   4.066512
    30  H    2.148263   3.444125   4.433402   5.406247   4.816305
    31  H    2.148263   2.623075   3.477680   4.737736   3.549343
    32  H    2.148263   2.786212   4.158939   5.227035   4.710500
    33  C    2.511249   1.540000   2.494942   3.781283   2.818903
    34  H    3.450469   2.148263   2.634746   3.842524   2.755301
    35  H    2.786640   2.148263   3.418659   4.594969   3.883125
    36  H    2.638934   2.148263   2.799107   4.188257   2.695450
                    6          7          8          9         10
     6  C    0.000000
     7  H    2.167273   0.000000
     8  C    2.425235   3.888080   0.000000
     9  H    3.887640   4.300908   2.161626   0.000000
    10  C    1.403015   3.419387   1.402437   3.415189   0.000000
    11  H    1.089104   2.496330   3.413430   4.976736   2.164143
    12  H    3.413963   4.976981   1.088959   2.486272   2.164430
    13  H    2.165640   4.321006   2.164923   4.315281   1.088763
    14  C    4.183090   3.515950   4.240441   3.628356   4.589664
    15  C    4.012476   3.278067   4.739656   4.685423   4.676369
    16  C    4.602902   4.524500   3.973545   3.289469   4.586517
    17  C    4.278306   4.138937   4.966283   5.318027   4.750030
    18  H    4.183597   2.949091   5.328920   5.287558   5.113819
    19  C    4.832749   5.180904   4.236748   4.138634   4.656885
    20  H    5.154924   5.101709   4.073940   2.876916   4.970774
    21  C    4.680658   5.018002   4.731463   5.086825   4.737191
    22  H    4.630623   4.479677   5.690775   6.270944   5.237228
    23  H    5.518708   6.111731   4.523988   4.414905   5.089419
    24  H    5.277664   5.863298   5.322987   5.919417   5.216684
    25  H    6.105157   4.485525   6.546097   5.478230   6.856631
    26  H    4.496899   2.546202   5.350860   4.631975   5.454618
    27  O    4.228279   2.535412   4.821499   4.003347   5.048331
    28  O    5.257239   3.568628   5.809674   4.856978   6.063065
    29  C    5.859210   4.875146   5.358849   3.717638   6.136277
    30  H    6.488168   5.546066   6.005267   4.476156   6.748897
    31  H    5.757401   5.126632   4.826036   2.968515   5.797012
    32  H    6.482433   5.267441   6.073720   4.322947   6.845312
    33  C    4.901977   4.137842   4.204321   2.434836   5.076119
    34  H    4.820075   4.287803   4.007188   2.399767   4.891909
    35  H    5.815495   4.757636   5.271189   3.468176   6.100438
    36  H    5.157905   4.707700   4.039681   1.992408   5.102236
                   11         12         13         14         15
    11  H    0.000000
    12  H    4.316010   0.000000
    13  H    2.495326   2.495804   0.000000
    14  C    4.911511   4.998672   5.518836   0.000000
    15  C    4.457727   5.586214   5.488696   1.404985   0.000000
    16  C    5.432563   4.462642   5.406980   1.405120   2.425236
    17  C    4.575082   5.680351   5.338961   2.432692   1.400034
    18  H    4.469415   6.274514   5.945841   2.152393   1.087494
    19  C    5.525717   4.574967   5.249702   2.435647   2.802876
    20  H    6.092679   4.401331   5.813063   2.162811   3.412936
    21  C    5.121627   5.206018   5.213065   2.814642   2.430209
    22  H    4.675031   6.430294   5.701204   3.417090   2.158495
    23  H    6.242605   4.605630   5.555567   3.419689   3.891548
    24  H    5.593168   5.671466   5.490554   3.903231   3.416667
    25  H    6.685245   7.390118   7.874062   2.788487   3.184433
    26  H    5.025936   6.341324   6.496169   3.352953   3.631868
    27  O    4.876778   5.772419   6.107527   3.599512   4.098573
    28  O    5.844626   6.710603   7.097228   2.468783   2.869763
    29  C    6.743440   5.956330   7.167085   2.489711   3.753017
    30  H    7.326433   6.552659   7.732789   2.612399   3.765445
    31  H    6.735729   5.274612   6.794565   2.822007   4.209959
    32  H    7.344889   6.693408   7.907486   3.406638   4.554068
    33  C    5.873458   4.814154   6.129630   3.607089   4.751022
    34  H    5.790209   4.553919   5.895154   4.428527   5.480194
    35  H    6.731502   5.878288   7.164706   4.127840   5.259147
    36  H    6.192732   4.476079   6.108829   3.435565   4.738049
                   16         17         18         19         20
    16  C    0.000000
    17  C    2.799149   0.000000
    18  H    3.405372   2.168705   0.000000
    19  C    1.401336   2.426063   3.890298   0.000000
    20  H    1.090086   3.889231   4.303463   2.162511   0.000000
    21  C    2.428292   1.403117   3.420622   1.402198   3.415602
    22  H    3.887989   1.088851   2.497874   3.413767   4.978067
    23  H    2.160168   3.414581   4.978948   1.088692   2.486648
    24  H    3.415354   2.165251   4.321994   2.164084   4.315312
    25  H    3.918367   4.476466   2.902093   5.028999   4.214067
    26  H    4.586916   4.980033   3.127798   5.714948   4.880545
    27  O    4.642315   5.391593   3.784518   5.815792   4.782493
    28  O    3.729398   4.256654   2.519595   4.880501   4.062499
    29  C    2.836423   4.873420   4.098071   4.211417   2.482697
    30  H    2.791393   4.740914   4.190716   4.015662   2.510400
    31  H    2.719312   5.180416   4.722850   4.065010   2.015326
    32  H    3.897983   5.775667   4.699348   5.276688   3.514800
    33  C    3.951322   5.879751   4.971294   5.254632   3.532486
    34  H    4.708704   6.542989   5.675764   5.910745   4.288270
    35  H    4.589813   6.490316   5.355099   5.961604   4.136464
    36  H    3.403557   5.722217   5.174072   4.677533   2.755123
                   21         22         23         24         25
    21  C    0.000000
    22  H    2.164090   0.000000
    23  H    2.164448   4.316116   0.000000
    24  H    1.088591   2.494792   2.495304   0.000000
    25  H    5.260310   5.104442   5.947226   6.294088   0.000000
    26  H    5.879726   5.520350   6.666668   6.916506   2.645916
    27  O    6.132902   6.017599   6.682868   7.168845   3.338331
    28  O    5.094874   4.894836   5.837665   6.155313   0.972830
    29  C    5.062262   5.836884   4.831801   6.114970   2.444483
    30  H    4.848340   5.691505   4.589839   5.849160   2.465101
    31  H    5.126516   6.214416   4.500516   6.133388   3.482498
    32  H    6.080419   6.680232   5.897836   7.143860   2.499895
    33  C    6.093020   6.795003   5.812041   7.120351   4.046529
    34  H    6.729697   7.421109   6.407963   7.711434   5.013918
    35  H    6.790645   7.384453   6.542115   7.848996   3.840199
    36  H    5.700197   6.723408   5.085911   6.689117   4.295132
                   26         27         28         29         30
    26  H    0.000000
    27  O    0.984530   0.000000
    28  O    1.725693   2.422409   0.000000
    29  C    3.426653   3.445603   2.424386   0.000000
    30  H    4.158807   4.349255   2.797439   1.070000   0.000000
    31  H    4.028525   3.809589   3.330570   1.070000   1.747303
    32  H    3.370761   3.366617   2.535819   1.070000   1.747303
    33  C    3.108549   2.420745   3.439939   2.470508   3.526549
    34  H    3.629750   2.749089   4.320693   3.534711   4.582832
    35  H    3.148282   2.577989   3.371695   2.427657   3.457276
    36  H    3.892016   3.333313   3.839656   2.210970   3.136278
                   31         32         33         34         35
    31  H    0.000000
    32  H    1.747303   0.000000
    33  C    2.144824   2.492970   0.000000
    34  H    3.100646   3.515328   1.070000   0.000000
    35  H    2.357279   1.988207   1.070000   1.747303   0.000000
    36  H    1.458837   2.518152   1.070000   1.747303   1.747303
                   36
    36  H    0.000000
 Stoichiometry    C16H18O2
 Framework group  C1[X(C16H18O2)]
 Deg. of freedom   102
 Full point group                 C1      NOp   1
 Largest Abelian subgroup         C1      NOp   1
 Largest concise Abelian subgroup C1      NOp   1
                         Standard orientation:                         
 ---------------------------------------------------------------------
 Center     Atomic      Atomic             Coordinates (Angstroms)
 Number     Number       Type             X           Y           Z
 ---------------------------------------------------------------------
      1          6           0        1.557476    0.704915   -0.071940
      2          6           0        1.499088   -0.880251   -0.073289
      3          6           0        0.066804   -1.405937   -0.056078
      4          6           0       -0.644562   -1.564102   -1.256824
      5          6           0       -0.577830   -1.687153    1.160079
      6          6           0       -1.982673   -1.978092   -1.241966
      7          1           0       -0.137642   -1.363163   -2.198415
      8          6           0       -1.916423   -2.101097    1.179242
      9          1           0       -0.033207   -1.567259    2.096378
     10          6           0       -2.624238   -2.244347   -0.022968
     11          1           0       -2.524633   -2.093629   -2.179558
     12          1           0       -2.404341   -2.314387    2.129124
     13          1           0       -3.664090   -2.566774   -0.010589
     14          6           0        0.200472    1.373109   -0.016581
     15          6           0       -0.472901    1.739200   -1.194091
     16          6           0       -0.422898    1.580793    1.225450
     17          6           0       -1.757232    2.292801   -1.129934
     18          1           0        0.018801    1.581396   -2.151155
     19          6           0       -1.710841    2.129206    1.290162
     20          1           0        0.098111    1.306284    2.142773
     21          6           0       -2.382173    2.484742    0.111575
     22          1           0       -2.271623    2.572694   -2.047898
     23          1           0       -2.185269    2.284233    2.257702
     24          1           0       -3.381441    2.913838    0.160248
     25          1           0        2.704580    1.931499   -1.108964
     26          1           0        2.253603   -0.579997   -1.808875
     27          8           0        2.201124   -1.366802   -1.219398
     28          8           0        2.312930    1.052786   -1.253434
     29          6           0        2.373654    1.110197    1.169511
     30          1           0        2.304571    2.168428    1.311900
     31          1           0        1.985402    0.608294    2.031053
     32          1           0        3.398074    0.835461    1.028147
     33          6           0        2.221180   -1.355397    1.201238
     34          1           0        2.076406   -2.408710    1.321540
     35          1           0        3.267225   -1.146424    1.117456
     36          1           0        1.821622   -0.841192    2.050264
 ---------------------------------------------------------------------
 Rotational constants (GHZ):           0.5208559           0.4797760           0.3449249
 Leave Link  202 at Fri May 10 15:57:40 2019, MaxMem=   104857600 cpu:               0.6 elap:               0.0
 (Enter /opt/software/gaussian/g16.b01/l301.exe)
 Standard basis: 6-31G(d,p) (6D, 7F)
 Ernie: Thresh=  0.10000D-02 Tol=  0.10000D-05 Strict=F.
 There are   360 symmetry adapted cartesian basis functions of A   symmetry.
 There are   360 symmetry adapted basis functions of A   symmetry.
   360 basis functions,   630 primitive gaussians,   360 cartesian basis functions
    65 alpha electrons       65 beta electrons
       nuclear repulsion energy      1373.9375863235 Hartrees.
 IExCor=  402 DFT=T Ex+Corr=B3LYP ExCW=0 ScaHFX=  0.200000
 ScaDFX=  0.800000  0.720000  1.000000  0.810000 ScalE2=  1.000000  1.000000
 IRadAn=      5 IRanWt=     -1 IRanGd=            0 ICorTp=0 IEmpDi=131
 NAtoms=   36 NActive=   36 NUniq=   36 SFac= 1.00D+00 NAtFMM=   60 NAOKFM=F Big=F
 Integral buffers will be    131072 words long.
 Raffenetti 2 integral format.
 Two-electron integral symmetry is turned on.
 R6Disp:  Grimme-D3 Dispersion energy=       -0.0425408393 Hartrees.
 Nuclear repulsion after empirical dispersion term =     1373.8950454842 Hartrees.
 ------------------------------------------------------------------------------
 Polarizable Continuum Model (PCM)
 =================================
 Model                : PCM.
 Atomic radii         : UFF (Universal Force Field).
 Polarization charges : Total charges.
 Charge compensation  : None.
 Solution method      : On-the-fly selection.
 Cavity type          : Scaled VdW (van der Waals Surface) (Alpha=1.100).
 Cavity algorithm     : GePol (No added spheres)
                        Default sphere list used, NSphG=   36.
                        Lebedev-Laikov grids with approx.  5.0 points / Ang**2.
                        Smoothing algorithm: York/Karplus (Gamma=1.0000).
                        Polarization charges: spherical gaussians, with
                                              point-specific exponents (IZeta= 3).
                        Self-potential: point-specific (ISelfS= 7).
                        Self-field    : sphere-specific E.n sum rule (ISelfD= 2).
 1st derivatives      : Analytical E(r).r(x)/FMM algorithm (CHGder, D1EAlg=3).
                        Cavity 1st derivative terms included.
 Solvent              : Acetonitrile, Eps=  35.688000 Eps(inf)=   1.806874
 ------------------------------------------------------------------------------
 GePol: Number of generator spheres                  =      36
 GePol: Total number of spheres                      =      36
 GePol: Number of exposed spheres                    =      36 (100.00%)
 GePol: Number of points                             =    2388
 GePol: Average weight of points                     =       0.13
 GePol: Minimum weight of points                     =   0.93D-11
 GePol: Maximum weight of points                     =    0.20577
 GePol: Number of points with low weight             =     175
 GePol: Fraction of low-weight points (<1% of avg)   =       7.33%
 GePol: Cavity surface area                          =    308.514 Ang**2
 GePol: Cavity volume                                =    350.086 Ang**3
 Leave Link  301 at Fri May 10 15:57:41 2019, MaxMem=   104857600 cpu:               2.6 elap:               0.1
 (Enter /opt/software/gaussian/g16.b01/l302.exe)
 NPDir=0 NMtPBC=     1 NCelOv=     1 NCel=       1 NClECP=     1 NCelD=      1
         NCelK=      1 NCelE2=     1 NClLst=     1 CellRange=     0.0.
 One-electron integrals computed using PRISM.
 One-electron integral symmetry used in STVInt
 PrsmSu:  requested number of processors reduced to:  28 ShMem   1 Linda.
 NBasis=   360 RedAO= T EigKep=  4.10D-04  NBF=   360
 NBsUse=   360 1.00D-06 EigRej= -1.00D+00 NBFU=   360
 Precomputing XC quadrature grid using
 IXCGrd= 4 IRadAn=           5 IRanWt=          -1 IRanGd=           0 AccXCQ= 0.00D+00.
 Generated NRdTot=       0 NPtTot=           0 NUsed=           0 NTot=          32
 NSgBfM=   359   359   359   359   359 MxSgAt=    36 MxSgA2=    36.
 Leave Link  302 at Fri May 10 15:57:41 2019, MaxMem=   104857600 cpu:              13.1 elap:               0.4
 (Enter /opt/software/gaussian/g16.b01/l303.exe)
 DipDrv:  MaxL=1.
 Leave Link  303 at Fri May 10 15:57:41 2019, MaxMem=   104857600 cpu:               1.5 elap:               0.1
 (Enter /opt/software/gaussian/g16.b01/l401.exe)
 ExpMin= 1.61D-01 ExpMax= 5.48D+03 ExpMxC= 8.25D+02 IAcc=3 IRadAn=         5 AccDes= 0.00D+00
 Harris functional with IExCor=  402 and IRadAn=       5 diagonalized for initial guess.
 HarFok:  IExCor=  402 AccDes= 0.00D+00 IRadAn=         5 IDoV= 1 UseB2=F ITyADJ=14
 ICtDFT=  3500011 ScaDFX=  1.000000  1.000000  1.000000  1.000000
 FoFCou: FMM=F IPFlag=           0 FMFlag=      100000 FMFlg1=           0
         NFxFlg=           0 DoJE=T BraDBF=F KetDBF=T FulRan=T
         wScrn=  0.000000 ICntrl=       500 IOpCl=  0 I1Cent=   200000004 NGrid=           0
         NMat0=    1 NMatS0=      1 NMatT0=    0 NMatD0=    1 NMtDS0=    0 NMtDT0=    0
 Petite list used in FoFCou.
 Harris En= -771.073067377362    
 JPrj=0 DoOrth=F DoCkMO=F.
 Leave Link  401 at Fri May 10 15:57:42 2019, MaxMem=   104857600 cpu:              28.5 elap:               0.9
 (Enter /opt/software/gaussian/g16.b01/l502.exe)
 Integral symmetry usage will be decided dynamically.
 Closed shell SCF:
 Using DIIS extrapolation, IDIIS=  1040.
 NGot=   104857600 LenX=   104582952 LenY=   104452911
 Requested convergence on RMS density matrix=1.00D-08 within 128 cycles.
 Requested convergence on MAX density matrix=1.00D-06.
 Requested convergence on             energy=1.00D-06.
 No special actions if energy rises.
 Fock matrices will be formed incrementally for  20 cycles.

 Cycle   1  Pass 1  IDiag  1:
 FoFJK:  IHMeth= 1 ICntrl=       0 DoSepK=F KAlg= 0 I1Cent=           0 FoldK=F
 IRaf= 850000000 NMat=       1 IRICut=       1 DoRegI=T DoRafI=F ISym2E= 0 IDoP0=0 IntGTp=1.
 FoFCou: FMM=F IPFlag=           0 FMFlag=      100000 FMFlg1=           0
         NFxFlg=           0 DoJE=F BraDBF=F KetDBF=F FulRan=T
         wScrn=  0.000000 ICntrl=         0 IOpCl=  0 I1Cent=           0 NGrid=           0
         NMat0=    1 NMatS0=      1 NMatT0=    0 NMatD0=    1 NMtDS0=    0 NMtDT0=    0
 Symmetry not used in FoFCou.
 Inv3:  Mode=1 IEnd=    17107632.
 Iteration    1 A*A^-1 deviation from unit magnitude is 3.00D-15 for    823.
 Iteration    1 A*A^-1 deviation from orthogonality  is 3.02D-15 for   2111    424.
 Iteration    1 A^-1*A deviation from unit magnitude is 2.89D-15 for     62.
 Iteration    1 A^-1*A deviation from orthogonality  is 4.62D-15 for   1294   1289.
 E= -770.555720859379    
 DIIS: error= 2.68D-02 at cycle   1 NSaved=   1.
 NSaved= 1 IEnMin= 1 EnMin= -770.555720859379     IErMin= 1 ErrMin= 2.68D-02
 ErrMax= 2.68D-02  0.00D+00 EMaxC= 1.00D-01 BMatC= 4.60D-01 BMatP= 4.60D-01
 IDIUse=3 WtCom= 7.32D-01 WtEn= 2.68D-01
 Coeff-Com:  0.100D+01
 Coeff-En:   0.100D+01
 Coeff:      0.100D+01
 Gap=     0.216 Goal=   None    Shift=    0.000
 GapD=    0.216 DampG=1.000 DampE=0.500 DampFc=0.5000 IDamp=-1.
 Damping current iteration by 5.00D-01
 RMSDP=3.89D-03 MaxDP=1.31D-01              OVMax= 1.42D-01

 Cycle   2  Pass 1  IDiag  1:
 RMSU=  1.91D-03    CP:  9.77D-01
 E= -770.773905375491     Delta-E=       -0.218184516112 Rises=F Damp=T
 DIIS: error= 6.10D-03 at cycle   2 NSaved=   2.
 NSaved= 2 IEnMin= 2 EnMin= -770.773905375491     IErMin= 2 ErrMin= 6.10D-03
 ErrMax= 6.10D-03  0.00D+00 EMaxC= 1.00D-01 BMatC= 2.26D-02 BMatP= 4.60D-01
 IDIUse=3 WtCom= 9.39D-01 WtEn= 6.10D-02
 Coeff-Com:  0.274D-01 0.973D+00
 Coeff-En:   0.192D-01 0.981D+00
 Coeff:      0.269D-01 0.973D+00
 Gap=     0.230 Goal=   None    Shift=    0.000
 RMSDP=8.79D-04 MaxDP=3.33D-02 DE=-2.18D-01 OVMax= 7.92D-02

 Cycle   3  Pass 1  IDiag  1:
 RMSU=  8.63D-04    CP:  9.67D-01  9.80D-01
 E= -771.006769840780     Delta-E=       -0.232864465289 Rises=F Damp=F
 DIIS: error= 3.21D-03 at cycle   3 NSaved=   3.
 NSaved= 3 IEnMin= 3 EnMin= -771.006769840780     IErMin= 3 ErrMin= 3.21D-03
 ErrMax= 3.21D-03  0.00D+00 EMaxC= 1.00D-01 BMatC= 9.73D-03 BMatP= 2.26D-02
 IDIUse=3 WtCom= 9.68D-01 WtEn= 3.21D-02
 Coeff-Com: -0.289D-01 0.373D+00 0.656D+00
 Coeff-En:   0.000D+00 0.000D+00 0.100D+01
 Coeff:     -0.280D-01 0.361D+00 0.667D+00
 Gap=     0.217 Goal=   None    Shift=    0.000
 RMSDP=4.31D-04 MaxDP=1.77D-02 DE=-2.33D-01 OVMax= 2.52D-02

 Cycle   4  Pass 1  IDiag  1:
 RMSU=  3.93D-04    CP:  9.68D-01  9.89D-01  7.98D-01
 E= -771.010787543609     Delta-E=       -0.004017702829 Rises=F Damp=F
 DIIS: error= 1.96D-03 at cycle   4 NSaved=   4.
 NSaved= 4 IEnMin= 4 EnMin= -771.010787543609     IErMin= 4 ErrMin= 1.96D-03
 ErrMax= 1.96D-03  0.00D+00 EMaxC= 1.00D-01 BMatC= 4.26D-03 BMatP= 9.73D-03
 IDIUse=3 WtCom= 9.80D-01 WtEn= 1.96D-02
 Coeff-Com: -0.171D-01 0.946D-01 0.417D+00 0.506D+00
 Coeff-En:   0.000D+00 0.000D+00 0.348D+00 0.652D+00
 Coeff:     -0.168D-01 0.927D-01 0.415D+00 0.509D+00
 Gap=     0.214 Goal=   None    Shift=    0.000
 RMSDP=2.41D-04 MaxDP=8.58D-03 DE=-4.02D-03 OVMax= 1.71D-02

 Cycle   5  Pass 1  IDiag  1:
 RMSU=  9.87D-05    CP:  9.67D-01  1.00D+00  8.30D-01  4.50D-01
 E= -771.014493367987     Delta-E=       -0.003705824377 Rises=F Damp=F
 DIIS: error= 8.14D-04 at cycle   5 NSaved=   5.
 NSaved= 5 IEnMin= 5 EnMin= -771.014493367987     IErMin= 5 ErrMin= 8.14D-04
 ErrMax= 8.14D-04  0.00D+00 EMaxC= 1.00D-01 BMatC= 2.07D-04 BMatP= 4.26D-03
 IDIUse=3 WtCom= 9.92D-01 WtEn= 8.14D-03
 Coeff-Com: -0.667D-02 0.240D-01 0.169D+00 0.267D+00 0.547D+00
 Coeff-En:   0.000D+00 0.000D+00 0.000D+00 0.000D+00 0.100D+01
 Coeff:     -0.661D-02 0.238D-01 0.168D+00 0.265D+00 0.550D+00
 Gap=     0.215 Goal=   None    Shift=    0.000
 RMSDP=5.82D-05 MaxDP=2.33D-03 DE=-3.71D-03 OVMax= 6.02D-03

 Cycle   6  Pass 1  IDiag  1:
 RMSU=  3.18D-05    CP:  9.67D-01  1.00D+00  8.41D-01  5.27D-01  6.26D-01
 E= -771.014680826859     Delta-E=       -0.000187458872 Rises=F Damp=F
 DIIS: error= 3.48D-04 at cycle   6 NSaved=   6.
 NSaved= 6 IEnMin= 6 EnMin= -771.014680826859     IErMin= 6 ErrMin= 3.48D-04
 ErrMax= 3.48D-04  0.00D+00 EMaxC= 1.00D-01 BMatC= 3.65D-05 BMatP= 2.07D-04
 IDIUse=3 WtCom= 9.97D-01 WtEn= 3.48D-03
 Coeff-Com: -0.222D-02 0.411D-02 0.577D-01 0.107D+00 0.340D+00 0.494D+00
 Coeff-En:   0.000D+00 0.000D+00 0.000D+00 0.000D+00 0.143D+00 0.857D+00
 Coeff:     -0.221D-02 0.410D-02 0.575D-01 0.106D+00 0.340D+00 0.495D+00
 Gap=     0.214 Goal=   None    Shift=    0.000
 RMSDP=1.74D-05 MaxDP=7.10D-04 DE=-1.87D-04 OVMax= 1.73D-03

 Cycle   7  Pass 1  IDiag  1:
 RMSU=  5.80D-06    CP:  9.67D-01  1.00D+00  8.43D-01  5.18D-01  6.91D-01
                    CP:  5.40D-01
 E= -771.014718033906     Delta-E=       -0.000037207046 Rises=F Damp=F
 DIIS: error= 2.59D-05 at cycle   7 NSaved=   7.
 NSaved= 7 IEnMin= 7 EnMin= -771.014718033906     IErMin= 7 ErrMin= 2.59D-05
 ErrMax= 2.59D-05  0.00D+00 EMaxC= 1.00D-01 BMatC= 4.68D-07 BMatP= 3.65D-05
 IDIUse=1 WtCom= 1.00D+00 WtEn= 0.00D+00
 Coeff-Com: -0.714D-03 0.941D-03 0.188D-01 0.363D-01 0.124D+00 0.210D+00
 Coeff-Com:  0.611D+00
 Coeff:     -0.714D-03 0.941D-03 0.188D-01 0.363D-01 0.124D+00 0.210D+00
 Coeff:      0.611D+00
 Gap=     0.214 Goal=   None    Shift=    0.000
 RMSDP=2.74D-06 MaxDP=8.97D-05 DE=-3.72D-05 OVMax= 1.82D-04

 Cycle   8  Pass 1  IDiag  1:
 RMSU=  1.58D-06    CP:  9.67D-01  1.00D+00  8.43D-01  5.21D-01  6.89D-01
                    CP:  5.62D-01  6.74D-01
 E= -771.014718454687     Delta-E=       -0.000000420782 Rises=F Damp=F
 DIIS: error= 7.31D-06 at cycle   8 NSaved=   8.
 NSaved= 8 IEnMin= 8 EnMin= -771.014718454687     IErMin= 8 ErrMin= 7.31D-06
 ErrMax= 7.31D-06  0.00D+00 EMaxC= 1.00D-01 BMatC= 5.47D-08 BMatP= 4.68D-07
 IDIUse=1 WtCom= 1.00D+00 WtEn= 0.00D+00
 Coeff-Com: -0.730D-04-0.883D-04 0.214D-02 0.483D-02 0.193D-01 0.430D-01
 Coeff-Com:  0.288D+00 0.642D+00
 Coeff:     -0.730D-04-0.883D-04 0.214D-02 0.483D-02 0.193D-01 0.430D-01
 Coeff:      0.288D+00 0.642D+00
 Gap=     0.214 Goal=   None    Shift=    0.000
 RMSDP=7.06D-07 MaxDP=2.45D-05 DE=-4.21D-07 OVMax= 5.57D-05

 Cycle   9  Pass 1  IDiag  1:
 RMSU=  4.12D-07    CP:  9.67D-01  1.00D+00  8.43D-01  5.21D-01  6.90D-01
                    CP:  5.64D-01  7.20D-01  6.92D-01
 E= -771.014718505186     Delta-E=       -0.000000050499 Rises=F Damp=F
 DIIS: error= 2.58D-06 at cycle   9 NSaved=   9.
 NSaved= 9 IEnMin= 9 EnMin= -771.014718505186     IErMin= 9 ErrMin= 2.58D-06
 ErrMax= 2.58D-06  0.00D+00 EMaxC= 1.00D-01 BMatC= 2.83D-09 BMatP= 5.47D-08
 IDIUse=1 WtCom= 1.00D+00 WtEn= 0.00D+00
 Coeff-Com:  0.108D-05-0.824D-04 0.275D-04 0.341D-03 0.246D-02 0.836D-02
 Coeff-Com:  0.940D-01 0.276D+00 0.618D+00
 Coeff:      0.108D-05-0.824D-04 0.275D-04 0.341D-03 0.246D-02 0.836D-02
 Coeff:      0.940D-01 0.276D+00 0.618D+00
 Gap=     0.214 Goal=   None    Shift=    0.000
 RMSDP=2.17D-07 MaxDP=8.93D-06 DE=-5.05D-08 OVMax= 2.00D-05

 Cycle  10  Pass 1  IDiag  1:
 RMSU=  1.45D-07    CP:  9.67D-01  1.00D+00  8.43D-01  5.21D-01  6.90D-01
                    CP:  5.64D-01  7.27D-01  7.29D-01  6.58D-01
 E= -771.014718507442     Delta-E=       -0.000000002256 Rises=F Damp=F
 DIIS: error= 9.33D-07 at cycle  10 NSaved=  10.
 NSaved=10 IEnMin=10 EnMin= -771.014718507442     IErMin=10 ErrMin= 9.33D-07
 ErrMax= 9.33D-07  0.00D+00 EMaxC= 1.00D-01 BMatC= 6.57D-10 BMatP= 2.83D-09
 IDIUse=1 WtCom= 1.00D+00 WtEn= 0.00D+00
 Coeff-Com:  0.813D-05-0.329D-04-0.229D-03-0.370D-03-0.826D-03-0.275D-03
 Coeff-Com:  0.198D-01 0.824D-01 0.357D+00 0.542D+00
 Coeff:      0.813D-05-0.329D-04-0.229D-03-0.370D-03-0.826D-03-0.275D-03
 Coeff:      0.198D-01 0.824D-01 0.357D+00 0.542D+00
 Gap=     0.214 Goal=   None    Shift=    0.000
 RMSDP=8.25D-08 MaxDP=3.07D-06 DE=-2.26D-09 OVMax= 8.16D-06

 Cycle  11  Pass 1  IDiag  1:
 RMSU=  3.86D-08    CP:  9.67D-01  1.00D+00  8.43D-01  5.21D-01  6.90D-01
                    CP:  5.64D-01  7.28D-01  7.31D-01  7.38D-01  5.60D-01
 E= -771.014718508127     Delta-E=       -0.000000000684 Rises=F Damp=F
 DIIS: error= 1.84D-07 at cycle  11 NSaved=  11.
 NSaved=11 IEnMin=11 EnMin= -771.014718508127     IErMin=11 ErrMin= 1.84D-07
 ErrMax= 1.84D-07  0.00D+00 EMaxC= 1.00D-01 BMatC= 2.32D-11 BMatP= 6.57D-10
 IDIUse=1 WtCom= 1.00D+00 WtEn= 0.00D+00
 Coeff-Com:  0.334D-05-0.964D-05-0.105D-03-0.188D-03-0.495D-03-0.566D-03
 Coeff-Com:  0.389D-02 0.223D-01 0.127D+00 0.249D+00 0.599D+00
 Coeff:      0.334D-05-0.964D-05-0.105D-03-0.188D-03-0.495D-03-0.566D-03
 Coeff:      0.389D-02 0.223D-01 0.127D+00 0.249D+00 0.599D+00
 Gap=     0.214 Goal=   None    Shift=    0.000
 RMSDP=1.83D-08 MaxDP=1.04D-06 DE=-6.84D-10 OVMax= 1.69D-06

 Cycle  12  Pass 1  IDiag  1:
 RMSU=  1.20D-08    CP:  9.67D-01  1.00D+00  8.43D-01  5.21D-01  6.90D-01
                    CP:  5.64D-01  7.27D-01  7.32D-01  7.38D-01  6.15D-01
                    CP:  7.16D-01
 E= -771.014718508134     Delta-E=       -0.000000000007 Rises=F Damp=F
 DIIS: error= 8.84D-08 at cycle  12 NSaved=  12.
 NSaved=12 IEnMin=12 EnMin= -771.014718508134     IErMin=12 ErrMin= 8.84D-08
 ErrMax= 8.84D-08  0.00D+00 EMaxC= 1.00D-01 BMatC= 3.89D-12 BMatP= 2.32D-11
 IDIUse=1 WtCom= 1.00D+00 WtEn= 0.00D+00
 Coeff-Com:  0.946D-06-0.167D-05-0.346D-04-0.671D-04-0.192D-03-0.306D-03
 Coeff-Com: -0.254D-03 0.290D-02 0.305D-01 0.796D-01 0.340D+00 0.548D+00
 Coeff:      0.946D-06-0.167D-05-0.346D-04-0.671D-04-0.192D-03-0.306D-03
 Coeff:     -0.254D-03 0.290D-02 0.305D-01 0.796D-01 0.340D+00 0.548D+00
 Gap=     0.214 Goal=   None    Shift=    0.000
 RMSDP=6.16D-09 MaxDP=2.88D-07 DE=-7.28D-12 OVMax= 4.55D-07

 Error on total polarization charges =  0.00965
 SCF Done:  E(RB3LYP) =  -771.014718508     A.U. after   12 cycles
            NFock= 12  Conv=0.62D-08     -V/T= 2.0092
 KE= 7.639699119971D+02 PE=-4.540103505750D+03 EE= 1.631223829761D+03
 Leave Link  502 at Fri May 10 15:58:07 2019, MaxMem=   104857600 cpu:             764.7 elap:              24.7
 (Enter /opt/software/gaussian/g16.b01/l601.exe)
 Copying SCF densities to generalized density rwf, IOpCl= 0 IROHF=0.

 **********************************************************************

            Population analysis using the SCF Density.

 **********************************************************************

 Orbital symmetries:
       Occupied  (A) (A) (A) (A) (A) (A) (A) (A) (A) (A) (A) (A)
                 (A) (A) (A) (A) (A) (A) (A) (A) (A) (A) (A) (A)
                 (A) (A) (A) (A) (A) (A) (A) (A) (A) (A) (A) (A)
                 (A) (A) (A) (A) (A) (A) (A) (A) (A) (A) (A) (A)
                 (A) (A) (A) (A) (A) (A) (A) (A) (A) (A) (A) (A)
                 (A) (A) (A) (A) (A)
       Virtual   (A) (A) (A) (A) (A) (A) (A) (A) (A) (A) (A) (A)
                 (A) (A) (A) (A) (A) (A) (A) (A) (A) (A) (A) (A)
                 (A) (A) (A) (A) (A) (A) (A) (A) (A) (A) (A) (A)
                 (A) (A) (A) (A) (A) (A) (A) (A) (A) (A) (A) (A)
                 (A) (A) (A) (A) (A) (A) (A) (A) (A) (A) (A) (A)
                 (A) (A) (A) (A) (A) (A) (A) (A) (A) (A) (A) (A)
                 (A) (A) (A) (A) (A) (A) (A) (A) (A) (A) (A) (A)
                 (A) (A) (A) (A) (A) (A) (A) (A) (A) (A) (A) (A)
                 (A) (A) (A) (A) (A) (A) (A) (A) (A) (A) (A) (A)
                 (A) (A) (A) (A) (A) (A) (A) (A) (A) (A) (A) (A)
                 (A) (A) (A) (A) (A) (A) (A) (A) (A) (A) (A) (A)
                 (A) (A) (A) (A) (A) (A) (A) (A) (A) (A) (A) (A)
                 (A) (A) (A) (A) (A) (A) (A) (A) (A) (A) (A) (A)
                 (A) (A) (A) (A) (A) (A) (A) (A) (A) (A) (A) (A)
                 (A) (A) (A) (A) (A) (A) (A) (A) (A) (A) (A) (A)
                 (A) (A) (A) (A) (A) (A) (A) (A) (A) (A) (A) (A)
                 (A) (A) (A) (A) (A) (A) (A) (A) (A) (A) (A) (A)
                 (A) (A) (A) (A) (A) (A) (A) (A) (A) (A) (A) (A)
                 (A) (A) (A) (A) (A) (A) (A) (A) (A) (A) (A) (A)
                 (A) (A) (A) (A) (A) (A) (A) (A) (A) (A) (A) (A)
                 (A) (A) (A) (A) (A) (A) (A) (A) (A) (A) (A) (A)
                 (A) (A) (A) (A) (A) (A) (A) (A) (A) (A) (A) (A)
                 (A) (A) (A) (A) (A) (A) (A) (A) (A) (A) (A) (A)
                 (A) (A) (A) (A) (A) (A) (A) (A) (A) (A) (A) (A)
                 (A) (A) (A) (A) (A) (A) (A)
 The electronic state is 1-A.
 Alpha  occ. eigenvalues --  -19.16719 -19.13454 -10.25446 -10.24639 -10.19470
 Alpha  occ. eigenvalues --  -10.19161 -10.19110 -10.19035 -10.19017 -10.18923
 Alpha  occ. eigenvalues --  -10.18903 -10.18885 -10.18815 -10.18803 -10.18622
 Alpha  occ. eigenvalues --  -10.18502 -10.16815 -10.16322  -1.04772  -1.00071
 Alpha  occ. eigenvalues --   -0.85796  -0.84594  -0.80756  -0.75714  -0.74460
 Alpha  occ. eigenvalues --   -0.73851  -0.73651  -0.70059  -0.66480  -0.61240
 Alpha  occ. eigenvalues --   -0.60363  -0.59517  -0.58984  -0.55832  -0.52895
 Alpha  occ. eigenvalues --   -0.52206  -0.50300  -0.49117  -0.46459  -0.45503
 Alpha  occ. eigenvalues --   -0.45033  -0.44419  -0.43931  -0.43182  -0.42204
 Alpha  occ. eigenvalues --   -0.41773  -0.41288  -0.40205  -0.38709  -0.37520
 Alpha  occ. eigenvalues --   -0.37163  -0.36164  -0.35626  -0.34807  -0.34651
 Alpha  occ. eigenvalues --   -0.33834  -0.33451  -0.32784  -0.32355  -0.29405
 Alpha  occ. eigenvalues --   -0.26296  -0.25953  -0.24858  -0.23846  -0.23016
 Alpha virt. eigenvalues --   -0.01572  -0.01224   0.00474   0.01250   0.05936
 Alpha virt. eigenvalues --    0.08745   0.10718   0.11061   0.11598   0.13692
 Alpha virt. eigenvalues --    0.14454   0.15053   0.15369   0.15542   0.15893
 Alpha virt. eigenvalues --    0.17104   0.17318   0.18473   0.18882   0.19101
 Alpha virt. eigenvalues --    0.19642   0.19932   0.21818   0.22333   0.22855
 Alpha virt. eigenvalues --    0.24783   0.26382   0.27106   0.28105   0.29919
 Alpha virt. eigenvalues --    0.29977   0.30360   0.30930   0.32530   0.33938
 Alpha virt. eigenvalues --    0.34517   0.36112   0.37810   0.40079   0.44924
 Alpha virt. eigenvalues --    0.45220   0.48855   0.50208   0.52488   0.52888
 Alpha virt. eigenvalues --    0.53255   0.53632   0.54284   0.55673   0.56150
 Alpha virt. eigenvalues --    0.56583   0.57070   0.58266   0.58657   0.59853
 Alpha virt. eigenvalues --    0.60092   0.60365   0.60868   0.61031   0.61306
 Alpha virt. eigenvalues --    0.61526   0.61942   0.62172   0.62968   0.63897
 Alpha virt. eigenvalues --    0.66267   0.66893   0.68394   0.69575   0.70630
 Alpha virt. eigenvalues --    0.72025   0.73033   0.76307   0.76584   0.77183
 Alpha virt. eigenvalues --    0.79405   0.80140   0.80442   0.81057   0.81986
 Alpha virt. eigenvalues --    0.82380   0.82567   0.82684   0.83202   0.84189
 Alpha virt. eigenvalues --    0.84290   0.84826   0.86893   0.87841   0.88995
 Alpha virt. eigenvalues --    0.89914   0.90075   0.91611   0.92037   0.93804
 Alpha virt. eigenvalues --    0.94176   0.95262   0.96784   0.97402   0.98001
 Alpha virt. eigenvalues --    1.00725   1.01551   1.02505   1.04815   1.05429
 Alpha virt. eigenvalues --    1.07287   1.07985   1.08734   1.09740   1.10209
 Alpha virt. eigenvalues --    1.11001   1.12428   1.13685   1.15594   1.17466
 Alpha virt. eigenvalues --    1.18554   1.20403   1.20581   1.22207   1.26844
 Alpha virt. eigenvalues --    1.27212   1.30768   1.31674   1.33666   1.34879
 Alpha virt. eigenvalues --    1.36418   1.37112   1.39580   1.40735   1.41286
 Alpha virt. eigenvalues --    1.41512   1.42265   1.42459   1.43780   1.44622
 Alpha virt. eigenvalues --    1.45443   1.46471   1.50329   1.52479   1.54236
 Alpha virt. eigenvalues --    1.61735   1.63867   1.64641   1.65205   1.68958
 Alpha virt. eigenvalues --    1.71279   1.72555   1.74573   1.76987   1.77953
 Alpha virt. eigenvalues --    1.80065   1.80628   1.81045   1.83039   1.84095
 Alpha virt. eigenvalues --    1.85709   1.85906   1.87934   1.89433   1.90157
 Alpha virt. eigenvalues --    1.91841   1.92642   1.92910   1.93898   1.94230
 Alpha virt. eigenvalues --    1.94972   1.95994   1.97479   1.97771   1.98613
 Alpha virt. eigenvalues --    1.99143   2.00348   2.00987   2.01586   2.02322
 Alpha virt. eigenvalues --    2.05511   2.07782   2.08618   2.09639   2.09986
 Alpha virt. eigenvalues --    2.12241   2.13602   2.13861   2.15665   2.18437
 Alpha virt. eigenvalues --    2.18823   2.19959   2.21612   2.22323   2.24812
 Alpha virt. eigenvalues --    2.28119   2.28561   2.30341   2.31213   2.32527
 Alpha virt. eigenvalues --    2.34428   2.34958   2.35864   2.36692   2.37866
 Alpha virt. eigenvalues --    2.38402   2.38717   2.39995   2.41068   2.41749
 Alpha virt. eigenvalues --    2.41845   2.43159   2.44197   2.45588   2.45873
 Alpha virt. eigenvalues --    2.46394   2.47727   2.48378   2.49655   2.50866
 Alpha virt. eigenvalues --    2.52140   2.52817   2.53471   2.54828   2.55762
 Alpha virt. eigenvalues --    2.57840   2.59228   2.59582   2.60134   2.60916
 Alpha virt. eigenvalues --    2.62980   2.63388   2.64625   2.65034   2.67528
 Alpha virt. eigenvalues --    2.68931   2.70840   2.72423   2.73913   2.75697
 Alpha virt. eigenvalues --    2.76105   2.78038   2.78803   2.81294   2.81715
 Alpha virt. eigenvalues --    2.83706   2.85066   2.86761   2.88716   2.90113
 Alpha virt. eigenvalues --    2.94961   2.96143   3.00428   3.02861   3.04228
 Alpha virt. eigenvalues --    3.04710   3.05030   3.07367   3.15110   3.16401
 Alpha virt. eigenvalues --    3.18229   3.23413   3.24079   3.24406   3.26136
 Alpha virt. eigenvalues --    3.28296   3.31056   3.32774   3.35072   3.36602
 Alpha virt. eigenvalues --    3.40862   3.41943   3.42688   3.47994   3.49167
 Alpha virt. eigenvalues --    3.49953   3.52191   3.55746   3.56862   3.60680
 Alpha virt. eigenvalues --    3.87303   3.89147   3.98915   4.11249   4.12971
 Alpha virt. eigenvalues --    4.14516   4.15029   4.23299   4.30734   4.33377
 Alpha virt. eigenvalues --    4.41199   4.45401   4.47583   4.52898   4.59579
 Alpha virt. eigenvalues --    4.64202   4.71815   4.83026   4.91602   5.03537
          Condensed to atoms (all electrons):
               1          2          3          4          5          6
     1  C    5.005328   0.292273  -0.063862  -0.005856  -0.002612   0.000065
     2  C    0.292273   4.942033   0.327482  -0.034813  -0.049500   0.005680
     3  C   -0.063862   0.327482   4.893554   0.506114   0.527982  -0.023893
     4  C   -0.005856  -0.034813   0.506114   4.949348  -0.058361   0.500295
     5  C   -0.002612  -0.049500   0.527982  -0.058361   4.937539  -0.040906
     6  C    0.000065   0.005680  -0.023893   0.500295  -0.040906   4.868793
     7  H    0.001429  -0.010119  -0.050079   0.365372   0.005894  -0.040276
     8  C   -0.000157   0.005781  -0.023182  -0.042119   0.513553  -0.032528
     9  H    0.000932  -0.014273  -0.044333   0.005828   0.369491   0.000336
    10  C    0.000034   0.000248  -0.034469  -0.040454  -0.041395   0.538194
    11  H    0.000000  -0.000163   0.003558  -0.037131   0.000798   0.368944
    12  H    0.000002  -0.000155   0.003636   0.000811  -0.035807   0.004332
    13  H    0.000000   0.000008   0.000658   0.004392   0.004611  -0.040823
    14  C    0.336447  -0.067364  -0.000788   0.000327  -0.001119  -0.000392
    15  C   -0.044071  -0.004776   0.000731  -0.000913   0.000718   0.000242
    16  C   -0.047764  -0.003329  -0.001652   0.000695  -0.001991  -0.000129
    17  C    0.005611  -0.000000  -0.000335   0.000258  -0.000067  -0.000109
    18  H   -0.013828   0.000776  -0.000141   0.000324  -0.000019   0.000052
    19  C    0.005523  -0.000142  -0.000222  -0.000077   0.000220   0.000085
    20  H   -0.012694   0.001184  -0.000550  -0.000021   0.000776  -0.000002
    21  C    0.000314   0.000029   0.000081   0.000013   0.000020   0.000049
    22  H   -0.000172   0.000001  -0.000000  -0.000012   0.000000   0.000004
    23  H   -0.000155   0.000002   0.000003  -0.000001  -0.000018   0.000000
    24  H    0.000008   0.000000   0.000000  -0.000001  -0.000001  -0.000000
    25  H   -0.025137   0.006955  -0.000123  -0.000023  -0.000001  -0.000000
    26  H   -0.020734  -0.035846  -0.000250   0.001232  -0.000205   0.000026
    27  O   -0.022839   0.211291  -0.062632   0.001766   0.002431   0.000729
    28  O    0.169781  -0.035938   0.000091   0.000545  -0.000055   0.000002
    29  C    0.370912  -0.056073   0.002157  -0.000152   0.000825   0.000007
    30  H   -0.030886   0.006521  -0.000147  -0.000000  -0.000006  -0.000000
    31  H   -0.016950  -0.014091   0.001097   0.000020  -0.000480   0.000000
    32  H   -0.023011  -0.008448   0.000210   0.000002  -0.000030  -0.000000
    33  C   -0.057428   0.370139  -0.075750   0.007306  -0.011651  -0.000184
    34  H    0.007069  -0.029275  -0.005171   0.000293   0.001037  -0.000019
    35  H   -0.009365  -0.016477   0.006189  -0.000183   0.000578   0.000002
    36  H   -0.009788  -0.016111  -0.005258  -0.000577   0.000571   0.000003
               7          8          9         10         11         12
     1  C    0.001429  -0.000157   0.000932   0.000034   0.000000   0.000002
     2  C   -0.010119   0.005781  -0.014273   0.000248  -0.000163  -0.000155
     3  C   -0.050079  -0.023182  -0.044333  -0.034469   0.003558   0.003636
     4  C    0.365372  -0.042119   0.005828  -0.040454  -0.037131   0.000811
     5  C    0.005894   0.513553   0.369491  -0.041395   0.000798  -0.035807
     6  C   -0.040276  -0.032528   0.000336   0.538194   0.368944   0.004332
     7  H    0.623792   0.000239  -0.000162   0.004621  -0.005313   0.000017
     8  C    0.000239   4.860127  -0.039908   0.542853   0.004421   0.367995
     9  H   -0.000162  -0.039908   0.624053   0.004600   0.000015  -0.005534
    10  C    0.004621   0.542853   0.004600   4.839048  -0.041362  -0.041428
    11  H   -0.005313   0.004421   0.000015  -0.041362   0.614604  -0.000176
    12  H    0.000017   0.367995  -0.005534  -0.041428  -0.000176   0.613903
    13  H   -0.000165  -0.040403  -0.000170   0.371447  -0.005614  -0.005604
    14  C   -0.000326  -0.000207  -0.000298   0.000070   0.000004  -0.000002
    15  C    0.000440  -0.000054  -0.000029   0.000010  -0.000015  -0.000001
    16  C   -0.000001   0.000311   0.000119   0.000020   0.000000  -0.000008
    17  C    0.000055   0.000051   0.000000   0.000009   0.000008   0.000000
    18  H    0.000442   0.000000  -0.000001  -0.000000  -0.000005  -0.000000
    19  C   -0.000001  -0.000076   0.000039   0.000047  -0.000000   0.000007
    20  H   -0.000001   0.000059   0.000691   0.000002   0.000000  -0.000006
    21  C    0.000000   0.000007   0.000001  -0.000076   0.000001   0.000001
    22  H   -0.000005   0.000000   0.000000   0.000001   0.000000  -0.000000
    23  H   -0.000000   0.000010  -0.000006   0.000002  -0.000000   0.000001
    24  H   -0.000000   0.000000  -0.000000  -0.000000  -0.000000  -0.000000
    25  H    0.000007  -0.000000   0.000001   0.000000   0.000000   0.000000
    26  H    0.000481   0.000005  -0.000006   0.000001  -0.000001  -0.000000
    27  O    0.013124  -0.000061   0.000048  -0.000006  -0.000000   0.000000
    28  O   -0.000099   0.000001  -0.000003  -0.000000  -0.000000  -0.000000
    29  C   -0.000023  -0.000009  -0.000543  -0.000001  -0.000000  -0.000000
    30  H    0.000001  -0.000000   0.000012   0.000000   0.000000   0.000000
    31  H   -0.000002  -0.000003  -0.000646  -0.000000  -0.000000  -0.000000
    32  H   -0.000000   0.000000   0.000012   0.000000  -0.000000   0.000000
    33  C    0.000470   0.000153   0.004675  -0.000007   0.000002   0.000017
    34  H    0.000005  -0.000143   0.000125  -0.000012   0.000000   0.000003
    35  H   -0.000016  -0.000010   0.000069   0.000001  -0.000000  -0.000000
    36  H   -0.000020   0.000444  -0.000935  -0.000007   0.000000  -0.000003
              13         14         15         16         17         18
     1  C    0.000000   0.336447  -0.044071  -0.047764   0.005611  -0.013828
     2  C    0.000008  -0.067364  -0.004776  -0.003329  -0.000000   0.000776
     3  C    0.000658  -0.000788   0.000731  -0.001652  -0.000335  -0.000141
     4  C    0.004392   0.000327  -0.000913   0.000695   0.000258   0.000324
     5  C    0.004611  -0.001119   0.000718  -0.001991  -0.000067  -0.000019
     6  C   -0.040823  -0.000392   0.000242  -0.000129  -0.000109   0.000052
     7  H   -0.000165  -0.000326   0.000440  -0.000001   0.000055   0.000442
     8  C   -0.040403  -0.000207  -0.000054   0.000311   0.000051   0.000000
     9  H   -0.000170  -0.000298  -0.000029   0.000119   0.000000  -0.000001
    10  C    0.371447   0.000070   0.000010   0.000020   0.000009  -0.000000
    11  H   -0.005614   0.000004  -0.000015   0.000000   0.000008  -0.000005
    12  H   -0.005604  -0.000002  -0.000001  -0.000008   0.000000  -0.000000
    13  H    0.614751   0.000000  -0.000001  -0.000001   0.000000  -0.000000
    14  C    0.000000   4.865850   0.512164   0.512107  -0.022100  -0.045067
    15  C   -0.000001   0.512164   4.955619  -0.061555   0.501150   0.368246
    16  C   -0.000001   0.512107  -0.061555   4.950668  -0.040934   0.006040
    17  C    0.000000  -0.022100   0.501150  -0.040934   4.864509  -0.041136
    18  H   -0.000000  -0.045067   0.368246   0.006040  -0.041136   0.612600
    19  C   -0.000000  -0.019499  -0.041203   0.514200  -0.031931   0.000166
    20  H   -0.000000  -0.046880   0.005647   0.370494   0.000339  -0.000151
    21  C   -0.000000  -0.035157  -0.039878  -0.042012   0.538288   0.004632
    22  H   -0.000000   0.003638  -0.036978   0.000831   0.369335  -0.005194
    23  H   -0.000000   0.003483   0.000785  -0.035814   0.004354   0.000015
    24  H   -0.000000   0.000634   0.004397   0.004668  -0.040761  -0.000158
    25  H   -0.000000   0.000307   0.000095   0.000156  -0.000036  -0.000350
    26  H    0.000000   0.000838   0.000415  -0.000032   0.000011   0.000296
    27  O    0.000000  -0.000195   0.000444  -0.000062   0.000001  -0.000103
    28  O   -0.000000  -0.044932  -0.005781   0.003441   0.000512   0.013810
    29  C   -0.000000  -0.062618   0.007478  -0.013558  -0.000200   0.000470
    30  H   -0.000000  -0.005644   0.000236   0.001446  -0.000024  -0.000008
    31  H    0.000000  -0.006327  -0.000698   0.001351   0.000006  -0.000028
    32  H    0.000000   0.006578  -0.000131   0.000432   0.000002  -0.000012
    33  C   -0.000000   0.001453  -0.000237   0.001208   0.000007  -0.000016
    34  H    0.000000  -0.000139  -0.000001  -0.000012  -0.000000   0.000000
    35  H   -0.000000   0.000254   0.000007  -0.000062  -0.000000   0.000000
    36  H    0.000000   0.000707   0.000037  -0.000134  -0.000000   0.000000
              19         20         21         22         23         24
     1  C    0.005523  -0.012694   0.000314  -0.000172  -0.000155   0.000008
     2  C   -0.000142   0.001184   0.000029   0.000001   0.000002   0.000000
     3  C   -0.000222  -0.000550   0.000081  -0.000000   0.000003   0.000000
     4  C   -0.000077  -0.000021   0.000013  -0.000012  -0.000001  -0.000001
     5  C    0.000220   0.000776   0.000020   0.000000  -0.000018  -0.000001
     6  C    0.000085  -0.000002   0.000049   0.000004   0.000000  -0.000000
     7  H   -0.000001  -0.000001   0.000000  -0.000005  -0.000000  -0.000000
     8  C   -0.000076   0.000059   0.000007   0.000000   0.000010   0.000000
     9  H    0.000039   0.000691   0.000001   0.000000  -0.000006  -0.000000
    10  C    0.000047   0.000002  -0.000076   0.000001   0.000002  -0.000000
    11  H   -0.000000   0.000000   0.000001   0.000000  -0.000000  -0.000000
    12  H    0.000007  -0.000006   0.000001  -0.000000   0.000001  -0.000000
    13  H   -0.000000  -0.000000  -0.000000  -0.000000  -0.000000  -0.000000
    14  C   -0.019499  -0.046880  -0.035157   0.003638   0.003483   0.000634
    15  C   -0.041203   0.005647  -0.039878  -0.036978   0.000785   0.004397
    16  C    0.514200   0.370494  -0.042012   0.000831  -0.035814   0.004668
    17  C   -0.031931   0.000339   0.538288   0.369335   0.004354  -0.040761
    18  H    0.000166  -0.000151   0.004632  -0.005194   0.000015  -0.000158
    19  C    4.851287  -0.037966   0.541918   0.004375   0.368871  -0.040229
    20  H   -0.037966   0.622097   0.004572   0.000015  -0.005459  -0.000170
    21  C    0.541918   0.004572   4.837150  -0.041107  -0.040661   0.372102
    22  H    0.004375   0.000015  -0.041107   0.611073  -0.000173  -0.005618
    23  H    0.368871  -0.005459  -0.040661  -0.000173   0.608974  -0.005574
    24  H   -0.040229  -0.000170   0.372102  -0.005618  -0.005574   0.611148
    25  H   -0.000001  -0.000003  -0.000003   0.000000  -0.000000  -0.000000
    26  H    0.000001  -0.000001   0.000000  -0.000000  -0.000000  -0.000000
    27  O    0.000001  -0.000004  -0.000000  -0.000000  -0.000000  -0.000000
    28  O   -0.000055   0.000024  -0.000006   0.000001   0.000000   0.000000
    29  C    0.000240   0.004252   0.000006   0.000002   0.000008  -0.000000
    30  H   -0.000209  -0.000110  -0.000015   0.000000   0.000003   0.000000
    31  H    0.000414  -0.001825  -0.000007   0.000000  -0.000002   0.000000
    32  H   -0.000009   0.000042   0.000000  -0.000000  -0.000000  -0.000000
    33  C   -0.000002  -0.000983  -0.000001  -0.000000  -0.000000   0.000000
    34  H    0.000000   0.000018   0.000000   0.000000   0.000000   0.000000
    35  H   -0.000000   0.000002   0.000000  -0.000000   0.000000   0.000000
    36  H   -0.000016  -0.000282  -0.000000  -0.000000  -0.000000  -0.000000
              25         26         27         28         29         30
     1  C   -0.025137  -0.020734  -0.022839   0.169781   0.370912  -0.030886
     2  C    0.006955  -0.035846   0.211291  -0.035938  -0.056073   0.006521
     3  C   -0.000123  -0.000250  -0.062632   0.000091   0.002157  -0.000147
     4  C   -0.000023   0.001232   0.001766   0.000545  -0.000152  -0.000000
     5  C   -0.000001  -0.000205   0.002431  -0.000055   0.000825  -0.000006
     6  C   -0.000000   0.000026   0.000729   0.000002   0.000007  -0.000000
     7  H    0.000007   0.000481   0.013124  -0.000099  -0.000023   0.000001
     8  C   -0.000000   0.000005  -0.000061   0.000001  -0.000009  -0.000000
     9  H    0.000001  -0.000006   0.000048  -0.000003  -0.000543   0.000012
    10  C    0.000000   0.000001  -0.000006  -0.000000  -0.000001   0.000000
    11  H    0.000000  -0.000001  -0.000000  -0.000000  -0.000000   0.000000
    12  H    0.000000  -0.000000   0.000000  -0.000000  -0.000000   0.000000
[...]
 .00006191,-0.00019869,0.00019111,0.00133260,-0.00017959,0.00011101,-0.
 00024579,-0.00000497,0.00002083,0.00012613,0.00287775,0.00251720,-0.00
 203094,0.12353024,-0.05019692,-0.21535286,0.01294022,-0.00496395,-0.01
 673565,-0.13460111,0.05812195,0.23254947,0.01079604,-0.01074159,0.0056
 4753,0.00037675,-0.00037723,-0.00069310,-0.00002012,0.00024031,0.00027
 910,0.00001883,0.00003641,-0.00002931,0.00012416,0.00008904,-0.0000896
 0,-0.00001481,-0.00001078,-0.00000176,-0.00008199,-0.00005407,0.000048
 44,-0.00002783,0.00003752,-0.00000861,-0.00001013,0.00000433,0.0000097
 7,0.00000621,0.00002683,-0.00000312,0.00001242,0.00000523,-0.00001217,
 0.00000726,0.00002399,-0.00000155,0.00000375,0.00000964,-0.00000276,-0
 .00169760,-0.00166951,0.00110477,0.00058991,-0.00048177,0.00032138,0.0
 0010470,0.00006562,0.00014228,0.00003928,0.00017029,0.00018124,-0.0000
 3580,-0.00006937,-0.00005981,0.00014057,0.00009294,-0.00003968,0.00004
 535,-0.00011844,-0.00030077,0.00001781,-0.00005447,-0.00003391,0.00002
 282,-0.00004328,0.00002042,0.00000292,0.00000358,-0.00000047,-0.000011
 88,-0.00001294,-0.00002814,-0.00013810,0.00019370,0.00008196,-0.001477
 10,-0.00069491,0.00075685,-0.00252913,-0.00141653,-0.00029048,0.001234
 28,-0.00003795,-0.00146462,-0.17841990,0.12811300,-0.05542407,-0.01133
 334,0.01143347,-0.00318770,-0.01114008,0.01015456,-0.00618987,0.193490
 32,0.01924819,-0.01976270,0.00680604,0.00221880,-0.00197241,0.00073712
 ,-0.00016525,0.00020349,-0.00006690,0.00010126,0.00006475,-0.00007635,
 0.00011613,0.00006590,-0.00009440,-0.00004803,-0.00001830,0.00001412,-
 0.00011595,-0.00002977,0.00007930,-0.00000815,0.00006578,-0.00000759,-
 0.00000939,0.00003790,0.00002790,-0.00000650,0.00004168,-0.00000149,0.
 00000996,0.00000430,-0.00001094,0.00000508,0.00002027,-0.00000305,0.00
 000005,0.00001226,0.00000170,-0.00373838,-0.00296045,0.00244801,0.0010
 1302,-0.00091648,-0.00037407,-0.00005544,0.00000968,0.00042171,0.00016
 647,0.00005051,0.00042663,-0.00011763,-0.00002819,0.00000850,-0.000104
 87,0.00009896,-0.00002546,-0.00010376,0.00024183,0.00001209,0.00001052
 ,-0.00017934,0.00014429,0.00010388,-0.00009535,0.00010022,0.00006669,-
 0.00005022,-0.00002320,0.00003476,-0.00003231,0.00002035,-0.00008069,-
 0.00004146,0.00021740,-0.00128960,-0.00043797,0.00085120,0.00032230,0.
 00252784,-0.00043698,-0.00000316,0.00245288,-0.00192234,0.12382447,-0.
 16649944,0.05214981,-0.01032588,0.01065780,-0.00362944,0.00413115,-0.0
 0472471,0.00206477,-0.13500834,0.18106736,-0.00784282,0.00925841,-0.00
 496349,-0.00049598,-0.00020250,-0.00007411,-0.00001277,0.00000320,0.00
 001647,-0.00004339,0.00000856,-0.00000673,0.00001140,0.00000906,-0.000
 00561,0.00001859,0.00000791,0.00000048,0.00002520,-0.00000111,-0.00001
 544,-0.00000877,-0.00000751,0.00001223,0.00000155,-0.00001295,-0.00000
 860,0.00000837,-0.00000204,-0.00000326,0.00000297,0.00000253,-0.000001
 78,0.00000101,0.00000397,0.00000050,0.00000113,-0.00000019,-0.00000305
 ,0.00216562,0.00175825,-0.00037577,-0.00036911,0.00033713,0.00016318,0
 .00026319,-0.00032430,-0.00035341,-0.00013369,-0.00015259,-0.00012461,
 0.00005297,0.00006659,0.00002895,-0.00020931,-0.00014876,0.00008261,-0
 .00016898,0.00021216,0.00039539,0.00000533,0.00007517,-0.00000348,-0.0
 0003200,0.00004014,-0.00003049,-0.00002560,-0.00000022,-0.00000394,0.0
 0001353,0.00002648,0.00003998,-0.00032491,0.00022670,-0.00033427,0.000
 85359,0.00048897,-0.00013830,-0.00079280,-0.00123605,-0.00009522,-0.00
 079756,-0.00075247,0.00124484,-0.05531849,0.05199800,-0.07250334,-0.01
 410440,0.01570508,-0.00594536,0.01769680,-0.01780013,0.00925901,0.0593
 6278,-0.05962176,0.07370589,0.01237525,-0.00235209,-0.01553463,-0.0863
 0971,0.00406321,0.02414996,-0.00713766,-0.00224018,0.01729667,0.000325
 43,-0.00144750,0.00049323,0.00073755,-0.00059312,0.00074568,-0.0006154
 3,-0.00025671,-0.00036449,0.00028334,0.00030966,0.00013643,-0.00080225
 ,0.00020324,-0.00016184,-0.00047434,0.00049066,0.00021506,-0.00010762,
 -0.00008694,0.00002822,-0.00011151,-0.00009145,0.00005248,0.00007358,-
 0.00001178,0.00004060,-0.00002347,-0.00002083,0.00009112,0.00047524,-0
 .00068846,0.00028439,-0.00003796,0.00026764,-0.00006679,-0.00100137,0.
 00017927,-0.00076892,-0.00003015,-0.00002621,0.00000300,0.00001784,-0.
 00011811,0.00005420,-0.00001099,-0.00007583,0.00001359,-0.00034647,0.0
 0014180,-0.00048230,-0.00003441,0.00010693,-0.00003706,-0.00000924,0.0
 0003115,-0.00002652,-0.00005264,0.00001580,-0.00000129,-0.00000564,0.0
 0002635,-0.00000567,0.00084215,-0.00041527,-0.00155721,-0.00513410,0.0
 0257527,-0.00035036,-0.01645231,0.02040385,0.02874979,-0.00278693,-0.0
 0464553,-0.00614810,-0.00061610,-0.00025293,-0.00038987,0.00026032,-0.
 00018174,-0.00021557,-0.00028458,-0.00080842,-0.00108003,-0.00000382,-
 0.00031386,0.00011439,0.58326555,0.00222695,-0.00220251,-0.01024503,0.
 00284809,-0.07689321,-0.01034068,-0.01150247,0.00690932,0.02366764,-0.
 00017871,-0.00393157,0.00122164,-0.00089782,-0.00122247,0.00149283,-0.
 00133592,-0.00041271,-0.00074573,0.00008267,0.00025531,0.00044441,0.00
 036076,0.00074007,-0.00032518,-0.00032344,-0.00101942,0.00091609,-0.00
 063949,-0.00011801,0.00044318,-0.00029603,-0.00028115,0.00014591,0.000
 07972,-0.00007713,0.00002992,-0.00001108,-0.00005655,0.00005328,0.0000
 6595,-0.00023601,0.00038870,0.00008185,0.00005205,0.00006950,-0.000992
 90,-0.00016732,0.00021126,-0.00008374,0.00013263,-0.00009795,0.0000023
 6,-0.00002356,-0.00005251,0.00008668,-0.00019973,-0.00023598,0.0002075
 1,0.00043717,-0.00071057,0.00008738,0.00010771,-0.00006725,-0.00000741
 ,-0.00000317,-0.00003486,-0.00004928,-0.00000507,0.00000612,-0.0000063
 2,0.00004946,-0.00003671,0.00027089,0.00019390,-0.00051762,0.00494034,
 -0.00321890,-0.00033266,0.02094752,-0.01897648,-0.03040901,-0.00132715
 ,-0.00072850,-0.00176921,0.00015849,-0.00017153,-0.00018099,0.00007244
 ,0.00018018,0.00027867,-0.00090673,-0.00047423,-0.00057948,0.00015622,
 -0.00001286,-0.00006091,0.00079370,0.59655612,0.00309841,-0.00613809,-
 0.01883291,0.03368835,-0.02289068,-0.16948811,0.00933922,0.00456609,-0
 .01707427,-0.00145095,0.00010446,-0.00028642,0.00006762,-0.00027235,-0
 .00046937,0.00043477,0.00042955,0.00021013,-0.00005600,0.00004819,-0.0
 0027576,0.00041969,-0.00029595,0.00005179,0.00041492,0.00055109,-0.000
 59919,0.00003378,-0.00016481,0.00005481,0.00001695,0.00002634,0.000095
 91,-0.00007450,-0.00009742,-0.00002081,-0.00001423,-0.00002897,-0.0000
 3692,0.00000351,-0.00013411,-0.00001580,0.00002485,0.00007414,-0.00013
 557,-0.00118932,-0.00014929,-0.00031084,0.00002660,-0.00006848,-0.0000
 6798,0.00002312,-0.00000231,0.00002392,0.00005721,-0.00004509,-0.00012
 693,-0.00013001,0.00003660,-0.00047409,0.00006117,0.00000765,0.0000451
 8,0.00000527,-0.00001612,-0.00000383,-0.00000204,-0.00000356,0.0000028
 5,-0.00000502,0.00000995,-0.00001721,0.00045065,0.00007203,-0.00037399
 ,-0.00113253,0.00157055,0.00027096,0.00350253,-0.00305479,0.00225482,-
 0.00163621,-0.00143746,-0.00157245,-0.00108603,-0.00030399,0.00044359,
 0.00051254,0.00044828,-0.00059642,0.00030233,-0.00068958,-0.00080260,-
 0.00020179,-0.00005884,0.00014295,0.03035499,-0.02588585,0.48145826,-0
 .00127241,0.00044976,0.00154142,0.00833197,0.00455009,0.00818005,0.000
 87616,-0.00004645,0.00059203,0.00020024,0.00029239,-0.00026486,-0.0001
 2367,0.00018824,0.00018528,-0.00001190,-0.00016144,0.00001791,-0.00000
 530,-0.00001817,0.00003937,0.00017075,0.00004383,-0.00009086,-0.000000
 94,-0.00011690,-0.00000257,-0.00008304,0.00012068,-0.00000341,0.000019
 33,0.00001331,-0.00000666,-0.00000098,0.00001073,0.00000423,0.00000814
 ,0.00000719,-0.00000222,0.00002778,-0.00004125,0.00004652,0.00002631,-
 0.00001181,0.00006790,-0.00041670,-0.00015706,0.00017928,-0.00003462,0
 .00005194,-0.00004190,0.00000905,0.00001066,-0.00002885,0.00010038,-0.
 00012317,-0.00011366,0.00024305,0.00014228,-0.00024012,0.00003415,0.00
 005513,-0.00004274,-0.00000546,0.00000354,-0.00001785,-0.00002321,-0.0
 0000140,0.00000545,-0.00000559,0.00002206,-0.00002337,0.00000067,0.000
 08320,0.00028381,0.00026881,-0.00017706,-0.00000517,0.00100718,-0.0008
 2177,-0.00033661,0.00040531,0.00050212,0.00070846,-0.00022989,0.000055
 72,0.00008300,0.00005606,-0.00000975,-0.00011268,0.00024372,0.00010387
 ,-0.00011943,0.00003995,0.00000015,-0.00000985,-0.20707919,-0.06923961
 ,-0.11579303,0.22139921,0.00095191,-0.00003604,-0.00025365,-0.00527002
 ,-0.00361749,-0.00387544,0.00026976,0.00012853,0.00116642,0.00011773,0
 .00013115,0.00000782,0.00015085,-0.00001864,-0.00004263,0.00001909,-0.
 00002097,-0.00005871,0.00002592,0.00000870,0.00000341,-0.00016489,-0.0
 0001608,-0.00012940,0.00009808,0.00011534,0.00001818,0.00004121,-0.000
 00221,0.00002586,0.00000607,0.00000620,-0.00001883,0.00000592,0.000015
 44,-0.00000568,0.00001039,0.00000873,0.00001887,-0.00000733,-0.0001165
 9,-0.00006581,-0.00002270,0.00005980,-0.00001316,0.00022117,0.00012010
 ,-0.00001515,0.00002543,-0.00001667,0.00004916,-0.00000379,-0.00002158
 ,0.00001580,-0.00001489,0.00007284,0.00005963,-0.00004157,-0.00014948,
 0.00017732,-0.00005807,-0.00000633,-0.00000143,-0.00000270,0.00000805,
 0.00000142,0.00000482,0.00000800,-0.00000039,-0.00000064,-0.00001090,0
 .00000736,0.00007702,0.00006339,-0.00005114,-0.00003712,0.00003369,0.0
 0012856,-0.00035661,0.00041856,0.00021196,-0.00009147,-0.00018223,-0.0
 0060035,-0.00042199,0.00017031,-0.00007337,0.00011562,-0.00002944,-0.0
 0021913,0.00034765,-0.00006996,-0.00023324,0.00002090,0.00007370,0.000
 07929,-0.06909892,-0.07682827,-0.04862914,0.07543043,0.07833177,0.0046
 4943,0.00044253,-0.00217098,-0.02501170,-0.00996921,-0.02085487,-0.001
 03113,-0.00087791,0.00060310,0.00043407,0.00014667,0.00004404,-0.00002
 003,0.00019722,0.00027748,0.00000783,-0.00022038,-0.00005364,-0.000007
 57,0.00001798,0.00000683,0.00007152,0.00014867,-0.00008339,-0.00000910
 ,-0.00008257,-0.00001803,-0.00014955,0.00002955,0.00006039,-0.00000902
 ,0.00000600,-0.00000962,0.00001018,0.00000319,-0.00001293,0.00000201,-
 0.00000018,0.00000983,0.00039758,-0.00054237,0.00030837,-0.00014922,0.
 00013355,-0.00005935,0.00005386,0.00015463,-0.00010680,0.00005392,-0.0
 0001836,0.00000356,0.00001595,-0.00005231,0.00002810,-0.00002100,0.000
 01977,0.00002971,-0.00003769,-0.00004077,-0.00001029,-0.00006241,0.000
 03941,0.00000989,-0.00001170,0.00002510,-0.00002596,-0.00002829,0.0000
 2934,0.00000654,-0.00001773,0.00000893,-0.00000615,0.00027666,-0.00006
 884,-0.00051836,-0.00023423,0.00036988,-0.00003497,-0.00003206,0.00135
 995,0.00232295,-0.00098797,-0.00167519,-0.00212641,0.00053321,0.000373
 36,0.00000466,-0.00014707,-0.00010316,0.00011811,-0.00020677,0.0000039
 1,0.00015755,-0.00001121,-0.00008264,-0.00000311,-0.11275561,-0.048149
 42,-0.12673202,0.12253695,0.05396246,0.14070268,-0.00007494,0.00015157
 ,-0.00055132,-0.00545386,-0.00828511,0.00489314,-0.00012230,0.00145585
 ,0.00227574,0.00023164,-0.00042860,0.00023617,-0.00033987,0.00029040,-
 0.00004408,-0.00013833,-0.00013396,-0.00017960,0.00002249,0.00004012,0
 .00007121,0.00011081,-0.00004611,-0.00022184,0.00026562,-0.00022588,0.
 00010150,-0.00010287,-0.00000675,0.00010560,-0.00005104,-0.00004026,0.
 00002216,-0.00000271,-0.00003465,-0.00000530,0.00002528,-0.00001083,0.
 00003406,-0.00007605,0.00009350,-0.00013775,0.00000499,-0.00007934,0.0
 0005614,0.00008146,0.00000524,-0.00010924,-0.00004510,0.00006077,0.000
 00714,-0.00000276,0.00000625,-0.00000639,0.00002930,-0.00008504,0.0001
 1101,-0.00007107,0.00002271,0.00005179,0.00004421,-0.00002108,-0.00005
 523,0.00000322,0.00000072,0.00000681,0.00001012,-0.00000122,0.00000061
 ,-0.00000003,-0.00000838,0.00000420,-0.00000636,0.00001727,-0.00000289
 ,0.00017943,0.00004093,-0.00013194,0.00037380,-0.00056541,-0.00046462,
 -0.00009619,0.00002232,0.00016249,-0.00032029,-0.00071144,-0.00106293,
 0.00000651,0.00006698,-0.00009509,-0.00053817,-0.00078339,-0.00113805,
 -0.00004473,0.00015055,0.00012425,-0.08566640,-0.08322557,0.04289185,-
 0.00823683,-0.01984472,0.01154415,0.08944426,-0.00066849,-0.00019140,0
 .00026891,0.00411857,0.00527660,-0.00411013,0.00044008,-0.00028434,-0.
 00079411,0.00054777,0.00030731,-0.00009539,0.00003276,-0.00001808,0.00
 017718,0.00002764,-0.00013843,0.00016015,-0.00005714,0.00004139,-0.000
 05885,0.00004977,0.00020534,0.00008744,-0.00029129,0.00021882,-0.00019
 094,-0.00014034,0.00005407,0.00002413,-0.00001653,-0.00000223,-0.00002
 117,0.00000757,-0.00002764,0.00001764,-0.00004298,-0.00001504,-0.00001
 312,0.00006188,0.00000537,0.00004243,0.00001902,0.00007588,-0.00007170
 ,-0.00001004,-0.00006930,0.00024929,0.00005196,-0.00004897,-0.00000817
 ,-0.00000148,0.00000234,-0.00000676,-0.00002169,0.00011106,-0.00010644
 ,0.00006578,-0.00005882,-0.00000985,-0.00004035,0.00000139,0.00006661,
 -0.00000065,-0.00000608,0.00000171,0.00000283,-0.00000507,-0.00000184,
 0.00000171,-0.00000317,-0.00000422,-0.00004907,-0.00002205,0.00007618,
 -0.00009282,0.00024807,-0.00006711,-0.00020118,0.00130453,-0.00026895,
 0.00019831,0.00015738,0.00026873,-0.00139152,-0.00051091,-0.00121151,0
 .00020674,-0.00003540,-0.00037458,-0.00022470,-0.00041159,-0.00115111,
 -0.00006855,-0.00016395,-0.00003314,-0.08375315,-0.23246341,0.09766832
 ,-0.00228328,-0.00765998,0.00388935,0.09326194,0.25038341,0.00075774,0
 .00131934,0.00022278,0.01134867,0.02680460,-0.01403069,0.00203146,-0.0
 0314337,-0.00432257,-0.00001417,0.00145533,-0.00057252,0.00050332,-0.0
 0011200,0.00009169,0.00045408,0.00003826,0.00018845,-0.00002463,-0.000
 10958,-0.00009942,-0.00006213,-0.00007448,0.00011668,-0.00013358,-0.00
 010538,0.00012621,0.00014696,0.00006318,-0.00017295,0.00012780,0.00011
 427,-0.00005408,-0.00000672,0.00008279,-0.00001789,0.00001389,0.000038
 78,-0.00002658,-0.00009280,-0.00005975,-0.00008127,-0.00002041,-0.0000
 8811,0.00003106,0.00010421,-0.00002375,-0.00019558,0.00000679,-0.00000
 822,0.00002602,-0.00000201,0.00000642,0.00002193,-0.00002348,-0.000017
 57,0.00007358,-0.00014631,0.00007966,0.00002106,0.00001554,-0.00001441
 ,0.00000748,0.00000392,-0.00000086,0.00000454,0.00000520,-0.00000229,-
 0.00000071,-0.00000090,-0.00000539,0.00000889,-0.00005245,-0.00005047,
 -0.00010220,-0.00029193,0.00007042,0.00014133,-0.00183082,0.00034695,0
 .00227928,-0.00018359,-0.00028779,0.00045942,-0.00005464,-0.00062874,-
 0.00111294,-0.00012444,0.00001202,0.00048248,-0.00128092,-0.00059237,-
 0.00018700,0.00001990,-0.00024546,-0.00009075,0.04269319,0.09364699,-0
 .09704534,-0.00568341,-0.01551912,0.00857990,-0.04771682,-0.10277283,0
 .10603770,-0.00023909,0.00003860,-0.00034135,-0.00679823,0.00502242,-0
 .00313632,0.00016979,0.00039237,0.00022117,-0.00016758,-0.00016934,0.0
 0002669,-0.00082477,0.00043642,-0.00007902,0.00010450,0.00019642,-0.00
 009862,0.00008883,0.00002967,-0.00005679,0.00010565,-0.00038059,-0.000
 14777,0.00084951,-0.00053614,0.00034674,0.00019833,-0.00004275,-0.0000
 1527,0.00000854,-0.00000758,0.00000627,-0.00003117,0.00000539,-0.00002
 108,0.00005940,0.00000486,-0.00000502,0.00020743,-0.00020834,-0.000376
 92,-0.00003069,-0.00018943,0.00016244,-0.00143908,-0.00000932,-0.00111
 933,-0.00009415,0.00008084,0.00000286,-0.00000593,0.00000350,0.0000162
 9,-0.00011837,0.00001542,-0.00000349,-0.00129121,-0.00043718,-0.001140
 39,0.00005610,0.00000430,-0.00002546,0.00000333,-0.00000327,0.00001251
 ,0.00002951,-0.00000733,0.00000212,0.00001065,-0.00000379,0.00001275,0
 .00002852,-0.00002608,0.00002499,-0.00041049,0.00027603,-0.00032185,-0
 .00003491,0.00126635,0.00284643,0.00008152,0.00003493,0.00024803,0.000
 15755,-0.00001747,0.00013041,-0.00000933,0.00004540,0.00000825,-0.0000
 0508,-0.00001018,0.00006123,-0.00008694,-0.00002854,-0.00003224,-0.183
 52194,0.13755415,-0.00295866,-0.01593849,0.01749750,0.00035373,0.01055
 676,-0.00973906,-0.00048650,0.19833154,0.00076574,-0.00014260,-0.00002
 469,0.00254504,-0.00582433,0.00206754,0.00000502,-0.00015712,-0.000551
 06,0.00005585,0.00008316,-0.00001103,-0.00047683,-0.00108830,0.0012907
 7,0.00000226,0.00001402,0.00003244,-0.00005047,-0.00003387,0.00003365,
 -0.00014750,0.00007751,0.00005535,-0.00071178,-0.00068851,0.00154357,-
 0.00000855,-0.00001176,-0.00005579,0.00001588,0.00001264,-0.00001324,0
 .00000827,0.00002021,-0.00000098,-0.00000761,0.00001053,0.00000604,-0.
 00004749,-0.00007141,0.00002010,-0.00004173,0.00013964,-0.00013099,0.0
 0074553,0.00043296,-0.00027101,0.00012945,-0.00012994,0.00008313,-0.00
 002000,-0.00002238,0.00004269,-0.00013709,0.00021378,0.00018707,-0.000
 65513,-0.00027935,0.00026896,-0.00011820,-0.00011760,0.00011938,0.0000
 0251,-0.00000432,0.00002274,0.00003697,0.00000693,-0.00000895,0.000003
 47,-0.00004180,0.00003439,-0.00003240,-0.00002988,-0.00001296,0.000829
 65,0.00039205,0.00018614,0.00093372,-0.00046852,-0.00250824,-0.0002796
 9,0.00010892,-0.00001860,0.00002076,-0.00005456,-0.00013648,-0.0000752
 7,0.00003148,-0.00004047,0.00002273,-0.00012503,0.00010302,-0.00001787
 ,0.00022902,0.00004903,0.13787049,-0.18589012,0.00475364,-0.00892819,0
 .00902857,0.00052188,0.01885063,-0.01625715,-0.00021707,-0.15108818,0.
 20063711,-0.00022696,-0.00045061,0.00052619,0.01907898,-0.01948833,0.0
 0694640,-0.00082499,-0.00024282,0.00052652,0.00034324,0.00009870,0.000
 00974,0.00087447,0.00048685,-0.00085446,-0.00014145,-0.00023196,0.0000
 6328,-0.00013258,-0.00003684,0.00008303,0.00000367,0.00033964,0.000021
 69,0.00027923,0.00140836,-0.00105899,-0.00018984,0.00008856,0.00013568
 ,-0.00002071,-0.00001195,-0.00001833,0.00001568,-0.00001126,-0.0000074
 5,-0.00004860,-0.00000385,-0.00000247,-0.00014037,-0.00036966,-0.00067
 297,-0.00000964,0.00015715,-0.00011096,-0.00074829,0.00006043,-0.00062
 233,0.00014179,-0.00010737,0.00003249,-0.00002137,-0.00002443,0.000037
 60,-0.00020847,0.00034380,-0.00008388,-0.00076533,-0.00030795,-0.00025
 477,-0.00010904,-0.00004724,0.00021278,0.00000042,-0.00001281,0.000025
 48,0.00004362,-0.00001776,-0.00001146,0.00001741,-0.00002898,0.0000265
 7,-0.00007151,0.00002789,0.00007511,0.00184453,-0.00092198,0.00034946,
 0.00326266,-0.00392429,-0.00685318,-0.00009854,0.00053744,0.00031115,-
 0.00011513,0.00002405,-0.00007537,-0.00006411,-0.00000902,0.00005864,-
 0.00006988,-0.00006111,-0.00000015,0.00009807,0.00014974,-0.00000835,-
 0.00557073,0.00776143,-0.04969633,-0.01153242,0.01387228,-0.00044684,-
 0.01077695,0.00837386,-0.00080801,0.00588316,-0.00741996,0.05214448\\-
 0.00000043,-0.00006559,-0.00002557,0.00000553,0.00007530,0.00000046,0.
 00000034,-0.00001409,0.00000557,-0.00001772,-0.00001047,0.00000529,-0.
 00000732,0.00000932,0.00000130,0.00000203,0.00000925,-0.00000077,0.000
 00170,0.00000333,0.00000033,0.00000496,0.00000365,-0.00000251,0.000001
 98,0.00000116,-0.00000745,-0.00000713,0.00000224,0.00000582,0.00000007
 ,0.00000724,0.00000212,-0.00000658,-0.00000194,0.00000494,0.00000214,-
 0.00000018,0.00000194,-0.00000031,0.00002728,-0.00000973,-0.00000549,-
 0.00000561,0.00000212,0.00001476,-0.00001592,0.00000376,0.00000684,-0.
 00001130,0.00000490,0.00000448,0.00000137,-0.00000187,-0.00001022,0.00
 000712,-0.00000159,-0.00000382,-0.00000323,-0.00000473,-0.00000217,-0.
 00000186,0.00000428,-0.00000025,0.00000040,-0.00000153,-0.00000014,-0.
 00000454,-0.00000345,0.00000057,-0.00000364,-0.00000410,0.00000678,-0.
 00000045,-0.00000510,-0.00000203,-0.00000224,-0.00001618,0.00000400,-0
 .00001874,0.00000536,0.00000794,0.00001901,0.00002310,-0.00000984,0.00
 000612,0.00000551,0.00000750,-0.00000041,0.00000183,0.00000188,0.00000
 089,-0.00001217,0.00000753,0.00000005,-0.00000229,-0.00000486,-0.00001
 377,0.00002055,-0.00000211,-0.00000139,-0.00000397,-0.00000353,0.00000
 406,-0.00000076,0.00000290,-0.00000245,0.00000461\\\@


 SUCCESS-- IF YOU HAVE TRIED TO DO SOMETHING AND FAILED
           YOU ARE BETTER OFF THAN IF YOU HAD TRIED TO DO
           NOTHING AND SUCCEEDED.

                   -- FROM THE BACK OF A SUGAR PACKET
 Job cpu time:       0 days  3 hours 19 minutes 23.1 seconds.
 Elapsed time:       0 days  0 hours  6 minutes 19.1 seconds.
 File lengths (MBytes):  RWF=    567 Int=      0 D2E=      0 Chk=     23 Scr=      1
 Normal termination of Gaussian 16 at Fri May 10 16:11:56 2019.
