 Entering Gaussian System, Link 0=g16
 Initial command:
 /project/6004141/group/g16/g16/l1.exe "/scratch/rzk/Gau-208671.inp" -scrdir="/scratch/rzk/"
 Entering Link 1 = /project/6004141/group/g16/g16/l1.exe PID=    208672.
  
 Copyright (c) 1988,1990,1992,1993,1995,1998,2003,2009,2016,
            Gaussian, Inc.  All Rights Reserved.
  
 This is part of the Gaussian(R) 16 program.  It is based on
 the Gaussian(R) 09 system (copyright 2009, Gaussian, Inc.),
 the Gaussian(R) 03 system (copyright 2003, Gaussian, Inc.),
 the Gaussian(R) 98 system (copyright 1998, Gaussian, Inc.),
 the Gaussian(R) 94 system (copyright 1995, Gaussian, Inc.),
 the Gaussian 92(TM) system (copyright 1992, Gaussian, Inc.),
 the Gaussian 90(TM) system (copyright 1990, Gaussian, Inc.),
 the Gaussian 88(TM) system (copyright 1988, Gaussian, Inc.),
 the Gaussian 86(TM) system (copyright 1986, Carnegie Mellon
 University), and the Gaussian 82(TM) system (copyright 1983,
 Carnegie Mellon University). Gaussian is a federally registered
 trademark of Gaussian, Inc.
  
 This software contains proprietary and confidential information,
 including trade secrets, belonging to Gaussian, Inc.
  
 This software is provided under written license and may be
 used, copied, transmitted, or stored only in accord with that
 written license.
  
 The following legend is applicable only to US Government
 contracts under FAR:
  
                    RESTRICTED RIGHTS LEGEND
  
 Use, reproduction and disclosure by the US Government is
 subject to restrictions as set forth in subparagraphs (a)
 and (c) of the Commercial Computer Software - Restricted
 Rights clause in FAR 52.227-19.
  
 Gaussian, Inc.
 340 Quinnipiac St., Bldg. 40, Wallingford CT 06492
  
  
 ---------------------------------------------------------------
 Warning -- This program may not be used in any manner that
 competes with the business of Gaussian, Inc. or will provide
 assistance to any competitor of Gaussian, Inc.  The licensee
 of this program is prohibited from giving any competitor of
 Gaussian, Inc. access to this program.  By using this program,
 the user acknowledges that Gaussian, Inc. is engaged in the
 business of creating and licensing software in the field of
 computational chemistry and represents and warrants to the
 licensee that it is not a competitor of Gaussian, Inc. and that
 it will not use this program in any manner prohibited above.
 ---------------------------------------------------------------
  

 Cite this work as:
 Gaussian 16, Revision A.03,
 M. J. Frisch, G. W. Trucks, H. B. Schlegel, G. E. Scuseria, 
 M. A. Robb, J. R. Cheeseman, G. Scalmani, V. Barone, 
 G. A. Petersson, H. Nakatsuji, X. Li, M. Caricato, A. V. Marenich, 
 J. Bloino, B. G. Janesko, R. Gomperts, B. Mennucci, H. P. Hratchian, 
 J. V. Ortiz, A. F. Izmaylov, J. L. Sonnenberg, D. Williams-Young, 
 F. Ding, F. Lipparini, F. Egidi, J. Goings, B. Peng, A. Petrone, 
 T. Henderson, D. Ranasinghe, V. G. Zakrzewski, J. Gao, N. Rega, 
 G. Zheng, W. Liang, M. Hada, M. Ehara, K. Toyota, R. Fukuda, 
 J. Hasegawa, M. Ishida, T. Nakajima, Y. Honda, O. Kitao, H. Nakai, 
 T. Vreven, K. Throssell, J. A. Montgomery, Jr., J. E. Peralta, 
 F. Ogliaro, M. J. Bearpark, J. J. Heyd, E. N. Brothers, K. N. Kudin, 
 V. N. Staroverov, T. A. Keith, R. Kobayashi, J. Normand, 
 K. Raghavachari, A. P. Rendell, J. C. Burant, S. S. Iyengar, 
 J. Tomasi, M. Cossi, J. M. Millam, M. Klene, C. Adamo, R. Cammi, 
 J. W. Ochterski, R. L. Martin, K. Morokuma, O. Farkas, 
 J. B. Foresman, and D. J. Fox, Gaussian, Inc., Wallingford CT, 2016.
 
 ******************************************
 Gaussian 16:  ES64L-G16RevA.03 25-Dec-2016
                14-Jun-2019 
 ******************************************
 %NProcShared=40
 Will use up to   40 processors via shared memory.
 %chk=ABH-freq.chk
 ----------------------------------------------------------------------
 #p freq ub3lyp/6-31g(d,p) scrf=(iefpcm,solvent=acetonitrile) guess=(mi
 x,always) empiricaldispersion=gd3
 ----------------------------------------------------------------------
 1/10=4,30=1,38=1/1,3;
 2/12=2,17=6,18=5,40=1/2;
 3/5=1,6=6,7=101,11=2,25=1,30=1,70=2201,71=2,72=2,74=-5,116=2,124=31,140=1/1,2,3;
 4/13=-1/1;
 5/5=2,38=5,53=2,98=1/2;
 8/6=4,10=90,11=11/1;
 11/6=1,8=1,9=11,15=111,16=1/1,2,10;
 10/6=1/2;
 6/7=2,8=2,9=2,10=2,28=1/1;
 7/8=1,10=1,25=1/1,2,3,16;
 1/10=4,30=1/3;
 99//99;
 Leave Link    1 at Fri Jun 14 19:38:16 2019, MaxMem=           0 cpu:               8.5 elap:               0.2
 (Enter /project/6004141/group/g16/g16/l101.exe)
 -------------------
 Title Card Required
 -------------------
 Symbolic Z-matrix:
 Charge =  0 Multiplicity = 1
 C                    -0.75248   1.29557   0.34714 
 H                    -2.44195  -2.39364  -1.83133 
 O                    -1.83328   0.76769   0.97027 
 N                    -2.19246  -1.73258   0.09364 
 H                    -1.92539  -0.21869   0.77398 
 N                    -2.50379  -1.59383  -1.20898 
 H                    -3.28486  -0.97452  -1.38669 
 H                    -1.50937  -2.49085   0.16212 
 C                    -0.97125   2.68712  -0.16114 
 H                    -1.65906   3.21195   0.50976 
 H                    -0.04326   3.26066  -0.2209 
 H                    -1.43319   2.6914   -1.15982 
 C                     0.45315   0.55727   0.20763 
 C                     0.65916  -0.66458   0.92037 
 C                     1.50987   0.99006  -0.65112 
 C                     1.82457  -1.40242   0.76158 
 H                    -0.08931  -0.99411   1.63189 
 C                     2.66742   0.24054  -0.798 
 H                     1.39716   1.90739  -1.21971 
 C                     2.83966  -0.9667   -0.10146 
 H                     1.95274  -2.32232   1.32635 
 H                     3.44768   0.59309  -1.46755 
 H                     3.74825  -1.54814  -0.22289 
 
 ITRead=  0  0  0  0  0  0  0  0  0  0  0  0  0  0  0  0  0  0  0  0
 ITRead=  0  0  0
 MicOpt= -1 -1 -1 -1 -1 -1 -1 -1 -1 -1 -1 -1 -1 -1 -1 -1 -1 -1 -1 -1
 MicOpt= -1 -1 -1
 NAtoms=     23 NQM=       23 NQMF=       0 NMMI=      0 NMMIF=      0
                NMic=       0 NMicF=      0.
                    Isotopes and Nuclear Properties:
 (Nuclear quadrupole moments (NQMom) in fm**2, nuclear magnetic moments (NMagM)
  in nuclear magnetons)

  Atom         1           2           3           4           5           6           7           8           9          10
 IAtWgt=          12           1          16          14           1          14           1           1          12           1
 AtmWgt=  12.0000000   1.0078250  15.9949146  14.0030740   1.0078250  14.0030740   1.0078250   1.0078250  12.0000000   1.0078250
 NucSpn=           0           1           0           2           1           2           1           1           0           1
 AtZEff=  -0.0000000  -0.0000000  -0.0000000  -0.0000000  -0.0000000  -0.0000000  -0.0000000  -0.0000000  -0.0000000  -0.0000000
 NQMom=    0.0000000   0.0000000   0.0000000   2.0440000   0.0000000   2.0440000   0.0000000   0.0000000   0.0000000   0.0000000
 NMagM=    0.0000000   2.7928460   0.0000000   0.4037610   2.7928460   0.4037610   2.7928460   2.7928460   0.0000000   2.7928460
 AtZNuc=   6.0000000   1.0000000   8.0000000   7.0000000   1.0000000   7.0000000   1.0000000   1.0000000   6.0000000   1.0000000

  Atom        11          12          13          14          15          16          17          18          19          20
 IAtWgt=           1           1          12          12          12          12           1          12           1          12
 AtmWgt=   1.0078250   1.0078250  12.0000000  12.0000000  12.0000000  12.0000000   1.0078250  12.0000000   1.0078250  12.0000000
 NucSpn=           1           1           0           0           0           0           1           0           1           0
 AtZEff=  -0.0000000  -0.0000000  -0.0000000  -0.0000000  -0.0000000  -0.0000000  -0.0000000  -0.0000000  -0.0000000  -0.0000000
 NQMom=    0.0000000   0.0000000   0.0000000   0.0000000   0.0000000   0.0000000   0.0000000   0.0000000   0.0000000   0.0000000
 NMagM=    2.7928460   2.7928460   0.0000000   0.0000000   0.0000000   0.0000000   2.7928460   0.0000000   2.7928460   0.0000000
 AtZNuc=   1.0000000   1.0000000   6.0000000   6.0000000   6.0000000   6.0000000   1.0000000   6.0000000   1.0000000   6.0000000

  Atom        21          22          23
 IAtWgt=           1           1           1
 AtmWgt=   1.0078250   1.0078250   1.0078250
 NucSpn=           1           1           1
 AtZEff=  -0.0000000  -0.0000000  -0.0000000
 NQMom=    0.0000000   0.0000000   0.0000000
 NMagM=    2.7928460   2.7928460   2.7928460
 AtZNuc=   1.0000000   1.0000000   1.0000000
 Leave Link  101 at Fri Jun 14 19:38:17 2019, MaxMem=   104857600 cpu:               4.9 elap:               0.2
 (Enter /project/6004141/group/g16/g16/l103.exe)

 GradGradGradGradGradGradGradGradGradGradGradGradGradGradGradGradGradGrad
 Berny optimization.
 Initialization pass.
 Trust Radius=3.00D-01 FncErr=1.00D-07 GrdErr=1.00D-07 EigMax=2.50D+02 EigMin=1.00D-04
 Number of steps in this run=      2 maximum allowed number of steps=      2.
 GradGradGradGradGradGradGradGradGradGradGradGradGradGradGradGradGradGrad

 Leave Link  103 at Fri Jun 14 19:38:18 2019, MaxMem=   104857600 cpu:               3.6 elap:               0.1
 (Enter /project/6004141/group/g16/g16/l202.exe)
                          Input orientation:                          
 ---------------------------------------------------------------------
 Center     Atomic      Atomic             Coordinates (Angstroms)
 Number     Number       Type             X           Y           Z
 ---------------------------------------------------------------------
      1          6           0       -0.752476    1.295565    0.347139
      2          1           0       -2.441950   -2.393640   -1.831328
      3          8           0       -1.833277    0.767688    0.970268
      4          7           0       -2.192457   -1.732581    0.093638
      5          1           0       -1.925392   -0.218694    0.773976
      6          7           0       -2.503793   -1.593832   -1.208977
      7          1           0       -3.284855   -0.974524   -1.386686
      8          1           0       -1.509367   -2.490854    0.162122
      9          6           0       -0.971254    2.687122   -0.161137
     10          1           0       -1.659060    3.211948    0.509760
     11          1           0       -0.043258    3.260661   -0.220903
     12          1           0       -1.433186    2.691397   -1.159823
     13          6           0        0.453145    0.557270    0.207633
     14          6           0        0.659161   -0.664583    0.920365
     15          6           0        1.509872    0.990063   -0.651117
     16          6           0        1.824568   -1.402416    0.761581
     17          1           0       -0.089312   -0.994112    1.631887
     18          6           0        2.667415    0.240540   -0.797995
     19          1           0        1.397160    1.907387   -1.219714
     20          6           0        2.839655   -0.966695   -0.101463
     21          1           0        1.952738   -2.322320    1.326350
     22          1           0        3.447680    0.593086   -1.467553
     23          1           0        3.748247   -1.548142   -0.222894
 ---------------------------------------------------------------------
                    Distance matrix (angstroms):
                    1          2          3          4          5
     1  C    0.000000
     2  H    4.605461   0.000000
     3  O    1.354649   4.267718   0.000000
     4  N    3.362659   2.050546   2.673731   0.000000
     5  H    1.962372   3.432904   1.009933   1.681082   0.000000
     6  N    3.719842   1.015302   3.282602   1.346472   2.481462
     7  H    3.817381   1.709411   3.270721   1.989810   2.662307
     8  H    3.865758   2.202954   3.372849   1.022878   2.389593
     9  C    1.497544   5.546767   2.389014   4.592387   3.198215
    10  H    2.126232   6.125049   2.493356   4.990595   3.451094
    11  H    2.165009   6.349670   3.292107   5.445223   4.078986
    12  H    2.163943   5.227440   2.897933   4.660390   3.528523
    13  C    1.420586   4.609426   2.419424   3.500803   2.565210
    14  C    2.482637   4.492031   2.875089   3.155285   2.626816
    15  C    2.491599   5.334720   3.722229   4.655608   3.910629
    16  C    3.753934   5.090076   4.258255   4.085541   3.932372
    17  H    2.707948   4.414458   2.565754   2.708277   2.169902
    18  C    3.757667   5.840573   4.864244   5.320392   4.876050
    19  H    2.729522   5.797557   4.065791   5.278220   4.419771
    20  C    4.268778   5.737940   5.098332   5.093800   4.902201
    21  H    4.622351   5.411959   4.899883   4.364632   4.446375
    22  H    4.629027   6.613668   5.819103   6.297395   5.878209
    23  H    5.354261   6.451393   6.159555   5.951989   5.911968
                    6          7          8          9         10
     6  N    0.000000
     7  H    1.012512   0.000000
     8  H    1.916623   2.801860   0.000000
     9  C    4.666177   4.501374   5.215889   0.000000
    10  H    5.173312   4.875066   5.715349   1.094816   0.000000
    11  H    5.531422   5.459285   5.947782   1.092564   1.773995
    12  H    4.417217   4.113286   5.348744   1.100351   1.763377
    13  C    3.921416   4.342913   3.625546   2.588662   3.405878
    14  C    3.924523   4.579717   2.934742   3.880957   4.535442
    15  C    4.805958   5.233552   4.679097   3.045665   4.040611
    16  C    4.759669   5.559168   3.557973   5.039082   5.787178
    17  H    3.776227   4.395869   2.533180   4.188585   4.627550
    18  C    5.502292   6.103479   5.082110   4.430718   5.409055
    19  H    5.241763   5.500414   5.449944   2.708866   3.746123
    20  C    5.492934   6.257914   4.615900   5.279864   6.170339
    21  H    5.178730   6.050578   3.656501   5.988059   6.658831
    22  H    6.345826   6.913101   6.061257   5.061491   6.070173
    23  H    6.329491   7.151781   5.355320   6.341527   7.241147
                   11         12         13         14         15
    11  H    0.000000
    12  H    1.771308   0.000000
    13  C    2.781795   3.159538   0.000000
    14  C    4.147701   4.468523   1.429459   0.000000
    15  C    2.784405   3.437282   1.428787   2.435389   0.000000
    16  C    5.118431   5.573514   2.455204   1.388446   2.796195
    17  H    4.640910   4.814833   2.174752   1.084004   3.421469
    18  C    4.099014   4.790882   2.452468   2.793760   1.386818
    19  H    2.214448   2.937536   2.179748   3.426311   1.085122
    20  C    5.118202   5.723542   2.848410   2.426924   2.428857
    21  H    6.127615   6.540864   3.433998   2.141555   3.883090
    22  H    4.566918   5.321697   3.431439   3.880686   2.139920
    23  H    6.123733   6.760087   3.933931   3.410304   3.411185
                   16         17         18         19         20
    16  C    0.000000
    17  H    2.141747   0.000000
    18  C    2.417017   3.876627   0.000000
    19  H    3.881109   4.331273   2.137703   0.000000
    20  C    1.401820   3.403543   1.404365   3.404647   0.000000
    21  H    1.087021   2.455088   3.404682   4.968051   2.159396
    22  H    3.403757   4.963470   1.086927   2.448151   2.160744
    23  H    2.165864   4.298142   2.167561   4.296736   1.085525
                   21         22         23
    21  H    0.000000
    22  H    4.305849   0.000000
    23  H    2.494667   2.494870   0.000000
 Stoichiometry    C8H12N2O
 Framework group  C1[X(C8H12N2O)]
 Deg. of freedom    63
 Full point group                 C1      NOp   1
 Largest Abelian subgroup         C1      NOp   1
 Largest concise Abelian subgroup C1      NOp   1
                         Standard orientation:                         
 ---------------------------------------------------------------------
 Center     Atomic      Atomic             Coordinates (Angstroms)
 Number     Number       Type             X           Y           Z
 ---------------------------------------------------------------------
      1          6           0        0.752476    1.295565   -0.347139
      2          1           0        2.441950   -2.393640    1.831328
      3          8           0        1.833277    0.767688   -0.970268
      4          7           0        2.192457   -1.732581   -0.093638
      5          1           0        1.925392   -0.218694   -0.773976
      6          7           0        2.503793   -1.593832    1.208977
      7          1           0        3.284855   -0.974523    1.386686
      8          1           0        1.509367   -2.490854   -0.162122
      9          6           0        0.971253    2.687122    0.161137
     10          1           0        1.659059    3.211948   -0.509760
     11          1           0        0.043257    3.260661    0.220903
     12          1           0        1.433185    2.691397    1.159823
     13          6           0       -0.453145    0.557270   -0.207633
     14          6           0       -0.659161   -0.664583   -0.920365
     15          6           0       -1.509872    0.990063    0.651117
     16          6           0       -1.824568   -1.402416   -0.761581
     17          1           0        0.089312   -0.994112   -1.631887
     18          6           0       -2.667415    0.240539    0.797995
     19          1           0       -1.397160    1.907387    1.219714
     20          6           0       -2.839655   -0.966696    0.101463
     21          1           0       -1.952738   -2.322320   -1.326350
     22          1           0       -3.447680    0.593085    1.467553
     23          1           0       -3.748247   -1.548143    0.222894
 ---------------------------------------------------------------------
 Rotational constants (GHZ):           1.3024177           0.8055902           0.5957271
 Leave Link  202 at Fri Jun 14 19:38:18 2019, MaxMem=   104857600 cpu:               7.1 elap:               0.3
 (Enter /project/6004141/group/g16/g16/l301.exe)
 Standard basis: 6-31G(d,p) (6D, 7F)
 Ernie: Thresh=  0.10000D-02 Tol=  0.10000D-05 Strict=F.
 There are   225 symmetry adapted cartesian basis functions of A   symmetry.
 There are   225 symmetry adapted basis functions of A   symmetry.
   225 basis functions,   392 primitive gaussians,   225 cartesian basis functions
    41 alpha electrons       41 beta electrons
       nuclear repulsion energy       589.0951397227 Hartrees.
 IExCor=  402 DFT=T Ex+Corr=B3LYP ExCW=0 ScaHFX=  0.200000
 ScaDFX=  0.800000  0.720000  1.000000  0.810000 ScalE2=  1.000000  1.000000
 IRadAn=      5 IRanWt=     -1 IRanGd=            0 ICorTp=0 IEmpDi=131
 NAtoms=   23 NActive=   23 NUniq=   23 SFac= 1.00D+00 NAtFMM=   60 NAOKFM=F Big=F
 Integral buffers will be    131072 words long.
 Raffenetti 2 integral format.
 Two-electron integral symmetry is turned on.
 R6Disp:  Grimme-D3 Dispersion energy=       -0.0177885401 Hartrees.
 Nuclear repulsion after empirical dispersion term =      589.0773511826 Hartrees.
 Force inversion solution in PCM.
 ------------------------------------------------------------------------------
 Polarizable Continuum Model (PCM)
 =================================
 Model                : PCM.
 Atomic radii         : UFF (Universal Force Field).
 Polarization charges : Total charges.
 Charge compensation  : None.
 Solution method      : Matrix inversion.
 Cavity type          : Scaled VdW (van der Waals Surface) (Alpha=1.100).
 Cavity algorithm     : GePol (No added spheres)
                        Default sphere list used, NSphG=   23.
                        Lebedev-Laikov grids with approx.  5.0 points / Ang**2.
                        Smoothing algorithm: York/Karplus (Gamma=1.0000).
                        Polarization charges: spherical gaussians, with
                                              point-specific exponents (IZeta= 3).
                        Self-potential: point-specific (ISelfS= 7).
                        Self-field    : sphere-specific E.n sum rule (ISelfD= 2).
 1st derivatives      : Analytical E(r).r(x)/FMM algorithm (CHGder, D1EAlg=3).
                        Cavity 1st derivative terms included.
 2nd derivatives      : Analytical E(r).r(xy)/FMM algorithm (CHGder, D2EAlg=3).
                        Cavity 2nd derivative terms included.
 Solvent              : Acetonitrile, Eps=  35.688000 Eps(inf)=   1.806874
 ------------------------------------------------------------------------------
 GePol: Number of generator spheres                  =      23
 GePol: Total number of spheres                      =      23
 GePol: Number of exposed spheres                    =      23 (100.00%)
 GePol: Number of points                             =    1838
 GePol: Average weight of points                     =       0.13
 GePol: Minimum weight of points                     =   0.36D-11
 GePol: Maximum weight of points                     =    0.20577
 GePol: Number of points with low weight             =     115
 GePol: Fraction of low-weight points (<1% of avg)   =       6.26%
 GePol: Cavity surface area                          =    241.112 Ang**2
 GePol: Cavity volume                                =    241.514 Ang**3
 Leave Link  301 at Fri Jun 14 19:38:19 2019, MaxMem=   104857600 cpu:               9.6 elap:               0.3
 (Enter /project/6004141/group/g16/g16/l302.exe)
 NPDir=0 NMtPBC=     1 NCelOv=     1 NCel=       1 NClECP=     1 NCelD=      1
         NCelK=      1 NCelE2=     1 NClLst=     1 CellRange=     0.0.
 One-electron integrals computed using PRISM.
 One-electron integral symmetry used in STVInt
 PrsmSu:  requested number of processors reduced to:  29 ShMem   1 Linda.
 NBasis=   225 RedAO= T EigKep=  4.87D-04  NBF=   225
 NBsUse=   225 1.00D-06 EigRej= -1.00D+00 NBFU=   225
 Precomputing XC quadrature grid using
 IXCGrd= 4 IRadAn=           5 IRanWt=          -1 IRanGd=           0 AccXCQ= 0.00D+00.
 Generated NRdTot=       0 NPtTot=           0 NUsed=           0 NTot=          32
 NSgBfM=   225   225   225   225   225 MxSgAt=    23 MxSgA2=    23.
 Leave Link  302 at Fri Jun 14 19:38:19 2019, MaxMem=   104857600 cpu:              15.6 elap:               0.4
 (Enter /project/6004141/group/g16/g16/l303.exe)
 DipDrv:  MaxL=1.
 Leave Link  303 at Fri Jun 14 19:38:20 2019, MaxMem=   104857600 cpu:              10.3 elap:               0.4
 (Enter /project/6004141/group/g16/g16/l401.exe)
 ExpMin= 1.61D-01 ExpMax= 5.48D+03 ExpMxC= 8.25D+02 IAcc=3 IRadAn=         5 AccDes= 0.00D+00
 Harris functional with IExCor=  402 and IRadAn=       5 diagonalized for initial guess.
 HarFok:  IExCor=  402 AccDes= 0.00D+00 IRadAn=         5 IDoV= 1 UseB2=F ITyADJ=14
 ICtDFT=  3500011 ScaDFX=  1.000000  1.000000  1.000000  1.000000
 FoFCou: FMM=F IPFlag=           0 FMFlag=      100000 FMFlg1=           0
         NFxFlg=           0 DoJE=T BraDBF=F KetDBF=T FulRan=T
         wScrn=  0.000000 ICntrl=       500 IOpCl=  0 I1Cent=   200000004 NGrid=           0
         NMat0=    1 NMatS0=      1 NMatT0=    0 NMatD0=    1 NMtDS0=    0 NMtDT0=    0
 Petite list used in FoFCou.
 Harris En= -496.754866583298    
 JPrj=0 DoOrth=F DoCkMO=T.
 Mixing orbitals, IMix= 1 IMixAn=  0 NRI=1 NE=   41 Coef=  7.07106781D-01  7.07106781D-01
 Mixing orbitals, IMix= 1 IMixAn=  0 NRI=1 NE=   41 Coef= -7.07106781D-01  7.07106781D-01
 Initial guess <Sx>= 0.0000 <Sy>= 0.0000 <Sz>= 0.0000 <S**2>= 1.0000 S= 0.6180
 Leave Link  401 at Fri Jun 14 19:38:21 2019, MaxMem=   104857600 cpu:              23.0 elap:               0.6
 (Enter /project/6004141/group/g16/g16/l502.exe)
 Integral symmetry usage will be decided dynamically.
 UHF open shell SCF:
 Using DIIS extrapolation, IDIIS=  1040.
 NGot=   104857600 LenX=   104744810 LenY=   104693744
 Requested convergence on RMS density matrix=1.00D-08 within 128 cycles.
 Requested convergence on MAX density matrix=1.00D-06.
 Requested convergence on             energy=1.00D-06.
 No special actions if energy rises.
 Fock matrices will be formed incrementally for  20 cycles.

 Cycle   1  Pass 1  IDiag  1:
 FoFJK:  IHMeth= 1 ICntrl=       0 DoSepK=F KAlg= 0 I1Cent=           0 FoldK=F
 IRaf= 870000000 NMat=       1 IRICut=       1 DoRegI=T DoRafI=F ISym2E= 0 IDoP0=0 IntGTp=1.
 FoFCou: FMM=F IPFlag=           0 FMFlag=      100000 FMFlg1=           0
         NFxFlg=           0 DoJE=F BraDBF=F KetDBF=F FulRan=T
         wScrn=  0.000000 ICntrl=         0 IOpCl=  1 I1Cent=           0 NGrid=           0
         NMat0=    1 NMatS0=      1 NMatT0=    0 NMatD0=    1 NMtDS0=    0 NMtDT0=    0
 Symmetry not used in FoFCou.
 Inv3:  Mode=1 IEnd=    10134732.
 Iteration    1 A*A^-1 deviation from unit magnitude is 3.22D-15 for   1476.
 Iteration    1 A*A^-1 deviation from orthogonality  is 1.71D-15 for   1391    603.
 Iteration    1 A^-1*A deviation from unit magnitude is 3.44D-15 for   1476.
 Iteration    1 A^-1*A deviation from orthogonality  is 2.15D-15 for   1253    314.
 E= -496.448215008082    
 DIIS: error= 2.65D-02 at cycle   1 NSaved=   1.
 NSaved= 1 IEnMin= 1 EnMin= -496.448215008082     IErMin= 1 ErrMin= 2.65D-02
 ErrMax= 2.65D-02  0.00D+00 EMaxC= 1.00D-01 BMatC= 1.07D+00 BMatP= 1.07D+00
 IDIUse=3 WtCom= 7.35D-01 WtEn= 2.65D-01
 Coeff-Com:  0.100D+01
 Coeff-En:   0.100D+01
 Coeff:      0.100D+01
 Gap=     0.132 Goal=   None    Shift=    0.000
 Gap=     0.014 Goal=   None    Shift=    0.000
 GapD=    0.014 DampG=0.250 DampE=0.500 DampFc=0.2500 IDamp=-1.
 Damping current iteration by 2.50D-01
 RMSDP=5.12D-03 MaxDP=1.25D-01              OVMax= 4.60D-01

 Cycle   2  Pass 1  IDiag  1:
 RMSU=  1.26D-03    CP:  9.88D-01
 E= -496.550757359292     Delta-E=       -0.102542351210 Rises=F Damp=T
 DIIS: error= 1.55D-02 at cycle   2 NSaved=   2.
 NSaved= 2 IEnMin= 2 EnMin= -496.550757359292     IErMin= 2 ErrMin= 1.55D-02
 ErrMax= 1.55D-02  0.00D+00 EMaxC= 1.00D-01 BMatC= 2.97D-01 BMatP= 1.07D+00
 IDIUse=3 WtCom= 8.45D-01 WtEn= 1.55D-01
 Coeff-Com: -0.924D+00 0.192D+01
 Coeff-En:   0.000D+00 0.100D+01
 Coeff:     -0.780D+00 0.178D+01
 Gap=     0.164 Goal=   None    Shift=    0.000
 Gap=     0.045 Goal=   None    Shift=    0.000
 RMSDP=2.23D-03 MaxDP=4.60D-02 DE=-1.03D-01 OVMax= 1.69D-01

 Cycle   3  Pass 1  IDiag  1:
 RMSU=  1.45D-03    CP:  9.67D-01  2.30D+00
 E= -496.739070983922     Delta-E=       -0.188313624630 Rises=F Damp=F
 DIIS: error= 3.38D-03 at cycle   3 NSaved=   3.
 NSaved= 3 IEnMin= 3 EnMin= -496.739070983922     IErMin= 3 ErrMin= 3.38D-03
 ErrMax= 3.38D-03  0.00D+00 EMaxC= 1.00D-01 BMatC= 2.69D-02 BMatP= 2.97D-01
 IDIUse=3 WtCom= 9.66D-01 WtEn= 3.38D-02
 Coeff-Com: -0.308D+00 0.664D+00 0.644D+00
 Coeff-En:   0.000D+00 0.000D+00 0.100D+01
 Coeff:     -0.298D+00 0.642D+00 0.656D+00
 Gap=     0.138 Goal=   None    Shift=    0.000
 Gap=     0.076 Goal=   None    Shift=    0.000
 RMSDP=6.93D-04 MaxDP=4.46D-02 DE=-1.88D-01 OVMax= 8.74D-02

 Cycle   4  Pass 1  IDiag  1:
 RMSU=  6.71D-04    CP:  9.68D-01  2.29D+00  8.80D-01
 E= -496.744470643522     Delta-E=       -0.005399659600 Rises=F Damp=F
 DIIS: error= 2.45D-03 at cycle   4 NSaved=   4.
 NSaved= 4 IEnMin= 4 EnMin= -496.744470643522     IErMin= 4 ErrMin= 2.45D-03
 ErrMax= 2.45D-03  0.00D+00 EMaxC= 1.00D-01 BMatC= 1.05D-02 BMatP= 2.69D-02
 IDIUse=3 WtCom= 9.75D-01 WtEn= 2.45D-02
 Coeff-Com: -0.595D-02 0.371D-01 0.378D+00 0.591D+00
 Coeff-En:   0.000D+00 0.000D+00 0.234D+00 0.766D+00
 Coeff:     -0.580D-02 0.362D-01 0.375D+00 0.595D+00
 Gap=     0.146 Goal=   None    Shift=    0.000
 Gap=     0.080 Goal=   None    Shift=    0.000
 RMSDP=3.09D-04 MaxDP=9.73D-03 DE=-5.40D-03 OVMax= 3.24D-02

 Cycle   5  Pass 1  IDiag  1:
 RMSU=  2.03D-04    CP:  9.67D-01  2.31D+00  9.99D-01  7.71D-01
 E= -496.747515158915     Delta-E=       -0.003044515393 Rises=F Damp=F
 DIIS: error= 6.34D-04 at cycle   5 NSaved=   5.
 NSaved= 5 IEnMin= 5 EnMin= -496.747515158915     IErMin= 5 ErrMin= 6.34D-04
 ErrMax= 6.34D-04  0.00D+00 EMaxC= 1.00D-01 BMatC= 4.70D-04 BMatP= 1.05D-02
 IDIUse=3 WtCom= 9.94D-01 WtEn= 6.34D-03
 Coeff-Com:  0.194D-01-0.341D-01 0.698D-01 0.201D+00 0.744D+00
 Coeff-En:   0.000D+00 0.000D+00 0.000D+00 0.000D+00 0.100D+01
 Coeff:      0.193D-01-0.339D-01 0.694D-01 0.199D+00 0.746D+00
 Gap=     0.148 Goal=   None    Shift=    0.000
 Gap=     0.083 Goal=   None    Shift=    0.000
 RMSDP=1.06D-04 MaxDP=2.93D-03 DE=-3.04D-03 OVMax= 1.49D-02

 Cycle   6  Pass 1  IDiag  1:
 RMSU=  7.31D-05    CP:  9.66D-01  2.32D+00  1.02D+00  8.72D-01  1.02D+00
 E= -496.747705707837     Delta-E=       -0.000190548922 Rises=F Damp=F
 DIIS: error= 5.16D-04 at cycle   6 NSaved=   6.
 NSaved= 6 IEnMin= 6 EnMin= -496.747705707837     IErMin= 6 ErrMin= 5.16D-04
 ErrMax= 5.16D-04  0.00D+00 EMaxC= 1.00D-01 BMatC= 2.13D-04 BMatP= 4.70D-04
 IDIUse=3 WtCom= 9.95D-01 WtEn= 5.16D-03
 Coeff-Com:  0.100D-01-0.213D-01-0.276D-01-0.171D-02 0.418D+00 0.623D+00
 Coeff-En:   0.000D+00 0.000D+00 0.000D+00 0.000D+00 0.000D+00 0.100D+01
 Coeff:      0.998D-02-0.212D-01-0.275D-01-0.170D-02 0.415D+00 0.625D+00
 Gap=     0.148 Goal=   None    Shift=    0.000
 Gap=     0.085 Goal=   None    Shift=    0.000
 RMSDP=5.42D-05 MaxDP=2.92D-03 DE=-1.91D-04 OVMax= 6.29D-03

 Cycle   7  Pass 1  IDiag  1:
 RMSU=  3.74D-05    CP:  9.66D-01  2.32D+00  1.03D+00  8.95D-01  1.18D+00
                    CP:  8.46D-01
 E= -496.747789222785     Delta-E=       -0.000083514948 Rises=F Damp=F
 DIIS: error= 2.47D-04 at cycle   7 NSaved=   7.
 NSaved= 7 IEnMin= 7 EnMin= -496.747789222785     IErMin= 7 ErrMin= 2.47D-04
 ErrMax= 2.47D-04  0.00D+00 EMaxC= 1.00D-01 BMatC= 3.34D-05 BMatP= 2.13D-04
 IDIUse=3 WtCom= 9.98D-01 WtEn= 2.47D-03
 Coeff-Com: -0.345D-02 0.528D-02-0.308D-01-0.704D-01-0.857D-01 0.256D+00
 Coeff-Com:  0.929D+00
 Coeff-En:   0.000D+00 0.000D+00 0.000D+00 0.000D+00 0.000D+00 0.000D+00
 Coeff-En:   0.100D+01
 Coeff:     -0.344D-02 0.527D-02-0.307D-01-0.703D-01-0.855D-01 0.255D+00
 Coeff:      0.930D+00
 Gap=     0.148 Goal=   None    Shift=    0.000
 Gap=     0.085 Goal=   None    Shift=    0.000
 RMSDP=3.34D-05 MaxDP=1.14D-03 DE=-8.35D-05 OVMax= 4.04D-03

 Cycle   8  Pass 1  IDiag  1:
 RMSU=  1.63D-05    CP:  9.66D-01  2.33D+00  1.03D+00  9.15D-01  1.25D+00
                    CP:  1.11D+00  1.13D+00
 E= -496.747811112543     Delta-E=       -0.000021889758 Rises=F Damp=F
 DIIS: error= 1.04D-04 at cycle   8 NSaved=   8.
 NSaved= 8 IEnMin= 8 EnMin= -496.747811112543     IErMin= 8 ErrMin= 1.04D-04
 ErrMax= 1.04D-04  0.00D+00 EMaxC= 1.00D-01 BMatC= 4.74D-06 BMatP= 3.34D-05
 IDIUse=3 WtCom= 9.99D-01 WtEn= 1.04D-03
 Coeff-Com: -0.159D-02 0.295D-02-0.759D-02-0.255D-01-0.690D-01 0.377D-01
 Coeff-Com:  0.355D+00 0.709D+00
 Coeff-En:   0.000D+00 0.000D+00 0.000D+00 0.000D+00 0.000D+00 0.000D+00
 Coeff-En:   0.000D+00 0.100D+01
 Coeff:     -0.159D-02 0.294D-02-0.758D-02-0.254D-01-0.690D-01 0.376D-01
 Coeff:      0.354D+00 0.709D+00
 Gap=     0.148 Goal=   None    Shift=    0.000
 Gap=     0.085 Goal=   None    Shift=    0.000
 RMSDP=9.03D-06 MaxDP=4.03D-04 DE=-2.19D-05 OVMax= 1.34D-03

 Cycle   9  Pass 1  IDiag  1:
 RMSU=  6.77D-06    CP:  9.66D-01  2.33D+00  1.03D+00  9.14D-01  1.26D+00
                    CP:  1.14D+00  1.25D+00  1.08D+00
 E= -496.747813866877     Delta-E=       -0.000002754333 Rises=F Damp=F
 DIIS: error= 5.89D-05 at cycle   9 NSaved=   9.
 NSaved= 9 IEnMin= 9 EnMin= -496.747813866877     IErMin= 9 ErrMin= 5.89D-05
 ErrMax= 5.89D-05  0.00D+00 EMaxC= 1.00D-01 BMatC= 1.34D-06 BMatP= 4.74D-06
 IDIUse=1 WtCom= 1.00D+00 WtEn= 0.00D+00
 Coeff-Com:  0.376D-03-0.363D-03 0.652D-02 0.975D-02-0.852D-02-0.677D-01
 Coeff-Com: -0.139D+00 0.294D+00 0.905D+00
 Coeff:      0.376D-03-0.363D-03 0.652D-02 0.975D-02-0.852D-02-0.677D-01
 Coeff:     -0.139D+00 0.294D+00 0.905D+00
 Gap=     0.148 Goal=   None    Shift=    0.000
 Gap=     0.085 Goal=   None    Shift=    0.000
 RMSDP=7.46D-06 MaxDP=3.12D-04 DE=-2.75D-06 OVMax= 1.04D-03

 Cycle  10  Pass 1  IDiag  1:
 RMSU=  3.25D-06    CP:  9.66D-01  2.33D+00  1.03D+00  9.13D-01  1.26D+00
                    CP:  1.17D+00  1.33D+00  1.39D+00  1.30D+00
 E= -496.747815103103     Delta-E=       -0.000001236226 Rises=F Damp=F
 DIIS: error= 2.04D-05 at cycle  10 NSaved=  10.
 NSaved=10 IEnMin=10 EnMin= -496.747815103103     IErMin=10 ErrMin= 2.04D-05
 ErrMax= 2.04D-05  0.00D+00 EMaxC= 1.00D-01 BMatC= 3.30D-07 BMatP= 1.34D-06
 IDIUse=1 WtCom= 1.00D+00 WtEn= 0.00D+00
 Coeff-Com:  0.314D-03-0.447D-03 0.362D-02 0.705D-02 0.386D-02-0.337D-01
 Coeff-Com: -0.989D-01 0.438D-01 0.407D+00 0.667D+00
 Coeff:      0.314D-03-0.447D-03 0.362D-02 0.705D-02 0.386D-02-0.337D-01
 Coeff:     -0.989D-01 0.438D-01 0.407D+00 0.667D+00
 Gap=     0.148 Goal=   None    Shift=    0.000
 Gap=     0.085 Goal=   None    Shift=    0.000
 RMSDP=2.71D-06 MaxDP=9.57D-05 DE=-1.24D-06 OVMax= 3.42D-04

 Cycle  11  Pass 1  IDiag  1:
 RMSU=  1.67D-06    CP:  9.66D-01  2.33D+00  1.03D+00  9.12D-01  1.26D+00
                    CP:  1.17D+00  1.34D+00  1.47D+00  1.49D+00  1.13D+00
 E= -496.747815324465     Delta-E=       -0.000000221362 Rises=F Damp=F
 DIIS: error= 1.23D-05 at cycle  11 NSaved=  11.
 NSaved=11 IEnMin=11 EnMin= -496.747815324465     IErMin=11 ErrMin= 1.23D-05
 ErrMax= 1.23D-05  0.00D+00 EMaxC= 1.00D-01 BMatC= 1.22D-07 BMatP= 3.30D-07
 IDIUse=1 WtCom= 1.00D+00 WtEn= 0.00D+00
 Coeff-Com: -0.295D-04-0.862D-04-0.121D-02-0.684D-03 0.505D-02 0.108D-01
 Coeff-Com:  0.113D-01-0.122D+00-0.211D+00 0.379D+00 0.928D+00
 Coeff:     -0.295D-04-0.862D-04-0.121D-02-0.684D-03 0.505D-02 0.108D-01
 Coeff:      0.113D-01-0.122D+00-0.211D+00 0.379D+00 0.928D+00
 Gap=     0.148 Goal=   None    Shift=    0.000
 Gap=     0.085 Goal=   None    Shift=    0.000
 RMSDP=2.78D-06 MaxDP=8.60D-05 DE=-2.21D-07 OVMax= 3.56D-04

 Cycle  12  Pass 1  IDiag  1:
 RMSU=  8.60D-07    CP:  9.66D-01  2.33D+00  1.03D+00  9.12D-01  1.26D+00
                    CP:  1.18D+00  1.36D+00  1.56D+00  1.70D+00  1.58D+00
                    CP:  1.25D+00
 E= -496.747815453272     Delta-E=       -0.000000128807 Rises=F Damp=F
 DIIS: error= 4.77D-06 at cycle  12 NSaved=  12.
 NSaved=12 IEnMin=12 EnMin= -496.747815453272     IErMin=12 ErrMin= 4.77D-06
 ErrMax= 4.77D-06  0.00D+00 EMaxC= 1.00D-01 BMatC= 1.85D-08 BMatP= 1.22D-07
 IDIUse=1 WtCom= 1.00D+00 WtEn= 0.00D+00
 Coeff-Com: -0.119D-03 0.134D-03-0.116D-02-0.161D-02 0.630D-03 0.970D-02
 Coeff-Com:  0.260D-01-0.491D-01-0.146D+00-0.117D-01 0.328D+00 0.845D+00
 Coeff:     -0.119D-03 0.134D-03-0.116D-02-0.161D-02 0.630D-03 0.970D-02
 Coeff:      0.260D-01-0.491D-01-0.146D+00-0.117D-01 0.328D+00 0.845D+00
 Gap=     0.148 Goal=   None    Shift=    0.000
 Gap=     0.085 Goal=   None    Shift=    0.000
 RMSDP=9.80D-07 MaxDP=3.68D-05 DE=-1.29D-07 OVMax= 1.25D-04

 Cycle  13  Pass 1  IDiag  1:
 RMSU=  3.60D-07    CP:  9.66D-01  2.33D+00  1.03D+00  9.11D-01  1.26D+00
                    CP:  1.18D+00  1.36D+00  1.58D+00  1.76D+00  1.74D+00
                    CP:  1.51D+00  1.19D+00
 E= -496.747815468392     Delta-E=       -0.000000015120 Rises=F Damp=F
 DIIS: error= 2.50D-06 at cycle  13 NSaved=  13.
 NSaved=13 IEnMin=13 EnMin= -496.747815468392     IErMin=13 ErrMin= 2.50D-06
 ErrMax= 2.50D-06  0.00D+00 EMaxC= 1.00D-01 BMatC= 5.61D-09 BMatP= 1.85D-08
 IDIUse=1 WtCom= 1.00D+00 WtEn= 0.00D+00
 Coeff-Com: -0.651D-04 0.102D-03-0.353D-03-0.676D-03-0.811D-03 0.256D-02
 Coeff-Com:  0.118D-01 0.517D-03-0.308D-01-0.978D-01-0.273D-01 0.457D+00
 Coeff-Com:  0.686D+00
 Coeff:     -0.651D-04 0.102D-03-0.353D-03-0.676D-03-0.811D-03 0.256D-02
 Coeff:      0.118D-01 0.517D-03-0.308D-01-0.978D-01-0.273D-01 0.457D+00
 Coeff:      0.686D+00
 Gap=     0.148 Goal=   None    Shift=    0.000
 Gap=     0.085 Goal=   None    Shift=    0.000
 RMSDP=3.77D-07 MaxDP=1.49D-05 DE=-1.51D-08 OVMax= 5.11D-05

 Cycle  14  Pass 1  IDiag  1:
 RMSU=  1.60D-07    CP:  9.66D-01  2.33D+00  1.03D+00  9.11D-01  1.26D+00
                    CP:  1.18D+00  1.36D+00  1.58D+00  1.79D+00  1.79D+00
                    CP:  1.61D+00  1.37D+00  9.03D-01
 E= -496.747815471294     Delta-E=       -0.000000002902 Rises=F Damp=F
 DIIS: error= 5.76D-07 at cycle  14 NSaved=  14.
 NSaved=14 IEnMin=14 EnMin= -496.747815471294     IErMin=14 ErrMin= 5.76D-07
 ErrMax= 5.76D-07  0.00D+00 EMaxC= 1.00D-01 BMatC= 4.43D-10 BMatP= 5.61D-09
 IDIUse=1 WtCom= 1.00D+00 WtEn= 0.00D+00
 Coeff-Com:  0.633D-05-0.241D-05 0.109D-03 0.127D-03-0.234D-03-0.103D-02
 Coeff-Com: -0.150D-02 0.778D-02 0.156D-01-0.229D-01-0.566D-01-0.326D-01
 Coeff-Com:  0.187D+00 0.904D+00
 Coeff:      0.633D-05-0.241D-05 0.109D-03 0.127D-03-0.234D-03-0.103D-02
 Coeff:     -0.150D-02 0.778D-02 0.156D-01-0.229D-01-0.566D-01-0.326D-01
 Coeff:      0.187D+00 0.904D+00
 Gap=     0.148 Goal=   None    Shift=    0.000
 Gap=     0.085 Goal=   None    Shift=    0.000
 RMSDP=1.35D-07 MaxDP=5.56D-06 DE=-2.90D-09 OVMax= 1.73D-05

 Cycle  15  Pass 1  IDiag  1:
 RMSU=  6.31D-08    CP:  9.66D-01  2.33D+00  1.03D+00  9.11D-01  1.26D+00
                    CP:  1.18D+00  1.36D+00  1.58D+00  1.79D+00  1.81D+00
                    CP:  1.63D+00  1.44D+00  1.05D+00  1.10D+00
 E= -496.747815471548     Delta-E=       -0.000000000254 Rises=F Damp=F
 DIIS: error= 3.59D-07 at cycle  15 NSaved=  15.
 NSaved=15 IEnMin=15 EnMin= -496.747815471548     IErMin=15 ErrMin= 3.59D-07
 ErrMax= 3.59D-07  0.00D+00 EMaxC= 1.00D-01 BMatC= 1.69D-10 BMatP= 4.43D-10
 IDIUse=1 WtCom= 1.00D+00 WtEn= 0.00D+00
 Coeff-Com:  0.127D-04-0.154D-04 0.102D-03 0.147D-03-0.548D-04-0.928D-03
 Coeff-Com: -0.235D-02 0.452D-02 0.127D-01 0.948D-05-0.270D-01-0.770D-01
 Coeff-Com:  0.158D-01 0.497D+00 0.577D+00
 Coeff:      0.127D-04-0.154D-04 0.102D-03 0.147D-03-0.548D-04-0.928D-03
 Coeff:     -0.235D-02 0.452D-02 0.127D-01 0.948D-05-0.270D-01-0.770D-01
 Coeff:      0.158D-01 0.497D+00 0.577D+00
 Gap=     0.148 Goal=   None    Shift=    0.000
 Gap=     0.085 Goal=   None    Shift=    0.000
 RMSDP=3.94D-08 MaxDP=1.35D-06 DE=-2.54D-10 OVMax= 3.72D-06

 Cycle  16  Pass 1  IDiag  1:
 RMSU=  2.46D-08    CP:  9.66D-01  2.33D+00  1.03D+00  9.11D-01  1.26D+00
                    CP:  1.18D+00  1.36D+00  1.58D+00  1.79D+00  1.81D+00
                    CP:  1.64D+00  1.45D+00  1.08D+00  1.21D+00  8.20D-01
 E= -496.747815471593     Delta-E=       -0.000000000045 Rises=F Damp=F
 DIIS: error= 9.04D-08 at cycle  16 NSaved=  16.
 NSaved=16 IEnMin=16 EnMin= -496.747815471593     IErMin=16 ErrMin= 9.04D-08
 ErrMax= 9.04D-08  0.00D+00 EMaxC= 1.00D-01 BMatC= 1.35D-11 BMatP= 1.69D-10
 IDIUse=1 WtCom= 1.00D+00 WtEn= 0.00D+00
 Coeff-Com:  0.377D-05-0.571D-05 0.154D-04 0.280D-04 0.370D-04-0.116D-03
 Coeff-Com: -0.563D-03 0.465D-04 0.110D-02 0.518D-02 0.261D-02-0.229D-01
 Coeff-Com: -0.355D-01-0.636D-02 0.219D+00 0.838D+00
 Coeff:      0.377D-05-0.571D-05 0.154D-04 0.280D-04 0.370D-04-0.116D-03
 Coeff:     -0.563D-03 0.465D-04 0.110D-02 0.518D-02 0.261D-02-0.229D-01
 Coeff:     -0.355D-01-0.636D-02 0.219D+00 0.838D+00
 Gap=     0.148 Goal=   None    Shift=    0.000
 Gap=     0.085 Goal=   None    Shift=    0.000
 RMSDP=1.62D-08 MaxDP=4.40D-07 DE=-4.46D-11 OVMax= 2.12D-06

 Cycle  17  Pass 1  IDiag  1:
 RMSU=  7.60D-09    CP:  9.66D-01  2.33D+00  1.03D+00  9.11D-01  1.26D+00
                    CP:  1.18D+00  1.36D+00  1.58D+00  1.79D+00  1.81D+00
                    CP:  1.64D+00  1.46D+00  1.10D+00  1.26D+00  9.50D-01
                    CP:  9.16D-01
 E= -496.747815471603     Delta-E=       -0.000000000010 Rises=F Damp=F
 DIIS: error= 3.93D-08 at cycle  17 NSaved=  17.
 NSaved=17 IEnMin=17 EnMin= -496.747815471603     IErMin=17 ErrMin= 3.93D-08
 ErrMax= 3.93D-08  0.00D+00 EMaxC= 1.00D-01 BMatC= 1.40D-12 BMatP= 1.35D-11
 IDIUse=1 WtCom= 1.00D+00 WtEn= 0.00D+00
 Coeff-Com:  0.906D-06-0.159D-05 0.605D-06 0.374D-05 0.223D-04 0.960D-05
 Coeff-Com: -0.961D-04-0.261D-03-0.356D-03 0.209D-02 0.264D-02-0.390D-02
 Coeff-Com: -0.147D-01-0.353D-01 0.456D-01 0.330D+00 0.674D+00
 Coeff:      0.906D-06-0.159D-05 0.605D-06 0.374D-05 0.223D-04 0.960D-05
 Coeff:     -0.961D-04-0.261D-03-0.356D-03 0.209D-02 0.264D-02-0.390D-02
 Coeff:     -0.147D-01-0.353D-01 0.456D-01 0.330D+00 0.674D+00
 Gap=     0.148 Goal=   None    Shift=    0.000
 Gap=     0.085 Goal=   None    Shift=    0.000
 RMSDP=4.09D-09 MaxDP=1.57D-07 DE=-1.02D-11 OVMax= 3.68D-07

 Error on total polarization charges =  0.00814
 SCF Done:  E(UB3LYP) =  -496.747815472     A.U. after   17 cycles
            NFock= 17  Conv=0.41D-08     -V/T= 2.0096
 <Sx>= 0.0000 <Sy>= 0.0000 <Sz>= 0.0000 <S**2>= 0.9866 S= 0.6120
 <L.S>=  0.00000000000    
 KE= 4.920203630946D+02 PE=-2.334376159183D+03 EE= 7.565306294344D+02
 Annihilation of the first spin contaminant:
 S**2 before annihilation     0.9866,   after     0.1945
 Leave Link  502 at Fri Jun 14 19:38:35 2019, MaxMem=   104857600 cpu:             533.7 elap:              13.9
 (Enter /project/6004141/group/g16/g16/l801.exe)
 DoSCS=F DFT=T ScalE2(SS,OS)=  1.000000  1.000000
 Range of M.O.s used for correlation:     1   225
 NBasis=   225 NAE=    41 NBE=    41 NFC=     0 NFV=     0
 NROrb=    225 NOA=    41 NOB=    41 NVA=   184 NVB=   184

 **** Warning!!: The smallest beta delta epsilon is  0.85362601D-01

 Leave Link  801 at Fri Jun 14 19:38:36 2019, MaxMem=   104857600 cpu:               5.9 elap:               0.2
 (Enter /project/6004141/group/g16/g16/l1101.exe)
 Using compressed storage, NAtomX=    23.
 Will process     24 centers per pass.
 PrsmSu:  requested number of processors reduced to:  28 ShMem   1 Linda.
 PrsmSu:  requested number of processors reduced to:  26 ShMem   1 Linda.
 R6Disp: Adding Grimme-D3 dispersion energy 1st derivatives to the gradient.
 Leave Link 1101 at Fri Jun 14 19:38:37 2019, MaxMem=   104857600 cpu:              13.7 elap:               0.5
 (Enter /project/6004141/group/g16/g16/l1102.exe)
 Symmetrizing basis deriv contribution to polar:
 IMax=3 JMax=2 DiffMx= 0.00D+00
 Leave Link 1102 at Fri Jun 14 19:38:37 2019, MaxMem=   104857600 cpu:               4.2 elap:               0.1
 (Enter /project/6004141/group/g16/g16/l1110.exe)
 Forming Gx(P) for the SCF density, NAtomX=    23.
 Integral derivatives from FoFJK, PRISM(SPDF).
 Do as many integral derivatives as possible in FoFJK.
 G2DrvN: MDV=     104855808.
 G2DrvN: will do     2 centers at a time, making   12 passes.
 G2DrvN:  IPasSy=1 do centers    0 through    1.
 Calling FoFCou, ICntrl=  3107 FMM=F I1Cent=   0 AccDes= 0.00D+00.
 FoFJK:  IHMeth= 1 ICntrl=    3107 DoSepK=F KAlg= 0 I1Cent=           0 FoldK=F
 IRaf=         0 NMat=       1 IRICut=       1 DoRegI=T DoRafI=F ISym2E= 0 IDoP0=0 IntGTp=1.
 FoFCou: FMM=F IPFlag=           0 FMFlag=      100000 FMFlg1=           0
         NFxFlg=           0 DoJE=F BraDBF=F KetDBF=F FulRan=T
         wScrn=  0.000000 ICntrl=      3107 IOpCl=  1 I1Cent=           0 NGrid=           0
         NMat0=    1 NMatS0=      1 NMatT0=    0 NMatD0=    1 NMtDS0=    0 NMtDT0=    0
 Symmetry not used in FoFCou.
 CoulSu:  requested number of processors reduced to:  39 ShMem   1 Linda.
 G2DrvN:  IPasSy=1 do centers    2 through    3.
 Calling FoFCou, ICntrl=  3107 FMM=F I1Cent=   0 AccDes= 0.00D+00.
 CoulSu:  requested number of processors reduced to:  39 ShMem   1 Linda.
 G2DrvN:  IPasSy=1 do centers    4 through    5.
 Calling FoFCou, ICntrl=  3107 FMM=F I1Cent=   0 AccDes= 0.00D+00.
 CoulSu:  requested number of processors reduced to:  39 ShMem   1 Linda.
 G2DrvN:  IPasSy=1 do centers    6 through    7.
 Calling FoFCou, ICntrl=  3107 FMM=F I1Cent=   0 AccDes= 0.00D+00.
 CoulSu:  requested number of processors reduced to:  39 ShMem   1 Linda.
 G2DrvN:  IPasSy=1 do centers    8 through    9.
 Calling FoFCou, ICntrl=  3107 FMM=F I1Cent=   0 AccDes= 0.00D+00.
 CoulSu:  requested number of processors reduced to:  39 ShMem   1 Linda.
 G2DrvN:  IPasSy=1 do centers   10 through   11.
 Calling FoFCou, ICntrl=  3107 FMM=F I1Cent=   0 AccDes= 0.00D+00.
 CoulSu:  requested number of processors reduced to:  39 ShMem   1 Linda.
 G2DrvN:  IPasSy=1 do centers   12 through   13.
 Calling FoFCou, ICntrl=  3107 FMM=F I1Cent=   0 AccDes= 0.00D+00.
 CoulSu:  requested number of processors reduced to:  39 ShMem   1 Linda.
 G2DrvN:  IPasSy=1 do centers   14 through   15.
 Calling FoFCou, ICntrl=  3107 FMM=F I1Cent=   0 AccDes= 0.00D+00.
 CoulSu:  requested number of processors reduced to:  39 ShMem   1 Linda.
 G2DrvN:  IPasSy=1 do centers   16 through   17.
 Calling FoFCou, ICntrl=  3107 FMM=F I1Cent=   0 AccDes= 0.00D+00.
 CoulSu:  requested number of processors reduced to:  39 ShMem   1 Linda.
 G2DrvN:  IPasSy=1 do centers   18 through   19.
 Calling FoFCou, ICntrl=  3107 FMM=F I1Cent=   0 AccDes= 0.00D+00.
 CoulSu:  requested number of processors reduced to:  39 ShMem   1 Linda.
 G2DrvN:  IPasSy=1 do centers   20 through   21.
 Calling FoFCou, ICntrl=  3107 FMM=F I1Cent=   0 AccDes= 0.00D+00.
 CoulSu:  requested number of processors reduced to:  39 ShMem   1 Linda.
 G2DrvN:  IPasSy=1 do centers   22 through   23.
 Calling FoFCou, ICntrl=  3107 FMM=F I1Cent=   0 AccDes= 0.00D+00.
 CoulSu:  requested number of processors reduced to:  39 ShMem   1 Linda.
 NEqPCM:  Using equilibrium solvation (IEInf=0, Eps=  35.6880, EpsInf=   1.8069)
 G2PCM: DoFxE=T DoFxN=T DoGrad=T DoDP/DQ/DG/TGxP=FFFF NFrqRd=   0 IEInf=0 SqF1=F DoCFld=F IF1Alg=4.
 GePol: Maximum number of non-zero 1st derivatives   =     222
 CoulSu:  requested number of processors reduced to:  30 ShMem   1 Linda.
 CoulSu:  requested number of processors reduced to:  29 ShMem   1 Linda.
 CoulSu:  requested number of processors reduced to:  30 ShMem   1 Linda.
 CoulSu:  requested number of processors reduced to:  33 ShMem   1 Linda.
 CoulSu:  requested number of processors reduced to:  22 ShMem   1 Linda.
 CoulSu:  requested number of processors reduced to:  30 ShMem   1 Linda.
 CoulSu:  requested number of processors reduced to:  34 ShMem   1 Linda.
 CoulSu:  requested number of processors reduced to:  23 ShMem   1 Linda.
 CoulSu:  requested number of processors reduced to:  32 ShMem   1 Linda.
 CoulSu:  requested number of processors reduced to:  28 ShMem   1 Linda.
 CoulSu:  requested number of processors reduced to:  29 ShMem   1 Linda.
 CoulSu:  requested number of processors reduced to:  28 ShMem   1 Linda.
 CoulSu:  requested number of processors reduced to:  29 ShMem   1 Linda.
 End of G2Drv F.D. properties file   721 does not exist.
 End of G2Drv F.D. properties file   722 does not exist.
 End of G2Drv F.D. properties file   788 does not exist.
 Leave Link 1110 at Fri Jun 14 19:39:08 2019, MaxMem=   104857600 cpu:            1181.8 elap:              30.1
 (Enter /project/6004141/group/g16/g16/l1002.exe)
 Minotr:  UHF open shell wavefunction.
          IDoAtm=11111111111111111111111
 NEqPCM:  Using equilibrium solvation (IEInf=0, Eps=  35.6880, EpsInf=   1.8069)
          Direct CPHF calculation.
          Differentiating once with respect to electric field.
                with respect to dipole field.
          Differentiating once with respect to nuclear coordinates.
          Requested convergence is 1.0D-08 RMS, and 1.0D-07 maximum.
          Secondary convergence is 1.0D-12 RMS, and 1.0D-12 maximum.
          NewPWx=T KeepS1=F KeepF1=F KeepIn=T MapXYZ=F SortEE=F KeepMc=T.
         6820 words used for storage of precomputed grid.
 Two-electron integrals replicated using symmetry.
          MDV=     104857600 using IRadAn=       1.
          Solving linear equations simultaneously, MaxMat=     360.
 FoF2E skips out because all densities are zero.
 CalDSu exits because no D1Ps are significant.
 FoFJK:  IHMeth= 1 ICntrl=       0 DoSepK=F KAlg= 0 I1Cent=           0 FoldK=F
 IRaf= 840000000 NMat=       9 IRICut=       1 DoRegI=T DoRafI=F ISym2E= 2 IDoP0=0 IntGTp=1.
          There are    72 degrees of freedom in the 1st order CPHF.  IDoFFX=6 NUNeed=     3.
     69 vectors produced by pass  0 Test12= 2.10D-14 1.39D-09 XBig12= 4.25D+02 1.12D+01.
 AX will form     9 AO Fock derivatives at one time.
     69 vectors produced by pass  1 Test12= 2.10D-14 1.39D-09 XBig12= 4.75D+01 1.16D+00.
     69 vectors produced by pass  2 Test12= 2.10D-14 1.39D-09 XBig12= 7.50D-01 1.62D-01.
     69 vectors produced by pass  3 Test12= 2.10D-14 1.39D-09 XBig12= 7.04D-03 1.03D-02.
     69 vectors produced by pass  4 Test12= 2.10D-14 1.39D-09 XBig12= 3.48D-05 1.00D-03.
     69 vectors produced by pass  5 Test12= 2.10D-14 1.39D-09 XBig12= 1.61D-07 3.70D-05.
     44 vectors produced by pass  6 Test12= 2.10D-14 1.39D-09 XBig12= 5.98D-10 1.94D-06.
      5 vectors produced by pass  7 Test12= 2.10D-14 1.39D-09 XBig12= 1.82D-12 1.51D-07.
      3 vectors produced by pass  8 Test12= 2.10D-14 1.39D-09 XBig12= 7.62D-15 9.27D-09.
 InvSVY:  IOpt=1 It=  1 EMax= 5.20D-15
 Solved reduced A of dimension   466 with    72 vectors.
 FullF1:  Do perturbations      1 to       3.
 Isotropic polarizability for W=    0.000000      149.46 Bohr**3.
 End of Minotr F.D. properties file   721 does not exist.
 End of Minotr F.D. properties file   722 does not exist.
 End of Minotr F.D. properties file   788 does not exist.
 Leave Link 1002 at Fri Jun 14 19:40:12 2019, MaxMem=   104857600 cpu:            2559.8 elap:              64.3
 (Enter /project/6004141/group/g16/g16/l601.exe)
 Copying SCF densities to generalized density rwf, IOpCl= 1 IROHF=0.

 **********************************************************************

            Population analysis using the SCF density.

 **********************************************************************

 Orbital symmetries:
 Alpha Orbitals:
       Occupied  (A) (A) (A) (A) (A) (A) (A) (A) (A) (A) (A) (A)
                 (A) (A) (A) (A) (A) (A) (A) (A) (A) (A) (A) (A)
                 (A) (A) (A) (A) (A) (A) (A) (A) (A) (A) (A) (A)
                 (A) (A) (A) (A) (A)
       Virtual   (A) (A) (A) (A) (A) (A) (A) (A) (A) (A) (A) (A)
                 (A) (A) (A) (A) (A) (A) (A) (A) (A) (A) (A) (A)
                 (A) (A) (A) (A) (A) (A) (A) (A) (A) (A) (A) (A)
                 (A) (A) (A) (A) (A) (A) (A) (A) (A) (A) (A) (A)
                 (A) (A) (A) (A) (A) (A) (A) (A) (A) (A) (A) (A)
                 (A) (A) (A) (A) (A) (A) (A) (A) (A) (A) (A) (A)
                 (A) (A) (A) (A) (A) (A) (A) (A) (A) (A) (A) (A)
                 (A) (A) (A) (A) (A) (A) (A) (A) (A) (A) (A) (A)
                 (A) (A) (A) (A) (A) (A) (A) (A) (A) (A) (A) (A)
                 (A) (A) (A) (A) (A) (A) (A) (A) (A) (A) (A) (A)
                 (A) (A) (A) (A) (A) (A) (A) (A) (A) (A) (A) (A)
                 (A) (A) (A) (A) (A) (A) (A) (A) (A) (A) (A) (A)
                 (A) (A) (A) (A) (A) (A) (A) (A) (A) (A) (A) (A)
                 (A) (A) (A) (A) (A) (A) (A) (A) (A) (A) (A) (A)
                 (A) (A) (A) (A) (A) (A) (A) (A) (A) (A) (A) (A)
                 (A) (A) (A) (A)
 Beta  Orbitals:
       Occupied  (A) (A) (A) (A) (A) (A) (A) (A) (A) (A) (A) (A)
                 (A) (A) (A) (A) (A) (A) (A) (A) (A) (A) (A) (A)
                 (A) (A) (A) (A) (A) (A) (A) (A) (A) (A) (A) (A)
                 (A) (A) (A) (A) (A)
       Virtual   (A) (A) (A) (A) (A) (A) (A) (A) (A) (A) (A) (A)
                 (A) (A) (A) (A) (A) (A) (A) (A) (A) (A) (A) (A)
                 (A) (A) (A) (A) (A) (A) (A) (A) (A) (A) (A) (A)
                 (A) (A) (A) (A) (A) (A) (A) (A) (A) (A) (A) (A)
                 (A) (A) (A) (A) (A) (A) (A) (A) (A) (A) (A) (A)
                 (A) (A) (A) (A) (A) (A) (A) (A) (A) (A) (A) (A)
                 (A) (A) (A) (A) (A) (A) (A) (A) (A) (A) (A) (A)
                 (A) (A) (A) (A) (A) (A) (A) (A) (A) (A) (A) (A)
                 (A) (A) (A) (A) (A) (A) (A) (A) (A) (A) (A) (A)
                 (A) (A) (A) (A) (A) (A) (A) (A) (A) (A) (A) (A)
                 (A) (A) (A) (A) (A) (A) (A) (A) (A) (A) (A) (A)
                 (A) (A) (A) (A) (A) (A) (A) (A) (A) (A) (A) (A)
                 (A) (A) (A) (A) (A) (A) (A) (A) (A) (A) (A) (A)
                 (A) (A) (A) (A) (A) (A) (A) (A) (A) (A) (A) (A)
                 (A) (A) (A) (A) (A) (A) (A) (A) (A) (A) (A) (A)
                 (A) (A) (A) (A)
 The electronic state is 1-A.
 Alpha  occ. eigenvalues --  -19.14718 -14.39586 -14.36288 -10.22805 -10.19025
 Alpha  occ. eigenvalues --  -10.18466 -10.18426 -10.18045 -10.17952 -10.17944
 Alpha  occ. eigenvalues --  -10.17731  -1.02528  -0.99607  -0.84181  -0.76294
 Alpha  occ. eigenvalues --   -0.75074  -0.73540  -0.71659  -0.62144  -0.59136
 Alpha  occ. eigenvalues --   -0.57141  -0.55502  -0.52753  -0.48777  -0.47382
 Alpha  occ. eigenvalues --   -0.44842  -0.43352  -0.42190  -0.41326  -0.40359
 Alpha  occ. eigenvalues --   -0.40113  -0.38235  -0.37049  -0.35292  -0.34348
 Alpha  occ. eigenvalues --   -0.32824  -0.31786  -0.29694  -0.24575  -0.24352
 Alpha  occ. eigenvalues --   -0.20014
 Alpha virt. eigenvalues --   -0.05209   0.00982   0.05621   0.07404   0.09721
 Alpha virt. eigenvalues --    0.11140   0.12953   0.14267   0.14927   0.16459
 Alpha virt. eigenvalues --    0.17403   0.18061   0.18992   0.19798   0.21106
 Alpha virt. eigenvalues --    0.24601   0.24677   0.26161   0.28558   0.28910
 Alpha virt. eigenvalues --    0.31174   0.34590   0.38457   0.42510   0.47570
 Alpha virt. eigenvalues --    0.51711   0.52145   0.53550   0.55451   0.55863
 Alpha virt. eigenvalues --    0.56726   0.57873   0.59725   0.60465   0.61187
 Alpha virt. eigenvalues --    0.62028   0.62303   0.62720   0.63663   0.64905
 Alpha virt. eigenvalues --    0.65138   0.67266   0.68401   0.69128   0.69865
 Alpha virt. eigenvalues --    0.72584   0.74569   0.76555   0.78110   0.81628
 Alpha virt. eigenvalues --    0.82305   0.82992   0.83141   0.84067   0.85945
 Alpha virt. eigenvalues --    0.86578   0.88461   0.89612   0.90398   0.91444
 Alpha virt. eigenvalues --    0.93896   0.94509   0.95874   0.98630   1.00735
 Alpha virt. eigenvalues --    1.01284   1.02499   1.03153   1.07974   1.09752
 Alpha virt. eigenvalues --    1.10954   1.15808   1.18575   1.21344   1.23444
 Alpha virt. eigenvalues --    1.26390   1.28894   1.29237   1.34676   1.34936
 Alpha virt. eigenvalues --    1.37159   1.40400   1.41334   1.42235   1.43622
 Alpha virt. eigenvalues --    1.44124   1.44825   1.47044   1.51079   1.56657
 Alpha virt. eigenvalues --    1.63153   1.70776   1.71772   1.76011   1.77022
 Alpha virt. eigenvalues --    1.77981   1.80704   1.84102   1.86288   1.86841
 Alpha virt. eigenvalues --    1.88168   1.89673   1.90678   1.93436   1.96176
 Alpha virt. eigenvalues --    1.97200   1.99355   2.01323   2.03916   2.05409
 Alpha virt. eigenvalues --    2.06533   2.07218   2.08395   2.09425   2.10227
 Alpha virt. eigenvalues --    2.15078   2.16690   2.20951   2.22537   2.26855
 Alpha virt. eigenvalues --    2.30130   2.30908   2.31776   2.34957   2.37438
 Alpha virt. eigenvalues --    2.38092   2.38748   2.39718   2.41390   2.43941
 Alpha virt. eigenvalues --    2.44782   2.45939   2.46599   2.48101   2.51208
 Alpha virt. eigenvalues --    2.51295   2.53312   2.56352   2.57698   2.59859
 Alpha virt. eigenvalues --    2.60662   2.61844   2.65404   2.66007   2.67064
 Alpha virt. eigenvalues --    2.70976   2.72606   2.74148   2.76731   2.77092
 Alpha virt. eigenvalues --    2.84300   2.84933   2.87468   2.89333   2.93089
 Alpha virt. eigenvalues --    2.95591   3.05712   3.07963   3.12956   3.19368
 Alpha virt. eigenvalues --    3.22096   3.24458   3.24764   3.26441   3.38081
 Alpha virt. eigenvalues --    3.40198   3.42728   3.45295   3.46453   3.47227
 Alpha virt. eigenvalues --    3.51269   3.53754   3.76236   3.89312   4.06903
 Alpha virt. eigenvalues --    4.11865   4.14016   4.17938   4.19254   4.32480
 Alpha virt. eigenvalues --    4.44161   4.45515   4.60910   4.85791
  Beta  occ. eigenvalues --  -19.14993 -14.38842 -14.34931 -10.23697 -10.18857
  Beta  occ. eigenvalues --  -10.18343 -10.18328 -10.18270 -10.18227 -10.18058
  Beta  occ. eigenvalues --  -10.17883  -1.03236  -0.97538  -0.84505  -0.77030
  Beta  occ. eigenvalues --   -0.73885  -0.72486  -0.71843  -0.63068  -0.59298
  Beta  occ. eigenvalues --   -0.57289  -0.55102  -0.52899  -0.47894  -0.47790
  Beta  occ. eigenvalues --   -0.45108  -0.43676  -0.43201  -0.41416  -0.40524
  Beta  occ. eigenvalues --   -0.38599  -0.37624  -0.36010  -0.34917  -0.33881
  Beta  occ. eigenvalues --   -0.32895  -0.32093  -0.29086  -0.25991  -0.25145
  Beta  occ. eigenvalues --   -0.14062
  Beta virt. eigenvalues --   -0.05526   0.00475   0.03138   0.07888   0.09763
  Beta virt. eigenvalues --    0.11424   0.12981   0.14282   0.14823   0.16091
  Beta virt. eigenvalues --    0.17376   0.17797   0.18520   0.19390   0.20935
  Beta virt. eigenvalues --    0.23616   0.24388   0.26861   0.28332   0.29164
  Beta virt. eigenvalues --    0.31177   0.34459   0.37943   0.42137   0.47249
  Beta virt. eigenvalues --    0.50933   0.52146   0.53173   0.54919   0.55540
  Beta virt. eigenvalues --    0.56500   0.57720   0.59493   0.60341   0.61052
  Beta virt. eigenvalues --    0.61798   0.62068   0.62652   0.63715   0.64481
  Beta virt. eigenvalues --    0.65707   0.68029   0.69130   0.69396   0.69841
  Beta virt. eigenvalues --    0.73771   0.74002   0.76482   0.77950   0.81682
  Beta virt. eigenvalues --    0.82211   0.82961   0.83363   0.84092   0.85975
  Beta virt. eigenvalues --    0.86412   0.88746   0.89772   0.90679   0.91551
  Beta virt. eigenvalues --    0.93978   0.94407   0.95844   0.98606   1.00414
  Beta virt. eigenvalues --    1.01048   1.02374   1.04172   1.07806   1.09629
  Beta virt. eigenvalues --    1.10846   1.15734   1.18388   1.20859   1.23841
  Beta virt. eigenvalues --    1.26071   1.28872   1.29945   1.34101   1.35357
  Beta virt. eigenvalues --    1.37116   1.40306   1.41294   1.42490   1.43281
  Beta virt. eigenvalues --    1.43708   1.44715   1.47930   1.51128   1.57948
  Beta virt. eigenvalues --    1.63030   1.71054   1.71185   1.75975   1.76792
  Beta virt. eigenvalues --    1.77868   1.80317   1.83746   1.85893   1.87405
  Beta virt. eigenvalues --    1.88204   1.89408   1.90638   1.93346   1.95159
  Beta virt. eigenvalues --    1.96874   1.98820   2.01015   2.03657   2.05688
  Beta virt. eigenvalues --    2.06785   2.07685   2.08261   2.09535   2.10193
  Beta virt. eigenvalues --    2.14330   2.16092   2.20862   2.23674   2.26378
  Beta virt. eigenvalues --    2.30018   2.30946   2.31596   2.34207   2.37426
  Beta virt. eigenvalues --    2.38385   2.39063   2.40120   2.41389   2.43960
  Beta virt. eigenvalues --    2.44752   2.45961   2.46298   2.48202   2.50850
  Beta virt. eigenvalues --    2.51192   2.53594   2.56051   2.57116   2.60088
  Beta virt. eigenvalues --    2.60539   2.62017   2.64955   2.66116   2.68464
  Beta virt. eigenvalues --    2.70680   2.72636   2.73825   2.76451   2.76753
  Beta virt. eigenvalues --    2.83944   2.84687   2.87099   2.89590   2.92980
  Beta virt. eigenvalues --    2.96044   3.05594   3.07686   3.12720   3.19130
  Beta virt. eigenvalues --    3.21812   3.24731   3.24960   3.26433   3.38925
  Beta virt. eigenvalues --    3.40031   3.42579   3.45069   3.46516   3.47567
  Beta virt. eigenvalues --    3.51311   3.53970   3.77511   3.89208   4.08479
  Beta virt. eigenvalues --    4.11465   4.13652   4.17845   4.18789   4.31764
  Beta virt. eigenvalues --    4.43997   4.45309   4.60235   4.85421
          Condensed to atoms (all electrons):
               1          2          3          4          5          6
     1  C    4.907338  -0.000021   0.282049   0.000155  -0.025269   0.002905
     2  H   -0.000021   0.419747  -0.000082  -0.025200   0.001065   0.341810
     3  O    0.282049  -0.000082   8.197494  -0.043524   0.255855   0.000983
     4  N    0.000155  -0.025200  -0.043524   6.964444   0.081930   0.201629
     5  H   -0.025269   0.001065   0.255855   0.081930   0.330044  -0.010677
     6  N    0.002905   0.341810   0.000983   0.201629  -0.010677   6.523933
     7  H   -0.000235  -0.031970   0.001750  -0.041890  -0.002195   0.351326
     8  H   -0.000387  -0.012222   0.001723   0.300653  -0.006515  -0.037204
     9  C    0.368752  -0.000002  -0.073081  -0.000228   0.004808  -0.000037
    10  H   -0.030187   0.000000   0.002244  -0.000004  -0.000037   0.000004
    11  H   -0.026483   0.000000   0.002910   0.000001  -0.000170   0.000001
    12  H   -0.031086   0.000001   0.001989   0.000053  -0.000051  -0.000027
    13  C    0.441113   0.000020  -0.049460   0.000145  -0.006324   0.000456
    14  C   -0.062319   0.000007  -0.003203  -0.000934   0.002878  -0.000361
    15  C   -0.051367   0.000002   0.003612   0.000025  -0.000065  -0.000090
    16  C    0.006451  -0.000013   0.000794  -0.000589  -0.000047  -0.000003
    17  H   -0.011757   0.000001   0.007993   0.002350   0.000873   0.000050
    18  C    0.005857  -0.000000  -0.000068   0.000002   0.000002  -0.000000
    19  H   -0.012420   0.000000   0.000026   0.000001   0.000001  -0.000000
    20  C    0.000584  -0.000000  -0.000010  -0.000019  -0.000008   0.000007
    21  H   -0.000183  -0.000000   0.000001  -0.000008   0.000003  -0.000001
    22  H   -0.000181  -0.000000   0.000000   0.000000  -0.000000  -0.000000
    23  H    0.000006   0.000000  -0.000000   0.000000  -0.000000  -0.000000
               7          8          9         10         11         12
     1  C   -0.000235  -0.000387   0.368752  -0.030187  -0.026483  -0.031086
     2  H   -0.031970  -0.012222  -0.000002   0.000000   0.000000   0.000001
     3  O    0.001750   0.001723  -0.073081   0.002244   0.002910   0.001989
     4  N   -0.041890   0.300653  -0.000228  -0.000004   0.000001   0.000053
     5  H   -0.002195  -0.006515   0.004808  -0.000037  -0.000170  -0.000051
     6  N    0.351326  -0.037204  -0.000037   0.000004   0.000001  -0.000027
     7  H    0.405118   0.006488   0.000004  -0.000002  -0.000000   0.000041
     8  H    0.006488   0.469730   0.000004  -0.000000  -0.000000   0.000002
     9  C    0.000004   0.000004   5.030554   0.368899   0.369555   0.365657
    10  H   -0.000002  -0.000000   0.368899   0.592017  -0.023407  -0.034777
    11  H   -0.000000  -0.000000   0.369555  -0.023407   0.589134  -0.033509
    12  H    0.000041   0.000002   0.365657  -0.034777  -0.033509   0.606703
    13  C   -0.000048  -0.000034  -0.065984   0.003049  -0.001964  -0.000756
    14  C    0.000011   0.004858   0.007438  -0.000086  -0.000168  -0.000124
    15  C    0.000001  -0.000011  -0.011804   0.000166   0.001937   0.001001
    16  C    0.000000   0.001216  -0.000161   0.000002  -0.000011   0.000004
    17  H   -0.000025  -0.001184   0.000226  -0.000002  -0.000011  -0.000011
    18  C    0.000000  -0.000000   0.000074  -0.000001   0.000190   0.000001
    19  H   -0.000000  -0.000001   0.005402  -0.000089   0.001679   0.000206
    20  C   -0.000000  -0.000037  -0.000004   0.000000  -0.000003  -0.000001
    21  H    0.000000   0.000087   0.000002  -0.000000   0.000000  -0.000000
    22  H   -0.000000  -0.000000   0.000004  -0.000000  -0.000003  -0.000000
    23  H   -0.000000  -0.000000  -0.000000  -0.000000  -0.000000   0.000000
              13         14         15         16         17         18
     1  C    0.441113  -0.062319  -0.051367   0.006451  -0.011757   0.005857
     2  H    0.000020   0.000007   0.000002  -0.000013   0.000001  -0.000000
     3  O   -0.049460  -0.003203   0.003612   0.000794   0.007993  -0.000068
     4  N    0.000145  -0.000934   0.000025  -0.000589   0.002350   0.000002
     5  H   -0.006324   0.002878  -0.000065  -0.000047   0.000873   0.000002
     6  N    0.000456  -0.000361  -0.000090  -0.000003   0.000050  -0.000000
     7  H   -0.000048   0.000011   0.000001   0.000000  -0.000025   0.000000
     8  H   -0.000034   0.004858  -0.000011   0.001216  -0.001184  -0.000000
     9  C   -0.065984   0.007438  -0.011804  -0.000161   0.000226   0.000074
    10  H    0.003049  -0.000086   0.000166   0.000002  -0.000002  -0.000001
    11  H   -0.001964  -0.000168   0.001937  -0.000011  -0.000011   0.000190
    12  H   -0.000756  -0.000124   0.001001   0.000004  -0.000011   0.000001
    13  C    4.804327   0.448539   0.478093  -0.020545  -0.050590  -0.017538
    14  C    0.448539   5.057065  -0.055145   0.508188   0.365785  -0.041493
    15  C    0.478093  -0.055145   4.999270  -0.038721   0.005719   0.532297
    16  C   -0.020545   0.508188  -0.038721   4.855661  -0.037488  -0.030919
    17  H   -0.050590   0.365785   0.005719  -0.037488   0.631501   0.000274
    18  C   -0.017538  -0.041493   0.532297  -0.030919   0.000274   4.842212
    19  H   -0.040830   0.005876   0.367993   0.000261  -0.000150  -0.042987
    20  C   -0.029995  -0.046191  -0.047628   0.531217   0.004892   0.528398
    21  H    0.003470  -0.037932   0.000849   0.368467  -0.006324   0.004571
    22  H    0.003475   0.000820  -0.037293   0.004599   0.000016   0.368381
    23  H    0.000610   0.004846   0.004806  -0.041298  -0.000178  -0.041472
              19         20         21         22         23
     1  C   -0.012420   0.000584  -0.000183  -0.000181   0.000006
     2  H    0.000000  -0.000000  -0.000000  -0.000000   0.000000
     3  O    0.000026  -0.000010   0.000001   0.000000  -0.000000
     4  N    0.000001  -0.000019  -0.000008   0.000000   0.000000
     5  H    0.000001  -0.000008   0.000003  -0.000000  -0.000000
     6  N   -0.000000   0.000007  -0.000001  -0.000000  -0.000000
     7  H   -0.000000  -0.000000   0.000000  -0.000000  -0.000000
     8  H   -0.000001  -0.000037   0.000087  -0.000000  -0.000000
     9  C    0.005402  -0.000004   0.000002   0.000004  -0.000000
    10  H   -0.000089   0.000000  -0.000000  -0.000000  -0.000000
    11  H    0.001679  -0.000003   0.000000  -0.000003  -0.000000
    12  H    0.000206  -0.000001  -0.000000  -0.000000   0.000000
    13  C   -0.040830  -0.029995   0.003470   0.003475   0.000610
    14  C    0.005876  -0.046191  -0.037932   0.000820   0.004846
    15  C    0.367993  -0.047628   0.000849  -0.037293   0.004806
    16  C    0.000261   0.531217   0.368467   0.004599  -0.041298
    17  H   -0.000150   0.004892  -0.006324   0.000016  -0.000178
    18  C   -0.042987   0.528398   0.004571   0.368381  -0.041472
    19  H    0.627631   0.004896   0.000016  -0.006461  -0.000178
    20  C    0.004896   4.885206  -0.041812  -0.042267   0.371155
    21  H    0.000016  -0.041812   0.623164  -0.000190  -0.005784
    22  H   -0.006461  -0.042267  -0.000190   0.623238  -0.005792
    23  H   -0.000178   0.371155  -0.005784  -0.005792   0.624599
          Atomic-Atomic Spin Densities.
               1          2          3          4          5          6
     1  C   -0.706740   0.000006   0.087302   0.000959   0.005698  -0.001224
     2  H    0.000006  -0.001000  -0.000002  -0.001625  -0.000118  -0.004927
     3  O    0.087302  -0.000002  -0.159785  -0.003393   0.002172   0.001358
     4  N    0.000959  -0.001625  -0.003393   0.880727  -0.008737  -0.188130
     5  H    0.005698  -0.000118   0.002172  -0.008737  -0.012251   0.000868
     6  N   -0.001224  -0.004927   0.001358  -0.188130   0.000868   0.519026
     7  H    0.000341   0.002775  -0.000319  -0.000852   0.000036  -0.003580
     8  H    0.000415   0.000548  -0.000171   0.000303   0.000096   0.001720
     9  C    0.000735   0.000000   0.000124   0.000013   0.000440  -0.000009
    10  H    0.010241   0.000000  -0.000014   0.000004   0.000160  -0.000003
    11  H    0.005037   0.000000   0.000032   0.000001   0.000017  -0.000001
    12  H    0.017880  -0.000000  -0.002564  -0.000015  -0.000230   0.000035
    13  C   -0.037859  -0.000009   0.003051  -0.001003  -0.000669   0.000128
    14  C    0.018648   0.000012  -0.002074   0.001755  -0.000566  -0.000165
    15  C    0.019020  -0.000001  -0.000289  -0.000069  -0.000107   0.000073
    16  C    0.000180  -0.000001   0.000001  -0.000092   0.000020   0.000041
    17  H    0.000784  -0.000003  -0.000739  -0.000913   0.000487   0.000024
    18  C    0.000187   0.000000  -0.000002   0.000005   0.000001  -0.000003
    19  H   -0.000095  -0.000000   0.000002   0.000000   0.000000  -0.000000
    20  C   -0.000319  -0.000000   0.000003  -0.000001   0.000005  -0.000003
    21  H    0.000003   0.000000  -0.000000   0.000004   0.000001  -0.000000
    22  H    0.000004   0.000000  -0.000000  -0.000000  -0.000000   0.000000
    23  H   -0.000000   0.000000   0.000000   0.000000  -0.000000  -0.000000
               7          8          9         10         11         12
     1  C    0.000341   0.000415   0.000735   0.010241   0.005037   0.017880
     2  H    0.002775   0.000548   0.000000   0.000000   0.000000  -0.000000
     3  O   -0.000319  -0.000171   0.000124  -0.000014   0.000032  -0.002564
     4  N   -0.000852   0.000303   0.000013   0.000004   0.000001  -0.000015
     5  H    0.000036   0.000096   0.000440   0.000160   0.000017  -0.000230
     6  N   -0.003580   0.001720  -0.000009  -0.000003  -0.000001   0.000035
     7  H   -0.005484  -0.000408   0.000004   0.000003   0.000000  -0.000034
     8  H   -0.000408  -0.024538   0.000002   0.000001   0.000000  -0.000003
     9  C    0.000004   0.000002   0.053513  -0.004630  -0.004786   0.003003
    10  H    0.000003   0.000001  -0.004630  -0.027631  -0.003529   0.012094
    11  H    0.000000   0.000000  -0.004786  -0.003529  -0.007902   0.006620
    12  H   -0.000034  -0.000003   0.003003   0.012094   0.006620  -0.074054
    13  C    0.000015   0.000034   0.001674   0.000345   0.000299   0.000261
    14  C   -0.000021  -0.002307  -0.000222  -0.000077  -0.000154   0.000062
    15  C   -0.000005  -0.000038   0.000025  -0.000041  -0.000638  -0.000946
    16  C   -0.000001   0.000043  -0.000007   0.000000   0.000000  -0.000001
    17  H    0.000003   0.000420  -0.000010  -0.000011  -0.000007   0.000011
    18  C    0.000000  -0.000002  -0.000000  -0.000001  -0.000034   0.000004
    19  H    0.000000   0.000000  -0.000073  -0.000003  -0.000102   0.000055
    20  C    0.000000   0.000047   0.000001   0.000000   0.000004   0.000001
    21  H    0.000000   0.000005  -0.000000  -0.000000  -0.000000   0.000000
    22  H   -0.000000  -0.000000   0.000000   0.000000   0.000001  -0.000000
    23  H    0.000000   0.000000   0.000000  -0.000000  -0.000000   0.000000
              13         14         15         16         17         18
     1  C   -0.037859   0.018648   0.019020   0.000180   0.000784   0.000187
     2  H   -0.000009   0.000012  -0.000001  -0.000001  -0.000003   0.000000
     3  O    0.003051  -0.002074  -0.000289   0.000001  -0.000739  -0.000002
     4  N   -0.001003   0.001755  -0.000069  -0.000092  -0.000913   0.000005
     5  H   -0.000669  -0.000566  -0.000107   0.000020   0.000487   0.000001
     6  N    0.000128  -0.000165   0.000073   0.000041   0.000024  -0.000003
     7  H    0.000015  -0.000021  -0.000005  -0.000001   0.000003   0.000000
     8  H    0.000034  -0.002307  -0.000038   0.000043   0.000420  -0.000002
     9  C    0.001674  -0.000222   0.000025  -0.000007  -0.000010  -0.000000
    10  H    0.000345  -0.000077  -0.000041   0.000000  -0.000011  -0.000001
    11  H    0.000299  -0.000154  -0.000638   0.000000  -0.000007  -0.000034
    12  H    0.000261   0.000062  -0.000946  -0.000001   0.000011   0.000004
    13  C    0.126691   0.026360   0.022053  -0.000642   0.000327  -0.000109
    14  C    0.026360  -0.262601  -0.006332  -0.006574  -0.000572  -0.001783
    15  C    0.022053  -0.006332  -0.249097  -0.001234   0.000072  -0.009683
    16  C   -0.000642  -0.006574  -0.001234   0.125604  -0.000362   0.000043
    17  H    0.000327  -0.000572   0.000072  -0.000362   0.010742  -0.000000
    18  C   -0.000109  -0.001783  -0.009683   0.000043  -0.000000   0.118529
    19  H   -0.000586   0.000003  -0.001150   0.000019  -0.000002  -0.000381
    20  C   -0.001993   0.012000   0.011640   0.005899  -0.000008   0.011047
    21  H    0.000009   0.000696   0.000008  -0.000560  -0.000085  -0.000006
    22  H   -0.000001   0.000017   0.000502  -0.000004   0.000000  -0.000452
    23  H    0.000036  -0.000021  -0.000002  -0.000061  -0.000004  -0.000096
              19         20         21         22         23
     1  C   -0.000095  -0.000319   0.000003   0.000004  -0.000000
     2  H   -0.000000  -0.000000   0.000000   0.000000   0.000000
     3  O    0.000002   0.000003  -0.000000  -0.000000   0.000000
     4  N    0.000000  -0.000001   0.000004  -0.000000   0.000000
     5  H    0.000000   0.000005   0.000001  -0.000000  -0.000000
     6  N   -0.000000  -0.000003  -0.000000   0.000000  -0.000000
     7  H    0.000000   0.000000   0.000000  -0.000000   0.000000
     8  H    0.000000   0.000047   0.000005  -0.000000   0.000000
     9  C   -0.000073   0.000001  -0.000000   0.000000   0.000000
    10  H   -0.000003   0.000000  -0.000000   0.000000  -0.000000
    11  H   -0.000102   0.000004  -0.000000   0.000001  -0.000000
    12  H    0.000055   0.000001   0.000000  -0.000000   0.000000
    13  C   -0.000586  -0.001993   0.000009  -0.000001   0.000036
    14  C    0.000003   0.012000   0.000696   0.000017  -0.000021
    15  C   -0.001150   0.011640   0.000008   0.000502  -0.000002
    16  C    0.000019   0.005899  -0.000560  -0.000004  -0.000061
    17  H   -0.000002  -0.000008  -0.000085   0.000000  -0.000004
    18  C   -0.000381   0.011047  -0.000006  -0.000452  -0.000096
    19  H    0.011912  -0.000023   0.000000  -0.000030  -0.000003
    20  C   -0.000023  -0.293995   0.000552   0.000528  -0.001645
    21  H    0.000000   0.000552  -0.005080   0.000000  -0.000074
    22  H   -0.000030   0.000528   0.000000  -0.004688  -0.000075
    23  H   -0.000003  -0.001645  -0.000074  -0.000075   0.013987
 Mulliken charges and spin densities:
               1          2
     1  C    0.236686  -0.578797
     2  H    0.306857  -0.004344
     3  O   -0.589997  -0.075310
     4  N   -0.438990   0.678941
     5  H    0.373899  -0.012676
     6  N   -0.374704   0.325228
     7  H    0.311627  -0.007526
     8  H    0.272835  -0.023832
     9  C   -0.370078   0.049798
    10  H    0.122211  -0.013093
    11  H    0.120322  -0.005142
    12  H    0.124684  -0.037820
    13  C    0.100772   0.138411
    14  C   -0.158354  -0.223918
    15  C   -0.153646  -0.216239
    16  C   -0.107065   0.122309
    17  H    0.088039   0.010151
    18  C   -0.107781   0.117262
    19  H    0.089128   0.009541
    20  C   -0.118382  -0.256262
    21  H    0.091605  -0.004528
    22  H    0.091654  -0.004198
    23  H    0.088679   0.012043
 Sum of Mulliken charges =  -0.00000  -0.00000
 Mulliken charges and spin densities with hydrogens summed into heavy atoms:
               1          2
     1  C    0.236686  -0.578797
     3  O   -0.216098  -0.087986
     4  N   -0.166155   0.655110
     6  N    0.243779   0.313358
     9  C   -0.002861  -0.006258
    13  C    0.100772   0.138411
    14  C   -0.070315  -0.213766
    15  C   -0.064518  -0.206698
    16  C   -0.015460   0.117781
    18  C   -0.016126   0.113065
    20  C   -0.029703  -0.244219
 APT charges:
               1
     1  C    0.573575
     2  H    0.224377
     3  O   -0.986354
     4  N   -0.322933
     5  H    0.533669
     6  N   -0.316228
     7  H    0.215767
     8  H    0.218405
     9  C    0.073066
    10  H   -0.022820
    11  H   -0.004926
    12  H   -0.074950
    13  C    0.138979
    14  C   -0.223187
    15  C   -0.149695
    16  C    0.139383
    17  H    0.047034
    18  C    0.133162
    19  H    0.025035
    20  C   -0.248947
    21  H    0.007955
    22  H    0.007484
    23  H    0.012149
 Sum of APT charges =  -0.00000
 APT charges with hydrogens summed into heavy atoms:
               1
     1  C    0.573575
     3  O   -0.452686
     4  N   -0.104528
     6  N    0.123916
     9  C   -0.029631
    13  C    0.138979
    14  C   -0.176153
    15  C   -0.124660
    16  C    0.147339
    18  C    0.140647
    20  C   -0.236798
 Electronic spatial extent (au):  <R**2>=           2024.8022
 Charge=             -0.0000 electrons
 Dipole moment (field-independent basis, Debye):
    X=              1.9452    Y=             -3.0298    Z=              3.8155  Tot=              5.2461
 Quadrupole moment (field-independent basis, Debye-Ang):
   XX=            -60.2080   YY=            -54.3261   ZZ=            -63.8652
   XY=             -5.6007   XZ=              8.6651   YZ=             -0.9111
 Traceless Quadrupole moment (field-independent basis, Debye-Ang):
   XX=             -0.7416   YY=              5.1403   ZZ=             -4.3987
   XY=             -5.6007   XZ=              8.6651   YZ=             -0.9111
 Octapole moment (field-independent basis, Debye-Ang**2):
  XXX=             36.1613  YYY=            -25.5786  ZZZ=             11.3949  XYY=             18.3173
  XXY=            -20.8588  XXZ=             38.9727  XZZ=             18.2292  YZZ=            -12.6542
  YYZ=             12.5852  XYZ=            -15.7258
 Hexadecapole moment (field-independent basis, Debye-Ang**3):
 XXXX=          -1352.0879 YYYY=           -810.3643 ZZZZ=           -278.2281 XXXY=            -29.6568
 XXXZ=             68.4915 YYYX=            -45.0043 YYYZ=            -30.3820 ZZZX=             29.9251
 ZZZY=            -20.1967 XXYY=           -363.0810 XXZZ=           -260.2225 YYZZ=           -170.9493
 XXYZ=            -29.8475 YYXZ=             37.1158 ZZXY=            -34.5868
 N-N= 5.890773511826D+02 E-N=-2.334376161630D+03  KE= 4.920203630946D+02
  Exact polarizability: 191.714  27.909 155.203 -14.834  20.282 101.456
 Approx polarizability: 213.525  38.377 174.241 -26.942  26.243 124.469
                          Isotropic Fermi Contact Couplings
        Atom                 a.u.       MegaHertz       Gauss      10(-4) cm-1
     1  C(13)             -0.06665     -37.46235     -13.36750     -12.49609
     2  H(1)              -0.00017      -0.37239      -0.13288      -0.12422
     3  O(17)             -0.03394      10.28781       3.67095       3.43164
     4  N(14)              0.09379      15.15122       5.40633       5.05390
     5  H(1)              -0.00530     -11.84649      -4.22712      -3.95156
     6  N(14)              0.09671      15.62404       5.57505       5.21162
     7  H(1)              -0.00237      -5.30697      -1.89366      -1.77022
     8  H(1)              -0.00932     -20.83143      -7.43317      -6.94862
     9  C(13)              0.01782      10.01841       3.57482       3.34178
    10  H(1)              -0.00612     -13.68806      -4.88424      -4.56585
    11  H(1)              -0.00251      -5.61418      -2.00328      -1.87269
    12  H(1)              -0.01720     -38.45211     -13.72067     -12.82624
    13  C(13)              0.02872      16.14105       5.75953       5.38408
    14  C(13)             -0.02372     -13.33151      -4.75701      -4.44691
    15  C(13)             -0.02509     -14.10038      -5.03137      -4.70338
    16  C(13)              0.01813      10.18951       3.63587       3.39885
    17  H(1)               0.00391       8.72969       3.11497       2.91191
    18  C(13)              0.01750       9.83878       3.51072       3.28186
    19  H(1)               0.00323       7.21662       2.57507       2.40721
    20  C(13)             -0.02768     -15.55836      -5.55161      -5.18971
    21  H(1)              -0.00149      -3.33883      -1.19138      -1.11371
    22  H(1)              -0.00134      -3.00310      -1.07158      -1.00173
    23  H(1)               0.00389       8.69078       3.10109       2.89893
 --------------------------------------------------------
       Center         ----  Spin Dipole Couplings  ----
                      3XX-RR        3YY-RR        3ZZ-RR
 --------------------------------------------------------
     1   Atom        0.252726      0.218946     -0.471672
     2   Atom       -0.022179      0.013353      0.008826
     3   Atom        0.143632      0.289265     -0.432897
     4   Atom        0.619359      0.038670     -0.658028
     5   Atom       -0.012733      0.004485      0.008248
     6   Atom        0.307619     -0.040389     -0.267230
     7   Atom        0.020223      0.008752     -0.028975
     8   Atom        0.023948      0.040202     -0.064150
     9   Atom        0.005081     -0.004869     -0.000212
[...]
 42396,-0.00126982,0.00059075,0.00029870,-0.00141162,-0.00001564,-0.000
 44942,-0.00045932,-0.00070153,-0.00026559,0.00115195,0.00018696,0.0002
 3688,-0.00015693,-0.00038249,-0.00004789,0.00026513,0.00068850,0.00394
 945,0.00047392,0.00021548,-0.00052631,0.00013374,-0.00038828,-0.000696
 15,0.00013569,0.00048289,-0.00201394,0.00155969,0.01561441,-0.20203274
 ,0.08579829,-0.12085364,0.49035579,-0.01253428,0.00419137,0.00925028,-
 0.00014789,0.00006109,-0.00003592,0.00042208,-0.00114067,-0.00271156,-
 0.00165562,-0.00034670,-0.00007562,0.00022336,-0.00100436,0.00063295,-
 0.00044643,0.00012570,-0.00162808,-0.00012350,-0.00028018,0.00003072,0
 .00019878,0.00072919,0.00019627,0.00310526,-0.00086848,0.00323182,0.00
 017526,0.00018540,-0.00004017,0.00002172,0.00051568,-0.00020017,0.0003
 7059,-0.00056965,-0.00032517,0.00838298,0.09562613,-0.12974518,-0.2089
 3885,-0.18954518,0.38452647,-0.04455676,0.01295431,0.02005236,0.000004
 52,0.00004794,-0.00006698,-0.00610290,-0.00338723,0.00503579,-0.000475
 83,-0.00086662,0.00023605,-0.00046578,0.00252651,0.00002311,0.00020849
 ,0.00000632,-0.00032994,-0.00006593,-0.00004257,0.00006924,0.00007970,
 -0.00013778,-0.00029021,0.00031828,-0.00214985,0.00146307,-0.00057086,
 -0.00026596,0.00002195,-0.00084115,0.00093610,0.00012660,0.00032282,0.
 00111535,-0.00152430,-0.16883601,-0.03039526,0.07697999,0.02977408,-0.
 03028159,0.00916792,0.56660608,0.00574930,0.01688122,-0.01212250,0.000
 02131,0.00000639,0.00001969,0.00767964,-0.00032826,0.00055563,0.000057
 45,0.00036628,0.00009328,-0.00007597,-0.00146532,-0.00038057,-0.000052
 12,0.00005595,-0.00010103,-0.00002566,-0.00003635,-0.00001442,0.000070
 80,0.00007281,0.00011759,0.00075424,-0.00059606,-0.00103617,0.00006148
 ,0.00002426,0.00034738,0.00098238,-0.00077020,-0.00082749,-0.00017958,
 0.00037972,0.00002502,-0.03686285,-0.12796701,0.06325178,-0.02587088,-
 0.00227002,0.02017224,-0.15065773,0.57242713,0.01648632,-0.01389200,-0
 .00010756,-0.00000049,-0.00001120,0.00002972,-0.00042609,0.00495324,0.
 00275458,-0.00001835,0.00024342,-0.00015404,0.00109325,0.00000545,-0.0
 0023425,-0.00014047,-0.00011678,0.00022269,0.00005595,0.00001497,-0.00
 000728,0.00001087,-0.00000881,0.00003130,-0.00130583,0.00015622,-0.001
 86106,0.00034745,0.00021807,-0.00007760,0.00069180,0.00003337,0.000304
 57,-0.00018487,-0.00040535,0.00048106,0.08830931,0.05611662,-0.1426818
 8,0.00296194,0.02449564,-0.01492575,-0.14456379,-0.22067517,0.35174942
 ,0.01248321,-0.01150425,0.00303733,0.00016837,-0.00007421,-0.00020398,
 -0.00160596,0.00101585,-0.00075948,0.00016045,0.00087308,-0.00291368,-
 0.00026259,0.00140126,0.00111683,-0.00023133,-0.00121522,0.00264811,0.
 00011009,0.00040556,-0.00016784,-0.00057277,-0.00053238,-0.00002313,0.
 00014739,0.00068117,-0.00012544,-0.00017559,-0.00043263,0.00002194,0.0
 0004600,-0.00058755,0.00013763,0.00024780,-0.00071443,0.00061542,-0.00
 326585,0.05410831,-0.03177289,-0.26547527,0.09455792,0.05688981,-0.040
 36822,0.01325013,0.01149182,0.55702900,-0.00327095,-0.00081023,0.00462
 189,-0.00007845,0.00006517,0.00006485,-0.00077119,0.00071055,-0.000181
 22,-0.00057500,-0.00052146,0.00121735,0.00066543,-0.00058256,-0.000128
 47,0.00012907,0.00047707,-0.00129507,-0.00005502,-0.00021609,0.0000608
 6,0.00047014,0.00049581,0.00007151,0.00109248,-0.00053379,-0.00025468,
 0.00007353,-0.00010426,0.00009655,-0.00001024,0.00028184,-0.00001734,0
 .00002483,0.00013770,-0.00011680,0.02650922,-0.02564757,0.00643917,0.1
 4197747,-0.17381675,0.00041859,0.00333344,-0.00362650,-0.00361135,-0.1
 2914001,0.57507544,-0.00222732,0.00889259,-0.00141122,-0.00003794,0.00
 005931,0.00014940,0.00165683,-0.00017917,0.00029354,-0.00016258,-0.000
 56745,0.00172737,0.00013274,-0.00121067,-0.00073315,0.00024116,0.00074
 648,-0.00128877,-0.00006014,-0.00021570,0.00008982,0.00017617,0.000206
 53,-0.00012613,-0.00083985,0.00041365,0.00075622,-0.00002273,0.0005496
 4,-0.00014346,-0.00008274,0.00012691,-0.00001828,-0.00013616,0.0001518
 9,-0.00008879,-0.01403373,-0.00881360,0.01926141,0.02253217,0.02763675
 ,-0.08984541,0.01772535,-0.00895378,-0.00943542,-0.15501855,-0.2330986
 2,0.37777601,-0.00119748,0.00064917,-0.00094491,0.00003426,-0.00002123
 ,0.00004137,-0.00144266,0.00047830,-0.00037279,-0.00135363,-0.00089669
 ,-0.00142451,-0.00203502,0.00148485,-0.00116944,-0.00026203,0.00008589
 ,0.00026196,0.00000125,0.00004180,-0.00004696,-0.00045949,-0.00021276,
 -0.00028066,0.00016179,-0.00018185,-0.00004739,0.00002039,-0.00007903,
 0.00002955,-0.00001554,-0.00002058,0.00001831,0.00000723,0.00001464,-0
 .00002708,0.00668149,0.00019103,-0.00294463,-0.18559697,-0.05342569,0.
 13663893,0.00106022,0.00198936,0.00092927,-0.01486339,-0.01005049,0.01
 768215,0.20108637,-0.00255048,-0.00079824,0.00069227,0.00001598,0.0000
 0220,-0.00004041,0.00031494,0.00032602,-0.00175972,-0.00102452,-0.0004
 8767,-0.00094125,0.00150766,0.00084864,0.00137576,-0.00005659,-0.00019
 796,0.00018847,0.00000652,0.00003821,0.00001214,-0.00052666,-0.0002769
 5,-0.00056504,0.00011535,-0.00011010,-0.00017799,0.00002460,-0.0000810
 5,0.00000830,0.00004534,0.00011525,-0.00000853,-0.00001122,0.00005160,
 -0.00004774,-0.01929651,-0.00407016,0.01615714,-0.05255913,-0.07823509
 ,0.06720529,0.00296702,-0.00299522,0.00362208,0.01181008,0.00872921,-0
 .01178538,0.05588836,0.07803323,0.00125968,0.00080750,-0.00183967,0.00
 009688,-0.00005180,0.00005372,-0.00089884,-0.00222404,0.00135149,0.000
 29294,-0.00015729,-0.00067378,-0.00202292,0.00142158,-0.00043885,0.000
 00076,-0.00013410,0.00083294,0.00004730,0.00018188,0.00001989,-0.00070
 283,-0.00106528,-0.00064468,-0.00017846,-0.00028037,-0.00010217,-0.000
 02307,0.00001046,0.00002603,0.00001686,-0.00008031,0.00000911,-0.00003
 920,0.00011159,-0.00010058,0.01182839,0.00206575,-0.00652918,0.1379477
 8,0.06775716,-0.16730141,-0.00071910,0.00399404,0.00220097,0.00017312,
 0.00209342,0.00117849,-0.14773582,-0.07400010,0.17023901,0.00639659,-0
 .01015101,0.00167676,-0.00005108,0.00000161,0.00006669,0.00177560,0.00
 418161,-0.00160962,-0.00004739,0.00015575,0.00056143,0.00096060,-0.001
 34488,0.00001264,0.00001666,0.00028091,-0.00050790,0.00000073,-0.00009
 238,0.00000356,0.00009638,0.00025595,0.00015247,-0.00001816,0.00105291
 ,-0.00045549,0.00040956,-0.00013622,-0.00003044,-0.00038272,0.00015516
 ,-0.00004867,-0.00010119,-0.00045609,0.00055015,-0.04821327,-0.0014363
 8,0.03128899,-0.02057589,0.01654655,-0.00438364,-0.27474873,0.14147823
 ,0.02929633,0.03681101,-0.02212912,-0.00198646,0.00018710,0.00074722,-
 0.00031924,0.61082369,-0.00945788,0.00805512,0.00536083,0.00007353,-0.
 00000779,-0.00012022,-0.00484735,-0.00394822,0.00253623,-0.00028041,-0
 .00034466,-0.00113033,-0.00078896,0.00215802,0.00029217,-0.00000131,-0
 .00046911,0.00102180,0.00002065,0.00015714,-0.00002939,-0.00012217,-0.
 00021651,-0.00017936,0.00033976,-0.00199649,0.00037503,-0.00005460,0.0
 0033727,-0.00005409,0.00067302,0.00051517,0.00013564,0.00016403,0.0003
 8924,-0.00073232,0.02528942,0.02820251,-0.02979917,0.02839907,-0.02901
 062,0.00190085,0.09177977,-0.17085873,0.02464481,-0.05742859,-0.007684
 47,0.04197727,0.00010724,-0.00112622,-0.00040387,-0.09556872,0.5205078
 4,0.00417056,0.00245363,-0.00130326,-0.00001912,0.00001373,0.00005305,
 0.00284780,0.00059402,-0.00009387,0.00020079,0.00015311,0.00068993,0.0
 0003942,-0.00094548,-0.00028302,0.00002064,0.00025793,-0.00058018,-0.0
 0002085,-0.00008284,0.00002426,0.00005613,0.00002401,0.00004679,-0.000
 02964,0.00071782,-0.00020781,0.00008741,-0.00019466,0.00005988,-0.0004
 1033,-0.00013547,-0.00007961,0.00001598,-0.00010832,0.00013823,0.01226
 442,-0.01433476,0.00873871,-0.01106633,0.00626232,-0.00418312,0.062594
 53,-0.00233275,-0.08939748,0.02211029,0.02209407,-0.02043162,-0.000344
 96,0.00012153,0.00003920,-0.20635589,-0.20499723,0.37883398,0.00003422
 ,-0.00107948,-0.00016175,0.00000206,-0.00000281,-0.00000440,0.00000172
 ,0.00013420,-0.00022738,0.00000226,0.00002476,-0.00008264,0.00001415,0
 .00001306,-0.00002009,-0.00000552,-0.00002107,0.00006099,0.00000317,0.
 00000933,-0.00000439,-0.00000678,0.00000660,0.00001977,-0.00143886,0.0
 0031666,0.00033805,0.00010634,-0.00001485,-0.00000582,-0.00071224,0.00
 105893,0.00067717,-0.00006648,0.00027790,-0.00005194,0.00705794,-0.019
 72261,0.01072917,-0.00262282,0.00056544,0.00412681,-0.05788372,0.02885
 052,-0.00678684,-0.00106496,0.00005978,0.00038964,0.00025714,-0.001177
 59,0.00066591,0.00122198,0.02316620,-0.01488452,0.05788276,0.00082830,
 -0.00109773,-0.00064989,-0.00001737,0.00000307,0.00000160,-0.00071224,
 -0.00009463,0.00000581,-0.00009027,-0.00011654,0.00009809,0.00007102,0
 .00020361,0.00002631,0.00003124,0.00003502,-0.00012793,-0.00000354,-0.
 00001987,0.00000947,0.00003246,0.00003410,0.00000398,0.00102817,-0.000
 71894,-0.00087124,0.00012409,0.00031018,-0.00013992,0.00168575,-0.0004
 6615,-0.00059541,-0.00027866,0.00000818,-0.00005421,0.00211631,-0.0050
 2088,0.00352161,-0.00083796,0.00210602,0.00222984,0.02873984,-0.250950
 18,0.13472258,-0.00030125,0.00039396,-0.00027271,0.00015203,-0.0003967
 3,0.00018012,-0.00011304,-0.01117781,0.00962271,-0.03581978,0.26601357
 ,-0.00109019,-0.00004080,-0.00119233,0.00000783,-0.00000477,-0.0000002
 3,0.00020950,-0.00024975,-0.00016345,0.00005005,0.00003002,-0.00006951
 ,-0.00015237,-0.00002985,0.00007450,0.00000566,-0.00001816,0.00007786,
 0.00000636,0.00001867,-0.00000284,-0.00003789,-0.00006161,-0.00000851,
 0.00080556,0.00050650,0.00047647,-0.00050472,-0.00022447,0.00002577,0.
 00029502,-0.00125352,-0.00022777,-0.00008601,-0.00005324,0.00000884,-0
 .00398231,0.01540976,-0.00607955,0.00471406,0.00158871,0.00134231,-0.0
 0728154,0.13529115,-0.12160054,0.00016593,-0.00036743,-0.00022978,-0.0
 0019365,0.00088066,-0.00037010,0.00157249,-0.00407996,0.00478901,0.004
 64800,-0.14663857,0.12098955,-0.00498710,0.00672125,-0.00095125,-0.000
 14138,0.00007926,0.00010235,-0.00099014,-0.00168391,0.00146715,-0.0003
 7712,-0.00079648,0.00234050,0.00036588,-0.00002714,-0.00064267,0.00035
 568,0.00080675,-0.00217935,-0.00011166,-0.00033059,0.00014898,0.000277
 75,0.00021284,-0.00008348,-0.00002433,-0.00087027,-0.00000867,-0.00006
 624,0.00030801,0.00002561,-0.00000305,0.00030100,-0.00009429,-0.000146
 33,0.00071564,-0.00057450,0.00282682,-0.01934478,0.00769782,-0.0510792
 8,0.02109110,0.01930397,0.01002695,0.02215919,-0.01677707,-0.20859950,
 -0.05612709,0.12288355,-0.00112818,0.00466581,0.00194819,-0.11519684,0
 .05802907,-0.00615683,-0.00267732,0.00448332,0.00292843,0.60944586,0.0
 0220174,-0.00497148,-0.00132549,-0.00001412,0.00000374,0.00009786,0.00
 359982,0.00350748,-0.00206469,0.00028776,0.00030656,0.00066392,0.00059
 684,-0.00194412,-0.00017923,-0.00001426,0.00034272,-0.00049709,-0.0000
 0125,-0.00008971,0.00000783,0.00008632,0.00019233,0.00017540,-0.000109
 75,0.00123942,-0.00021713,0.00028298,-0.00013995,-0.00001681,-0.000358
 59,-0.00001986,-0.00005123,-0.00011860,-0.00041106,0.00054242,-0.02010
 635,-0.01971958,0.01959206,-0.01772895,0.03817383,-0.01256857,0.060649
 08,-0.03530910,-0.00376523,-0.00220484,-0.12759346,0.04943992,0.005607
 27,0.00081522,0.00201591,0.00379411,-0.24350450,0.11899771,0.00355282,
 0.00240024,0.00173905,-0.15382049,0.52809552,0.00127659,-0.00096115,0.
 00088927,0.00012373,-0.00004726,-0.00012800,-0.00183427,-0.00141999,0.
 00054310,0.00017753,0.00030897,-0.00179790,-0.00067045,0.00144844,0.00
 048098,-0.00013547,-0.00072884,0.00174241,0.00007152,0.00027221,-0.000
 09385,-0.00022430,-0.00032625,-0.00008985,0.00008251,-0.00022788,0.000
 20155,-0.00017539,-0.00010962,-0.00000276,0.00023018,-0.00023259,0.000
 05241,0.00016816,-0.00013905,-0.00004185,0.00703677,0.01923360,-0.0251
 0951,0.04588637,-0.03264335,0.00581374,-0.04168164,0.01655591,0.020199
 81,0.08478782,0.07903066,-0.15921929,0.00111826,0.00184590,0.00446047,
 0.03036286,0.08881519,-0.13198112,0.00319902,0.00092137,0.00462584,-0.
 17392531,-0.18608178,0.33674242,0.00084236,0.00108106,-0.00068181,-0.0
 0000918,0.00000362,-0.00000102,-0.00015152,-0.00006824,0.00008602,-0.0
 0004639,-0.00005709,0.00005225,0.00009040,0.00008383,0.00002435,0.0000
 1605,0.00000899,-0.00005958,0.00000023,-0.00000777,0.00000530,0.000007
 12,0.00001367,-0.00000324,-0.00043419,0.00000963,-0.00003006,-0.000049
 15,0.00007920,-0.00003465,0.00003085,-0.00003747,-0.00000216,-0.000042
 35,0.00008651,-0.00003390,-0.00281877,0.00330382,0.00364198,0.00041296
 ,0.02335210,-0.01500648,-0.00086942,0.00001212,0.00032073,-0.05879215,
 0.03217320,-0.00935717,-0.00013928,-0.00140918,-0.00158833,-0.00224601
 ,0.00050980,0.00452343,-0.00001854,-0.00023672,-0.00046212,0.00691820,
 -0.02049420,0.01179801,0.05701030,-0.00081018,-0.00048842,0.00078684,0
 .00001642,-0.00000697,-0.00000349,0.00043248,0.00023659,-0.00014936,0.
 00007718,0.00014674,-0.00015274,-0.00014593,-0.00023773,0.00000979,-0.
 00002163,-0.00004004,0.00014379,0.00000202,0.00002118,-0.00001020,-0.0
 0005200,-0.00003897,0.00002508,0.00021647,0.00001020,-0.00028050,0.000
 03442,-0.00013602,0.00003135,-0.00003104,-0.00000759,0.00001319,0.0000
 1527,-0.00003952,0.00005702,0.00455668,0.00218370,0.00132365,-0.000438
 38,-0.01024566,0.00949227,0.00010334,0.00023653,-0.00047203,0.03314190
 ,-0.25097086,0.12969671,-0.00103188,-0.00054946,-0.00215512,-0.0007460
 9,0.00303747,0.00292744,-0.00024034,-0.00039445,-0.00038631,0.00269658
 ,-0.00502390,0.00389178,-0.03675253,0.26301550,0.00015595,0.00034351,0
 .00032093,-0.00001912,0.00000869,0.00000267,-0.00027572,-0.00011564,0.
 00020913,-0.00010045,-0.00006843,0.00015762,0.00007209,0.00001829,0.00
 000046,0.00002697,0.00005759,-0.00020215,-0.00000896,-0.00002992,0.000
 01086,0.00000168,0.00005272,0.00001000,-0.00009871,-0.00017964,-0.0003
 3318,-0.00002182,-0.00002896,0.00001095,0.00000665,-0.00001781,-0.0000
 0174,-0.00004666,0.00014311,-0.00005056,0.00357165,0.00154654,0.004784
 35,0.00063942,-0.00336988,0.00482174,0.00029760,-0.00064628,-0.0000827
 5,-0.00810599,0.13022717,-0.12222196,-0.00189771,-0.00205023,-0.002018
 14,0.00511719,0.00254106,0.00176579,-0.00047723,-0.00035596,-0.0006381
 7,-0.00522248,0.01621862,-0.00537143,0.00778665,-0.14347703,0.12070503
 ,0.00043274,-0.00098857,0.00083883,-0.00002080,0.00000750,0.00000485,-
 0.00093525,-0.00006197,0.00003147,-0.00009314,-0.00014308,0.00018816,0
 .00014039,0.00020656,0.00002922,0.00003372,0.00006004,-0.00020109,-0.0
 0000760,-0.00003094,0.00001487,0.00004085,0.00004277,-0.00001262,-0.00
 006552,-0.00006085,0.00001641,-0.00002723,0.00006537,-0.00000745,0.000
 00900,-0.00001431,0.00000325,-0.00003798,0.00005841,-0.00004339,-0.001
 32819,0.00562827,0.00144548,-0.00019580,0.00049013,-0.00048382,-0.0148
 2088,-0.01052290,0.01693459,0.00231214,0.00205854,0.00090352,-0.000213
 94,-0.00033634,-0.00023545,-0.19758647,-0.05906839,0.12920473,-0.00008
 199,-0.00098852,-0.00185462,0.00601187,0.00227872,-0.00329028,0.000220
 91,0.00018446,-0.00011519,0.20623671,0.00047435,0.00099534,-0.00022410
 ,-0.00000571,0.00000138,0.00000210,0.00017897,-0.00039400,-0.00017888,
 -0.00000983,-0.00001522,0.00004181,-0.00006511,-0.00002980,-0.00002077
 ,0.00000016,0.00001452,-0.00005582,-0.00000380,-0.00000744,0.00000165,
 0.00001094,0.00001674,0.00000327,0.00000752,-0.00002702,-0.00001454,0.
 00000982,0.00000064,0.00000219,-0.00000846,0.00000822,0.00000998,-0.00
 000209,0.00002261,-0.00002539,0.00444514,0.00025592,0.00259703,0.00059
 146,-0.00067407,-0.00010460,0.01310489,0.00883955,-0.01154128,0.003233
 28,-0.00281262,0.00417732,-0.00036283,-0.00011927,-0.00039992,-0.05970
 592,-0.08326481,0.06438887,-0.00129173,-0.00051163,-0.00204037,-0.0212
 7220,-0.00386939,0.01621453,-0.00108736,-0.00032818,0.00102510,0.06234
 250,0.08203337,0.00014995,0.00027714,0.00041018,0.00000976,-0.00000555
 ,-0.00000199,0.00027451,-0.00008682,-0.00053537,0.00006953,0.00008782,
 -0.00011581,-0.00010437,-0.00016022,0.00003698,-0.00002041,-0.00003023
 ,0.00010932,0.00000390,0.00001933,-0.00000736,-0.00003637,-0.00002531,
 0.00000988,0.00007074,0.00004261,0.00000069,0.00004455,-0.00003407,-0.
 00000591,-0.00002452,0.00001881,0.00002894,0.00001140,-0.00006744,0.00
 003781,0.00184022,0.00241812,0.00531193,-0.00043702,-0.00026360,0.0000
 7085,0.00108159,0.00199677,0.00071677,0.00038483,0.00476704,0.00288542
 ,-0.00026810,-0.00045094,-0.00061006,0.12953491,0.06439104,-0.15125242
 ,-0.00162630,-0.00231183,-0.00220966,0.01208073,0.00264329,-0.00579382
 ,0.00068794,0.00028957,-0.00031731,-0.14221008,-0.07198262,0.15282696,
 0.00013670,-0.00010204,-0.00028071,-0.00001924,0.00000371,-0.00000299,
 -0.00027708,-0.00001745,0.00001319,-0.00008490,-0.00007825,0.00004622,
 0.00014101,0.00012110,0.00004635,-0.00000081,0.00000749,-0.00009763,-0
 .00000254,-0.00001757,0.00000247,0.00005282,0.00006841,0.00001198,-0.0
 0007920,-0.00002188,0.00003953,-0.00004259,0.00003871,0.00000018,0.000
 02195,-0.00002473,-0.00001362,-0.00001882,0.00004691,-0.00002235,0.000
 24941,-0.00063073,-0.00011923,-0.00016249,-0.00156893,0.00469305,0.002
 20505,0.00113158,0.00127415,-0.01423788,0.01364042,-0.00035791,-0.0007
 8964,0.00083934,0.00018544,0.00046783,-0.00093320,0.00115234,-0.000004
 53,0.00010681,0.00023652,-0.25070055,0.13203395,0.03561778,0.00006758,
 -0.00120726,-0.00128581,-0.00002354,-0.00058401,-0.00151739,0.26310147
 ,-0.00034756,-0.00003507,-0.00028051,0.00000410,-0.00000656,-0.0000055
 6,0.00024894,0.00008524,-0.00014144,0.00005968,0.00007018,-0.00013607,
 -0.00002818,-0.00002787,0.00002992,-0.00002699,-0.00004612,0.00011325,
 0.00000424,0.00001708,-0.00000774,-0.00001566,-0.00001391,0.00000756,0
 .00000038,-0.00003182,-0.00001476,0.00001833,0.00000501,-0.00000162,0.
 00003189,0.00004534,0.00001252,-0.00000030,-0.00001615,0.00002859,-0.0
 0057293,-0.00048088,0.00011317,-0.00048682,0.00118805,0.00357475,-0.00
 007932,-0.00211690,0.00527271,-0.01034317,0.00855384,0.00102210,-0.000
 40691,0.00048452,0.00031279,0.02322984,-0.00974985,-0.00549740,0.00133
 408,-0.00054242,-0.00001572,0.13200315,-0.13248098,-0.00562076,-0.0005
 6700,-0.00038014,-0.00184263,-0.00120740,-0.00013485,-0.00153292,-0.14
 285237,0.13561425,-0.00024630,-0.00018139,-0.00036310,0.00000438,-0.00
 001025,-0.00000525,-0.00000961,-0.00017190,0.00009168,0.00009745,0.000
 05826,-0.00017299,-0.00011488,0.00012840,-0.00000796,-0.00003445,-0.00
 006592,0.00017072,0.00000771,0.00002814,-0.00000872,-0.00003626,-0.000
 04323,-0.00001815,0.00000882,0.00001077,0.00007187,-0.00005157,-0.0000
 1436,0.00000809,0.00001360,-0.00004742,-0.00001384,0.00001039,-0.00000
 274,0.00001470,0.00005155,0.00016796,-0.00093570,0.00400870,0.00391444
 ,0.00110042,0.00158235,0.00466967,0.00187473,0.01551008,-0.01213217,0.
 00107562,0.00097880,-0.00028222,0.00021730,-0.01449911,0.00753403,0.00
 461468,-0.00052123,0.00067417,0.00038229,0.03568862,-0.00536672,-0.046
 12262,-0.00166611,-0.00160172,-0.00156213,-0.00116138,-0.00187557,-0.0
 0159604,-0.03962155,0.00460977,0.04118440\\0.00000459,0.00000961,-0.00
 000716,0.00000538,-0.00000353,-0.00000356,-0.00000186,0.00000352,0.000
 00413,0.00001403,0.00000751,-0.00000207,-0.00001783,-0.00000812,-0.000
 01022,0.00000316,-0.00000532,0.00001630,0.00000399,-0.00000638,-0.0000
 0257,-0.00000825,-0.00000122,-0.00000180,-0.00000552,-0.00000365,-0.00
 000908,-0.00000079,-0.00000053,-0.00001080,-0.00000074,0.00000072,-0.0
 0000635,0.00000163,-0.00000083,-0.00000915,0.00000432,-0.00000412,-0.0
 0000003,0.00000723,0.00000258,0.00000725,-0.00000227,0.00000087,0.0000
 0086,-0.00000593,0.00000722,0.00000661,-0.00000864,0.00000104,-0.00000
 392,0.00000361,-0.00000475,0.00000475,0.00000201,-0.00000257,-0.000001
 71,-0.00000010,0.00000436,0.00000394,-0.00000084,0.00000319,0.00000876
 ,0.00000206,-0.00000048,0.00000563,0.00000078,0.00000089,0.00001018\\\
 @


 LENDING MONEY TO FRIENDS CAUSES THEM TO LOSE THEIR MEMORIES.

    --  PETER'S THEORY OF RECIPROCAL INHIBITION OF FISCAL RECALL
 Job cpu time:       0 days  1 hours 28 minutes 46.5 seconds.
 Elapsed time:       0 days  0 hours  2 minutes 17.4 seconds.
 File lengths (MBytes):  RWF=    323 Int=      0 D2E=      0 Chk=     12 Scr=      2
 Normal termination of Gaussian 16 at Fri Jun 14 19:40:40 2019.
