 Entering Gaussian System, Link 0=g16
 Initial command:
 /project/6004141/group/g16/g16/l1.exe "/scratch/rzk/Gau-26099.inp" -scrdir="/scratch/rzk/"
 Entering Link 1 = /project/6004141/group/g16/g16/l1.exe PID=     26101.
  
 Copyright (c) 1988,1990,1992,1993,1995,1998,2003,2009,2016,
            Gaussian, Inc.  All Rights Reserved.
  
 This is part of the Gaussian(R) 16 program.  It is based on
 the Gaussian(R) 09 system (copyright 2009, Gaussian, Inc.),
 the Gaussian(R) 03 system (copyright 2003, Gaussian, Inc.),
 the Gaussian(R) 98 system (copyright 1998, Gaussian, Inc.),
 the Gaussian(R) 94 system (copyright 1995, Gaussian, Inc.),
 the Gaussian 92(TM) system (copyright 1992, Gaussian, Inc.),
 the Gaussian 90(TM) system (copyright 1990, Gaussian, Inc.),
 the Gaussian 88(TM) system (copyright 1988, Gaussian, Inc.),
 the Gaussian 86(TM) system (copyright 1986, Carnegie Mellon
 University), and the Gaussian 82(TM) system (copyright 1983,
 Carnegie Mellon University). Gaussian is a federally registered
 trademark of Gaussian, Inc.
  
 This software contains proprietary and confidential information,
 including trade secrets, belonging to Gaussian, Inc.
  
 This software is provided under written license and may be
 used, copied, transmitted, or stored only in accord with that
 written license.
  
 The following legend is applicable only to US Government
 contracts under FAR:
  
                    RESTRICTED RIGHTS LEGEND
  
 Use, reproduction and disclosure by the US Government is
 subject to restrictions as set forth in subparagraphs (a)
 and (c) of the Commercial Computer Software - Restricted
 Rights clause in FAR 52.227-19.
  
 Gaussian, Inc.
 340 Quinnipiac St., Bldg. 40, Wallingford CT 06492
  
  
 ---------------------------------------------------------------
 Warning -- This program may not be used in any manner that
 competes with the business of Gaussian, Inc. or will provide
 assistance to any competitor of Gaussian, Inc.  The licensee
 of this program is prohibited from giving any competitor of
 Gaussian, Inc. access to this program.  By using this program,
 the user acknowledges that Gaussian, Inc. is engaged in the
 business of creating and licensing software in the field of
 computational chemistry and represents and warrants to the
 licensee that it is not a competitor of Gaussian, Inc. and that
 it will not use this program in any manner prohibited above.
 ---------------------------------------------------------------
  

 Cite this work as:
 Gaussian 16, Revision A.03,
 M. J. Frisch, G. W. Trucks, H. B. Schlegel, G. E. Scuseria, 
 M. A. Robb, J. R. Cheeseman, G. Scalmani, V. Barone, 
 G. A. Petersson, H. Nakatsuji, X. Li, M. Caricato, A. V. Marenich, 
 J. Bloino, B. G. Janesko, R. Gomperts, B. Mennucci, H. P. Hratchian, 
 J. V. Ortiz, A. F. Izmaylov, J. L. Sonnenberg, D. Williams-Young, 
 F. Ding, F. Lipparini, F. Egidi, J. Goings, B. Peng, A. Petrone, 
 T. Henderson, D. Ranasinghe, V. G. Zakrzewski, J. Gao, N. Rega, 
 G. Zheng, W. Liang, M. Hada, M. Ehara, K. Toyota, R. Fukuda, 
 J. Hasegawa, M. Ishida, T. Nakajima, Y. Honda, O. Kitao, H. Nakai, 
 T. Vreven, K. Throssell, J. A. Montgomery, Jr., J. E. Peralta, 
 F. Ogliaro, M. J. Bearpark, J. J. Heyd, E. N. Brothers, K. N. Kudin, 
 V. N. Staroverov, T. A. Keith, R. Kobayashi, J. Normand, 
 K. Raghavachari, A. P. Rendell, J. C. Burant, S. S. Iyengar, 
 J. Tomasi, M. Cossi, J. M. Millam, M. Klene, C. Adamo, R. Cammi, 
 J. W. Ochterski, R. L. Martin, K. Morokuma, O. Farkas, 
 J. B. Foresman, and D. J. Fox, Gaussian, Inc., Wallingford CT, 2016.
 
 ******************************************
 Gaussian 16:  ES64L-G16RevA.03 25-Dec-2016
                11-Jun-2019 
 ******************************************
 %NProcShared=40
 Will use up to   40 processors via shared memory.
 %chk=ABH.chk
 ----------------------------------------------------------------------
 #p opt ub3lyp/6-31g(d,p) scrf=(iefpcm,solvent=acetonitrile) guess=(mix
 ,always) empiricaldispersion=gd3
 ----------------------------------------------------------------------
 1/18=20,19=15,26=3,38=1/1,3;
 2/9=110,12=2,17=6,18=5,40=1/2;
 3/5=1,6=6,7=101,11=2,25=1,30=1,70=2201,71=1,72=2,74=-5,116=2,124=31/1,2,3;
 4/13=-1/1;
 5/5=2,38=5,53=2/2;
 6/7=2,8=2,9=2,10=2,28=1/1;
 7//1,2,3,16;
 1/18=20,19=15,26=3/3(2);
 2/9=110/2;
 99//99;
 2/9=110/2;
 3/5=1,6=6,7=101,11=2,25=1,30=1,70=2205,71=1,72=2,74=-5,116=2,124=31/1,2,3;
 4/13=-1/1;
 5/5=2,38=5,53=2/2;
 7//1,2,3,16;
 1/18=20,19=15,26=3/3(-5);
 2/9=110/2;
 6/7=2,8=2,9=2,10=2,19=2,28=1/1;
 99/9=1/99;
 Leave Link    1 at Tue Jun 11 14:17:15 2019, MaxMem=           0 cpu:              11.7 elap:               0.3
 (Enter /project/6004141/group/g16/g16/l101.exe)
 -------------------
 Title Card Required
 -------------------
 Symbolic Z-matrix:
 Charge =  0 Multiplicity = 1
 C                     0.27887   1.48331  -0.2383 
 H                     4.17412  -2.13347   0.88575 
 O                     1.53572   1.23568  -0.68192 
 N                     2.54476  -1.11726   0.17621 
 H                     1.85902   0.32157  -0.41574 
 N                     3.79522  -1.22104   0.6516 
 H                     4.45747  -0.57407   0.24229 
 H                     2.01248  -1.92836   0.49713 
 C                     0.04378   2.92246   0.10513 
 H                     0.67455   3.5506   -0.53196 
 H                    -0.99764   3.22159  -0.03751 
 H                     0.31589   3.14801   1.14725 
 C                    -0.70099   0.45882  -0.13814 
 C                    -0.49774  -0.83217  -0.71858 
 C                    -1.94205   0.67103   0.53867 
 C                    -1.45547  -1.82982  -0.60986 
 H                     0.40958  -1.02284  -1.28071 
 C                    -2.88881  -0.33844   0.63815 
 H                    -2.1411    1.63033   1.00514 
 C                    -2.66045  -1.60222   0.07222 
 H                    -1.27012  -2.79659  -1.07123 
 H                    -3.81753  -0.14452   1.16875 
 H                    -3.40514  -2.38755   0.15586 
 
 Add virtual bond connecting atoms H5         and N4         Dist= 3.21D+00.
 ITRead=  0  0  0  0  0  0  0  0  0  0  0  0  0  0  0  0  0  0  0  0
 ITRead=  0  0  0
 MicOpt= -1 -1 -1 -1 -1 -1 -1 -1 -1 -1 -1 -1 -1 -1 -1 -1 -1 -1 -1 -1
 MicOpt= -1 -1 -1
 NAtoms=     23 NQM=       23 NQMF=       0 NMMI=      0 NMMIF=      0
                NMic=       0 NMicF=      0.
                    Isotopes and Nuclear Properties:
 (Nuclear quadrupole moments (NQMom) in fm**2, nuclear magnetic moments (NMagM)
  in nuclear magnetons)

  Atom         1           2           3           4           5           6           7           8           9          10
 IAtWgt=          12           1          16          14           1          14           1           1          12           1
 AtmWgt=  12.0000000   1.0078250  15.9949146  14.0030740   1.0078250  14.0030740   1.0078250   1.0078250  12.0000000   1.0078250
 NucSpn=           0           1           0           2           1           2           1           1           0           1
 AtZEff=  -0.0000000  -0.0000000  -0.0000000  -0.0000000  -0.0000000  -0.0000000  -0.0000000  -0.0000000  -0.0000000  -0.0000000
 NQMom=    0.0000000   0.0000000   0.0000000   2.0440000   0.0000000   2.0440000   0.0000000   0.0000000   0.0000000   0.0000000
 NMagM=    0.0000000   2.7928460   0.0000000   0.4037610   2.7928460   0.4037610   2.7928460   2.7928460   0.0000000   2.7928460
 AtZNuc=   6.0000000   1.0000000   8.0000000   7.0000000   1.0000000   7.0000000   1.0000000   1.0000000   6.0000000   1.0000000

  Atom        11          12          13          14          15          16          17          18          19          20
 IAtWgt=           1           1          12          12          12          12           1          12           1          12
 AtmWgt=   1.0078250   1.0078250  12.0000000  12.0000000  12.0000000  12.0000000   1.0078250  12.0000000   1.0078250  12.0000000
 NucSpn=           1           1           0           0           0           0           1           0           1           0
 AtZEff=  -0.0000000  -0.0000000  -0.0000000  -0.0000000  -0.0000000  -0.0000000  -0.0000000  -0.0000000  -0.0000000  -0.0000000
 NQMom=    0.0000000   0.0000000   0.0000000   0.0000000   0.0000000   0.0000000   0.0000000   0.0000000   0.0000000   0.0000000
 NMagM=    2.7928460   2.7928460   0.0000000   0.0000000   0.0000000   0.0000000   2.7928460   0.0000000   2.7928460   0.0000000
 AtZNuc=   1.0000000   1.0000000   6.0000000   6.0000000   6.0000000   6.0000000   1.0000000   6.0000000   1.0000000   6.0000000

  Atom        21          22          23
 IAtWgt=           1           1           1
 AtmWgt=   1.0078250   1.0078250   1.0078250
 NucSpn=           1           1           1
 AtZEff=  -0.0000000  -0.0000000  -0.0000000
 NQMom=    0.0000000   0.0000000   0.0000000
 NMagM=    2.7928460   2.7928460   2.7928460
 AtZNuc=   1.0000000   1.0000000   1.0000000
 Leave Link  101 at Tue Jun 11 14:17:15 2019, MaxMem=   104857600 cpu:               7.1 elap:               0.2
 (Enter /project/6004141/group/g16/g16/l103.exe)

 GradGradGradGradGradGradGradGradGradGradGradGradGradGradGradGradGradGrad
 Berny optimization.
 Initialization pass.
                           ----------------------------
                           !    Initial Parameters    !
                           ! (Angstroms and Degrees)  !
 --------------------------                            --------------------------
 ! Name  Definition              Value          Derivative Info.                !
 --------------------------------------------------------------------------------
 ! R1    R(1,3)                  1.3557         estimate D2E/DX2                !
 ! R2    R(1,9)                  1.4981         estimate D2E/DX2                !
 ! R3    R(1,13)                 1.4212         estimate D2E/DX2                !
 ! R4    R(2,6)                  1.0153         estimate D2E/DX2                !
 ! R5    R(3,5)                  1.0055         estimate D2E/DX2                !
 ! R6    R(4,5)                  1.7003         estimate D2E/DX2                !
 ! R7    R(4,6)                  1.3418         estimate D2E/DX2                !
 ! R8    R(4,8)                  1.0219         estimate D2E/DX2                !
 ! R9    R(6,7)                  1.0123         estimate D2E/DX2                !
 ! R10   R(9,10)                 1.0947         estimate D2E/DX2                !
 ! R11   R(9,11)                 1.0929         estimate D2E/DX2                !
 ! R12   R(9,12)                 1.1004         estimate D2E/DX2                !
 ! R13   R(13,14)                1.43           estimate D2E/DX2                !
 ! R14   R(13,15)                1.4294         estimate D2E/DX2                !
 ! R15   R(14,16)                1.3872         estimate D2E/DX2                !
 ! R16   R(14,17)                1.0842         estimate D2E/DX2                !
 ! R17   R(15,18)                1.3875         estimate D2E/DX2                !
 ! R18   R(15,19)                1.0851         estimate D2E/DX2                !
 ! R19   R(16,20)                1.4032         estimate D2E/DX2                !
 ! R20   R(16,21)                1.0871         estimate D2E/DX2                !
 ! R21   R(18,20)                1.4034         estimate D2E/DX2                !
 ! R22   R(18,22)                1.087          estimate D2E/DX2                !
 ! R23   R(20,23)                1.0855         estimate D2E/DX2                !
 ! A1    A(3,1,9)              113.3272         estimate D2E/DX2                !
 ! A2    A(3,1,13)             122.0464         estimate D2E/DX2                !
 ! A3    A(9,1,13)             124.621          estimate D2E/DX2                !
 ! A4    A(1,3,5)              112.1816         estimate D2E/DX2                !
 ! A5    A(5,4,6)              124.3787         estimate D2E/DX2                !
 ! A6    A(5,4,8)              124.8172         estimate D2E/DX2                !
 ! A7    A(6,4,8)              108.2266         estimate D2E/DX2                !
 ! A8    A(2,6,4)              119.9323         estimate D2E/DX2                !
 ! A9    A(2,6,7)              115.0532         estimate D2E/DX2                !
 ! A10   A(4,6,7)              114.6457         estimate D2E/DX2                !
 ! A11   A(1,9,10)             109.1106         estimate D2E/DX2                !
 ! A12   A(1,9,11)             112.4917         estimate D2E/DX2                !
 ! A13   A(1,9,12)             112.0358         estimate D2E/DX2                !
 ! A14   A(10,9,11)            108.4254         estimate D2E/DX2                !
 ! A15   A(10,9,12)            106.9208         estimate D2E/DX2                !
 ! A16   A(11,9,12)            107.6464         estimate D2E/DX2                !
 ! A17   A(1,13,14)            121.6141         estimate D2E/DX2                !
 ! A18   A(1,13,15)            121.6655         estimate D2E/DX2                !
 ! A19   A(14,13,15)           116.7188         estimate D2E/DX2                !
 ! A20   A(13,14,16)           121.2871         estimate D2E/DX2                !
 ! A21   A(13,14,17)           119.2188         estimate D2E/DX2                !
 ! A22   A(16,14,17)           119.4658         estimate D2E/DX2                !
 ! A23   A(13,15,18)           121.2213         estimate D2E/DX2                !
 ! A24   A(13,15,19)           119.6064         estimate D2E/DX2                !
 ! A25   A(18,15,19)           119.1558         estimate D2E/DX2                !
 ! A26   A(14,16,20)           120.9511         estimate D2E/DX2                !
 ! A27   A(14,16,21)           119.2472         estimate D2E/DX2                !
 ! A28   A(20,16,21)           119.798          estimate D2E/DX2                !
 ! A29   A(15,18,20)           121.0107         estimate D2E/DX2                !
 ! A30   A(15,18,22)           119.2201         estimate D2E/DX2                !
 ! A31   A(20,18,22)           119.7682         estimate D2E/DX2                !
 ! A32   A(16,20,18)           118.8037         estimate D2E/DX2                !
 ! A33   A(16,20,23)           120.6121         estimate D2E/DX2                !
 ! A34   A(18,20,23)           120.5833         estimate D2E/DX2                !
 ! A35   L(3,5,4,14,-1)        186.3076         estimate D2E/DX2                !
 ! A36   L(3,5,4,14,-2)        184.2555         estimate D2E/DX2                !
 ! D1    D(9,1,3,5)            147.0615         estimate D2E/DX2                !
 ! D2    D(13,1,3,5)           -33.7427         estimate D2E/DX2                !
 ! D3    D(3,1,9,10)            30.2521         estimate D2E/DX2                !
 ! D4    D(3,1,9,11)           150.617          estimate D2E/DX2                !
 ! D5    D(3,1,9,12)           -87.9473         estimate D2E/DX2                !
 ! D6    D(13,1,9,10)         -148.9196         estimate D2E/DX2                !
 ! D7    D(13,1,9,11)          -28.5547         estimate D2E/DX2                !
 ! D8    D(13,1,9,12)           92.881          estimate D2E/DX2                !
 ! D9    D(3,1,13,14)          -11.3734         estimate D2E/DX2                !
 ! D10   D(3,1,13,15)          169.11           estimate D2E/DX2                !
 ! D11   D(9,1,13,14)          167.7293         estimate D2E/DX2                !
 ! D12   D(9,1,13,15)          -11.7873         estimate D2E/DX2                !
 ! D13   D(1,3,4,6)           -135.0199         estimate D2E/DX2                !
 ! D14   D(1,3,4,8)             22.1821         estimate D2E/DX2                !
 ! D15   D(5,4,6,2)           -172.7459         estimate D2E/DX2                !
 ! D16   D(5,4,6,7)            -29.4458         estimate D2E/DX2                !
 ! D17   D(8,4,6,2)             24.7686         estimate D2E/DX2                !
 ! D18   D(8,4,6,7)            168.0687         estimate D2E/DX2                !
 ! D19   D(1,13,14,16)         179.6118         estimate D2E/DX2                !
 ! D20   D(1,13,14,17)          -2.3348         estimate D2E/DX2                !
 ! D21   D(15,13,14,16)         -0.8489         estimate D2E/DX2                !
 ! D22   D(15,13,14,17)        177.2046         estimate D2E/DX2                !
 ! D23   D(1,13,15,18)        -179.5939         estimate D2E/DX2                !
 ! D24   D(1,13,15,19)          -1.0853         estimate D2E/DX2                !
 ! D25   D(14,13,15,18)          0.867          estimate D2E/DX2                !
 ! D26   D(14,13,15,19)        179.3756         estimate D2E/DX2                !
 ! D27   D(13,14,16,20)          0.1894         estimate D2E/DX2                !
 ! D28   D(13,14,16,21)        179.4806         estimate D2E/DX2                !
 ! D29   D(17,14,16,20)       -177.8593         estimate D2E/DX2                !
 ! D30   D(17,14,16,21)          1.4319         estimate D2E/DX2                !
 ! D31   D(13,15,18,20)         -0.2271         estimate D2E/DX2                !
 ! D32   D(13,15,18,22)        179.3986         estimate D2E/DX2                !
 ! D33   D(19,15,18,20)       -178.7423         estimate D2E/DX2                !
 ! D34   D(19,15,18,22)          0.8834         estimate D2E/DX2                !
 ! D35   D(14,16,20,18)          0.4843         estimate D2E/DX2                !
 ! D36   D(14,16,20,23)       -179.8625         estimate D2E/DX2                !
 ! D37   D(21,16,20,18)       -178.803          estimate D2E/DX2                !
 ! D38   D(21,16,20,23)          0.8502         estimate D2E/DX2                !
 ! D39   D(15,18,20,16)         -0.4657         estimate D2E/DX2                !
 ! D40   D(15,18,20,23)        179.881          estimate D2E/DX2                !
 ! D41   D(22,18,20,16)        179.9106         estimate D2E/DX2                !
 ! D42   D(22,18,20,23)          0.2574         estimate D2E/DX2                !
 --------------------------------------------------------------------------------
 Trust Radius=3.00D-01 FncErr=1.00D-07 GrdErr=1.00D-06 EigMax=2.50D+02 EigMin=1.00D-04
 Number of steps in this run=    111 maximum allowed number of steps=    138.
 GradGradGradGradGradGradGradGradGradGradGradGradGradGradGradGradGradGrad

 Leave Link  103 at Tue Jun 11 14:17:16 2019, MaxMem=   104857600 cpu:               3.5 elap:               0.2
 (Enter /project/6004141/group/g16/g16/l202.exe)
                          Input orientation:                          
 ---------------------------------------------------------------------
 Center     Atomic      Atomic             Coordinates (Angstroms)
 Number     Number       Type             X           Y           Z
 ---------------------------------------------------------------------
      1          6           0        0.278869    1.483314   -0.238304
      2          1           0        4.174116   -2.133470    0.885753
      3          8           0        1.535719    1.235679   -0.681923
      4          7           0        2.544756   -1.117258    0.176206
      5          1           0        1.859015    0.321573   -0.415739
      6          7           0        3.795220   -1.221035    0.651598
      7          1           0        4.457474   -0.574067    0.242287
      8          1           0        2.012478   -1.928358    0.497129
      9          6           0        0.043777    2.922461    0.105125
     10          1           0        0.674547    3.550603   -0.531959
     11          1           0       -0.997641    3.221589   -0.037514
     12          1           0        0.315894    3.148009    1.147251
     13          6           0       -0.700994    0.458823   -0.138137
     14          6           0       -0.497741   -0.832170   -0.718578
     15          6           0       -1.942049    0.671029    0.538673
     16          6           0       -1.455470   -1.829820   -0.609861
     17          1           0        0.409576   -1.022836   -1.280711
     18          6           0       -2.888808   -0.338437    0.638152
     19          1           0       -2.141098    1.630328    1.005139
     20          6           0       -2.660446   -1.602217    0.072219
     21          1           0       -1.270116   -2.796586   -1.071225
     22          1           0       -3.817533   -0.144521    1.168748
     23          1           0       -3.405135   -2.387546    0.155858
 ---------------------------------------------------------------------
                    Distance matrix (angstroms):
                    1          2          3          4          5
     1  C    0.000000
     2  H    5.433008   0.000000
     3  O    1.355652   4.557402   0.000000
     4  N    3.474052   2.047183   2.700158   0.000000
     5  H    1.969260   3.616740   1.005467   1.700257   0.000000
     6  N    4.524395   1.015346   3.594310   1.341800   2.695874
     7  H    4.682363   1.710578   3.558932   1.989451   2.826156
     8  H    3.896892   2.205851   3.410072   1.021858   2.432914
     9  C    1.498117   6.575068   2.385491   4.751766   3.214188
    10  H    2.125201   6.823897   2.474466   5.078199   3.441381
    11  H    2.165963   7.501743   3.282836   5.605341   4.088231
    12  H    2.166182   6.545860   2.913907   4.909507   3.579511
    13  C    1.421178   5.615606   2.429422   3.621842   2.578671
    14  C    2.489026   5.108180   2.900397   3.184133   2.641426
    15  C    2.489172   6.737444   3.728747   4.843632   3.934604
    16  C    3.758037   5.832778   4.283654   4.138533   3.956259
    17  H    2.717441   4.483172   2.593769   2.586603   2.157889
    18  C    3.757809   7.291663   4.878204   5.508500   4.907965
    19  H    2.724703   7.352711   4.064592   5.494869   4.442143
    20  C    4.272762   6.903282   5.121541   5.228779   4.936051
    21  H    4.627165   5.823156   4.927822   4.350802   4.465875
    22  H    4.627110   8.240295   5.829858   6.512302   5.911940
    23  H    5.358247   7.618553   6.183985   6.084016   5.947884
                    6          7          8          9         10
     6  N    0.000000
     7  H    1.012266   0.000000
     8  H    1.924145   2.806609   0.000000
     9  C    5.616094   5.632517   5.249752   0.000000
    10  H    5.823052   5.650035   5.733070   1.094673   0.000000
    11  H    6.571400   6.651584   5.989041   1.092875   1.774525
    12  H    5.607132   5.641409   5.391712   1.100430   1.763650
    13  C    4.864313   5.274597   3.669486   2.585222   3.406804
    14  C    4.523064   5.054111   2.996793   3.881879   4.540681
    15  C    6.042261   6.526255   4.732528   3.033219   4.035440
    16  C    5.434302   6.104587   3.641675   5.034195   5.787227
    17  H    3.903292   4.348148   2.559293   4.197585   4.641894
    18  C    6.742061   7.360713   5.154643   4.417876   5.402897
    19  H    6.595084   6.998747   5.493133   2.693197   3.738714
    20  C    6.492812   7.193803   4.703524   5.271301   6.167557
    21  H    5.577464   6.282531   3.740184   5.984782   6.660280
    22  H    7.705864   8.337780   6.133692   5.044540   6.060126
    23  H    7.311061   8.069498   5.447738   6.331962   7.237300
                   11         12         13         14         15
    11  H    0.000000
    12  H    1.770440   0.000000
    13  C    2.780468   3.149286   0.000000
    14  C    4.140859   4.470475   1.429995   0.000000
    15  C    2.780154   3.406480   1.429448   2.434402   0.000000
    16  C    5.104304   5.568119   2.455533   1.387217   2.794662
    17  H    4.641222   4.826979   2.175811   1.084238   3.421911
    18  C    4.087398   4.762836   2.454542   2.793151   1.387541
    19  H    2.219624   2.891429   2.180230   3.425744   1.085111
    20  C    5.103535   5.707796   2.851594   2.428091   2.429263
    21  H    6.112383   6.540281   3.433983   2.140059   3.881703
    22  H    4.553851   5.284547   3.432898   3.880191   2.139990
    23  H    6.107030   6.743240   3.937084   3.411271   3.412045
                   16         17         18         19         20
    16  C    0.000000
    17  H    2.140014   0.000000
    18  C    2.415826   3.876825   0.000000
    19  H    3.879553   4.332474   2.137706   0.000000
    20  C    1.403212   3.404576   1.403413   3.404322   0.000000
    21  H    1.087129   2.451824   3.403620   4.966635   2.160324
    22  H    3.403384   4.963843   1.087044   2.446894   2.160117
    23  H    2.167620   4.298626   2.167498   4.296787   1.085495
                   21         22         23
    21  H    0.000000
    22  H    4.305840   0.000000
    23  H    2.496268   2.495432   0.000000
 Stoichiometry    C8H12N2O
 Framework group  C1[X(C8H12N2O)]
 Deg. of freedom    63
 Full point group                 C1      NOp   1
 Largest Abelian subgroup         C1      NOp   1
 Largest concise Abelian subgroup C1      NOp   1
                         Standard orientation:                         
 ---------------------------------------------------------------------
 Center     Atomic      Atomic             Coordinates (Angstroms)
 Number     Number       Type             X           Y           Z
 ---------------------------------------------------------------------
      1          6           0       -0.278869    1.483314    0.238304
      2          1           0       -4.174116   -2.133470   -0.885753
      3          8           0       -1.535719    1.235679    0.681923
      4          7           0       -2.544756   -1.117258   -0.176206
      5          1           0       -1.859015    0.321573    0.415739
      6          7           0       -3.795220   -1.221035   -0.651598
      7          1           0       -4.457474   -0.574066   -0.242287
      8          1           0       -2.012478   -1.928358   -0.497129
      9          6           0       -0.043777    2.922461   -0.105125
     10          1           0       -0.674547    3.550603    0.531959
     11          1           0        0.997641    3.221589    0.037514
     12          1           0       -0.315894    3.148009   -1.147251
     13          6           0        0.700994    0.458823    0.138137
     14          6           0        0.497741   -0.832170    0.718578
     15          6           0        1.942049    0.671029   -0.538673
     16          6           0        1.455470   -1.829820    0.609861
     17          1           0       -0.409576   -1.022836    1.280711
     18          6           0        2.888808   -0.338437   -0.638152
     19          1           0        2.141098    1.630328   -1.005139
     20          6           0        2.660446   -1.602217   -0.072219
     21          1           0        1.270116   -2.796586    1.071225
     22          1           0        3.817533   -0.144521   -1.168748
     23          1           0        3.405135   -2.387546   -0.155858
 ---------------------------------------------------------------------
 Rotational constants (GHZ):           1.3247073           0.7045978           0.4980219
 Leave Link  202 at Tue Jun 11 14:17:16 2019, MaxMem=   104857600 cpu:               4.3 elap:               0.2
 (Enter /project/6004141/group/g16/g16/l301.exe)
 Standard basis: 6-31G(d,p) (6D, 7F)
 Ernie: Thresh=  0.10000D-02 Tol=  0.10000D-05 Strict=F.
 There are   225 symmetry adapted cartesian basis functions of A   symmetry.
 There are   225 symmetry adapted basis functions of A   symmetry.
   225 basis functions,   392 primitive gaussians,   225 cartesian basis functions
    41 alpha electrons       41 beta electrons
       nuclear repulsion energy       577.1672000095 Hartrees.
 IExCor=  402 DFT=T Ex+Corr=B3LYP ExCW=0 ScaHFX=  0.200000
 ScaDFX=  0.800000  0.720000  1.000000  0.810000 ScalE2=  1.000000  1.000000
 IRadAn=      5 IRanWt=     -1 IRanGd=            0 ICorTp=0 IEmpDi=131
 NAtoms=   23 NActive=   23 NUniq=   23 SFac= 1.00D+00 NAtFMM=   60 NAOKFM=F Big=F
 Integral buffers will be    131072 words long.
 Raffenetti 2 integral format.
 Two-electron integral symmetry is turned on.
 R6Disp:  Grimme-D3 Dispersion energy=       -0.0166645646 Hartrees.
 Nuclear repulsion after empirical dispersion term =      577.1505354449 Hartrees.
 ------------------------------------------------------------------------------
 Polarizable Continuum Model (PCM)
 =================================
 Model                : PCM.
 Atomic radii         : UFF (Universal Force Field).
 Polarization charges : Total charges.
 Charge compensation  : None.
 Solution method      : On-the-fly selection.
 Cavity type          : Scaled VdW (van der Waals Surface) (Alpha=1.100).
 Cavity algorithm     : GePol (No added spheres)
                        Default sphere list used, NSphG=   23.
                        Lebedev-Laikov grids with approx.  5.0 points / Ang**2.
                        Smoothing algorithm: York/Karplus (Gamma=1.0000).
                        Polarization charges: spherical gaussians, with
                                              point-specific exponents (IZeta= 3).
                        Self-potential: point-specific (ISelfS= 7).
                        Self-field    : sphere-specific E.n sum rule (ISelfD= 2).
 1st derivatives      : Analytical E(r).r(x)/FMM algorithm (CHGder, D1EAlg=3).
                        Cavity 1st derivative terms included.
 Solvent              : Acetonitrile, Eps=  35.688000 Eps(inf)=   1.806874
 ------------------------------------------------------------------------------
 GePol: Number of generator spheres                  =      23
 GePol: Total number of spheres                      =      23
 GePol: Number of exposed spheres                    =      23 (100.00%)
 GePol: Number of points                             =    1858
 GePol: Average weight of points                     =       0.13
 GePol: Minimum weight of points                     =   0.24D-09
 GePol: Maximum weight of points                     =    0.20577
 GePol: Number of points with low weight             =     113
 GePol: Fraction of low-weight points (<1% of avg)   =       6.08%
 GePol: Cavity surface area                          =    244.258 Ang**2
 GePol: Cavity volume                                =    242.472 Ang**3
 Leave Link  301 at Tue Jun 11 14:17:17 2019, MaxMem=   104857600 cpu:               8.3 elap:               0.3
 (Enter /project/6004141/group/g16/g16/l302.exe)
 NPDir=0 NMtPBC=     1 NCelOv=     1 NCel=       1 NClECP=     1 NCelD=      1
         NCelK=      1 NCelE2=     1 NClLst=     1 CellRange=     0.0.
 One-electron integrals computed using PRISM.
 One-electron integral symmetry used in STVInt
 PrsmSu:  requested number of processors reduced to:  29 ShMem   1 Linda.
 NBasis=   225 RedAO= T EigKep=  4.85D-04  NBF=   225
 NBsUse=   225 1.00D-06 EigRej= -1.00D+00 NBFU=   225
 Precomputing XC quadrature grid using
 IXCGrd= 4 IRadAn=           5 IRanWt=          -1 IRanGd=           0 AccXCQ= 0.00D+00.
 Generated NRdTot=       0 NPtTot=           0 NUsed=           0 NTot=          32
 NSgBfM=   225   225   225   225   225 MxSgAt=    23 MxSgA2=    23.
 Leave Link  302 at Tue Jun 11 14:17:18 2019, MaxMem=   104857600 cpu:              17.9 elap:               0.5
 (Enter /project/6004141/group/g16/g16/l303.exe)
 DipDrv:  MaxL=1.
 Leave Link  303 at Tue Jun 11 14:17:18 2019, MaxMem=   104857600 cpu:               2.2 elap:               0.1
 (Enter /project/6004141/group/g16/g16/l401.exe)
 ExpMin= 1.61D-01 ExpMax= 5.48D+03 ExpMxC= 8.25D+02 IAcc=3 IRadAn=         5 AccDes= 0.00D+00
 Harris functional with IExCor=  402 and IRadAn=       5 diagonalized for initial guess.
 HarFok:  IExCor=  402 AccDes= 0.00D+00 IRadAn=         5 IDoV= 1 UseB2=F ITyADJ=14
 ICtDFT=  3500011 ScaDFX=  1.000000  1.000000  1.000000  1.000000
 FoFCou: FMM=F IPFlag=           0 FMFlag=      100000 FMFlg1=           0
         NFxFlg=           0 DoJE=T BraDBF=F KetDBF=T FulRan=T
         wScrn=  0.000000 ICntrl=       500 IOpCl=  0 I1Cent=   200000004 NGrid=           0
         NMat0=    1 NMatS0=      1 NMatT0=    0 NMatD0=    1 NMtDS0=    0 NMtDT0=    0
 Petite list used in FoFCou.
 Harris En= -496.754532031620    
 JPrj=0 DoOrth=F DoCkMO=T.
 Mixing orbitals, IMix= 1 IMixAn=  0 NRI=1 NE=   41 Coef=  7.07106781D-01  7.07106781D-01
 Mixing orbitals, IMix= 1 IMixAn=  0 NRI=1 NE=   41 Coef= -7.07106781D-01  7.07106781D-01
 Initial guess <Sx>= 0.0000 <Sy>= 0.0000 <Sz>= 0.0000 <S**2>= 1.0000 S= 0.6180
 Leave Link  401 at Tue Jun 11 14:17:19 2019, MaxMem=   104857600 cpu:              23.5 elap:               0.6
 (Enter /project/6004141/group/g16/g16/l502.exe)
 Integral symmetry usage will be decided dynamically.
 UHF open shell SCF:
 Using DIIS extrapolation, IDIIS=  1040.
 NGot=   104857600 LenX=   104744810 LenY=   104693744
 Requested convergence on RMS density matrix=1.00D-08 within 128 cycles.
 Requested convergence on MAX density matrix=1.00D-06.
 Requested convergence on             energy=1.00D-06.
 No special actions if energy rises.
 Fock matrices will be formed incrementally for  20 cycles.

 Cycle   1  Pass 1  IDiag  1:
 FoFJK:  IHMeth= 1 ICntrl=       0 DoSepK=F KAlg= 0 I1Cent=           0 FoldK=F
 IRaf= 850000000 NMat=       1 IRICut=       1 DoRegI=T DoRafI=F ISym2E= 0 IDoP0=0 IntGTp=1.
 FoFCou: FMM=F IPFlag=           0 FMFlag=      100000 FMFlg1=           0
         NFxFlg=           0 DoJE=F BraDBF=F KetDBF=F FulRan=T
         wScrn=  0.000000 ICntrl=         0 IOpCl=  1 I1Cent=           0 NGrid=           0
         NMat0=    1 NMatS0=      1 NMatT0=    0 NMatD0=    1 NMtDS0=    0 NMtDT0=    0
 Symmetry not used in FoFCou.
 Inv3:  Mode=1 IEnd=    10356492.
 Iteration    1 A*A^-1 deviation from unit magnitude is 2.89D-15 for    383.
 Iteration    1 A*A^-1 deviation from orthogonality  is 2.51D-15 for   1272    369.
 Iteration    1 A^-1*A deviation from unit magnitude is 3.11D-15 for    104.
 Iteration    1 A^-1*A deviation from orthogonality  is 2.00D-15 for   1738    235.
 E= -496.427018591423    
 DIIS: error= 2.69D-02 at cycle   1 NSaved=   1.
 NSaved= 1 IEnMin= 1 EnMin= -496.427018591423     IErMin= 1 ErrMin= 2.69D-02
 ErrMax= 2.69D-02  0.00D+00 EMaxC= 1.00D-01 BMatC= 1.08D+00 BMatP= 1.08D+00
 IDIUse=3 WtCom= 7.31D-01 WtEn= 2.69D-01
 Coeff-Com:  0.100D+01
 Coeff-En:   0.100D+01
 Coeff:      0.100D+01
 Gap=     0.011 Goal=   None    Shift=    0.000
 Gap=     0.046 Goal=   None    Shift=    0.000
 GapD=    0.011 DampG=0.250 DampE=0.500 DampFc=0.2500 IDamp=-1.
 Damping current iteration by 2.50D-01
 RMSDP=5.59D-03 MaxDP=1.59D-01              OVMax= 5.92D-01

 Cycle   2  Pass 1  IDiag  1:
 RMSU=  1.37D-03    CP:  9.88D-01
 E= -496.526578391236     Delta-E=       -0.099559799813 Rises=F Damp=T
 DIIS: error= 1.49D-02 at cycle   2 NSaved=   2.
 NSaved= 2 IEnMin= 2 EnMin= -496.526578391236     IErMin= 2 ErrMin= 1.49D-02
 ErrMax= 1.49D-02  0.00D+00 EMaxC= 1.00D-01 BMatC= 3.03D-01 BMatP= 1.08D+00
 IDIUse=3 WtCom= 8.51D-01 WtEn= 1.49D-01
 Coeff-Com: -0.864D+00 0.186D+01
 Coeff-En:   0.000D+00 0.100D+01
 Coeff:     -0.736D+00 0.174D+01
 Gap=    -0.045 Goal=   None    Shift=    0.000
 Gap=    -0.021 Goal=   None    Shift=    0.000
 RMSDP=3.98D-03 MaxDP=1.73D-01 DE=-9.96D-02 OVMax= 9.13D-01

 Cycle   3  Pass 1  IDiag  1:
 RMSU=  3.92D-03    CP:  9.59D-01  7.61D-01
 E= -496.402976787898     Delta-E=        0.123601603338 Rises=F Damp=F
 DIIS: error= 3.40D-02 at cycle   3 NSaved=   3.
 NSaved= 3 IEnMin= 2 EnMin= -496.526578391236     IErMin= 2 ErrMin= 1.49D-02
 ErrMax= 3.40D-02  0.00D+00 EMaxC= 1.00D-01 BMatC= 8.07D-01 BMatP= 3.03D-01
 IDIUse=2 WtCom= 0.00D+00 WtEn= 1.00D+00
 Coeff-En:   0.000D+00 0.685D+00 0.315D+00
 Coeff:      0.000D+00 0.685D+00 0.315D+00
 Gap=    -0.094 Goal=   None    Shift=    0.000
 Gap=    -0.094 Goal=   None    Shift=    0.000
 RMSDP=5.70D-03 MaxDP=2.57D-01 DE= 1.24D-01 OVMax= 9.80D-01

 Cycle   4  Pass 1  IDiag  1:
 RMSU=  2.01D-03    CP:  9.55D-01  3.00D+00 -9.72D-02
 E= -496.445876227018     Delta-E=       -0.042899439120 Rises=F Damp=F
 DIIS: error= 2.80D-02 at cycle   4 NSaved=   4.
 NSaved= 4 IEnMin= 2 EnMin= -496.526578391236     IErMin= 2 ErrMin= 1.49D-02
 ErrMax= 2.80D-02  0.00D+00 EMaxC= 1.00D-01 BMatC= 8.54D-01 BMatP= 3.03D-01
 IDIUse=2 WtCom= 0.00D+00 WtEn= 1.00D+00
 Coeff-En:   0.000D+00 0.000D+00 0.478D+00 0.522D+00
 Coeff:      0.000D+00 0.000D+00 0.478D+00 0.522D+00
 Gap=     0.012 Goal=   None    Shift=    0.000
 Gap=     0.022 Goal=   None    Shift=    0.000
 RMSDP=1.81D-03 MaxDP=4.49D-02 DE=-4.29D-02 OVMax= 2.32D-01

 Cycle   5  Pass 1  IDiag  1:
 RMSU=  1.36D-03    CP:  9.66D-01  2.31D+00 -1.17D-01  7.40D-01
 E= -496.619433342435     Delta-E=       -0.173557115417 Rises=F Damp=F
 DIIS: error= 1.76D-02 at cycle   5 NSaved=   5.
 NSaved= 5 IEnMin= 5 EnMin= -496.619433342435     IErMin= 2 ErrMin= 1.49D-02
 ErrMax= 1.76D-02  0.00D+00 EMaxC= 1.00D-01 BMatC= 2.36D-01 BMatP= 3.03D-01
 IDIUse=3 WtCom= 8.24D-01 WtEn= 1.76D-01
 Coeff-Com: -0.496D+00 0.782D+00 0.257D+00-0.991D-01 0.556D+00
 Coeff-En:   0.000D+00 0.000D+00 0.328D+00 0.000D+00 0.672D+00
 Coeff:     -0.409D+00 0.644D+00 0.269D+00-0.816D-01 0.577D+00
 Gap=    -0.002 Goal=   None    Shift=    0.000
 Gap=     0.007 Goal=   None    Shift=    0.000
 RMSDP=4.19D-03 MaxDP=1.70D-01 DE=-1.74D-01 OVMax= 8.48D-01

 Cycle   6  Pass 1  IDiag  1:
 RMSU=  1.01D-03    CP:  9.71D-01  9.85D-01  5.57D-01 -3.01D-01  2.52D-03
 E= -496.629726211665     Delta-E=       -0.010292869229 Rises=F Damp=F
 DIIS: error= 1.53D-02 at cycle   6 NSaved=   6.
 NSaved= 6 IEnMin= 6 EnMin= -496.629726211665     IErMin= 2 ErrMin= 1.49D-02
 ErrMax= 1.53D-02  0.00D+00 EMaxC= 1.00D-01 BMatC= 1.93D-01 BMatP= 2.36D-01
 IDIUse=3 WtCom= 8.47D-01 WtEn= 1.53D-01
 Coeff-Com: -0.455D+00 0.638D+00-0.528D-02-0.160D+00 0.565D+00 0.417D+00
 Coeff-En:   0.000D+00 0.000D+00 0.000D+00 0.000D+00 0.482D+00 0.518D+00
 Coeff:     -0.385D+00 0.541D+00-0.447D-02-0.135D+00 0.552D+00 0.432D+00
 Gap=     0.008 Goal=   None    Shift=    0.000
 Gap=     0.024 Goal=   None    Shift=    0.000
 RMSDP=1.35D-03 MaxDP=5.02D-02 DE=-1.03D-02 OVMax= 2.75D-01

 Cycle   7  Pass 1  IDiag  1:
 RMSU=  4.13D-04    CP:  9.73D-01  1.41D+00  2.80D-01 -2.84D-01  2.60D-01
                    CP:  1.10D+00
 E= -496.693532814886     Delta-E=       -0.063806603221 Rises=F Damp=F
 DIIS: error= 5.74D-03 at cycle   7 NSaved=   7.
 NSaved= 7 IEnMin= 7 EnMin= -496.693532814886     IErMin= 7 ErrMin= 5.74D-03
 ErrMax= 5.74D-03  0.00D+00 EMaxC= 1.00D-01 BMatC= 3.41D-02 BMatP= 1.93D-01
 IDIUse=3 WtCom= 9.43D-01 WtEn= 5.74D-02
 Coeff-Com: -0.312D+00 0.447D+00-0.413D-01-0.108D+00 0.336D+00 0.633D-01
 Coeff-Com:  0.615D+00
 Coeff-En:   0.000D+00 0.000D+00 0.000D+00 0.000D+00 0.222D+00 0.000D+00
 Coeff-En:   0.778D+00
 Coeff:     -0.294D+00 0.421D+00-0.389D-01-0.102D+00 0.330D+00 0.597D-01
 Coeff:      0.624D+00
 Gap=     0.016 Goal=   None    Shift=    0.000
 Gap=     0.029 Goal=   None    Shift=    0.000
 RMSDP=2.46D-04 MaxDP=1.39D-02 DE=-6.38D-02 OVMax= 4.46D-02

 Cycle   8  Pass 1  IDiag  1:
 RMSU=  2.17D-04    CP:  9.73D-01  1.36D+00  3.02D-01 -2.91D-01  2.72D-01
                    CP:  1.11D+00  9.23D-01
 E= -496.690122802145     Delta-E=        0.003410012741 Rises=F Damp=F
 DIIS: error= 7.05D-03 at cycle   8 NSaved=   8.
 NSaved= 8 IEnMin= 7 EnMin= -496.693532814886     IErMin= 7 ErrMin= 5.74D-03
 ErrMax= 7.05D-03  0.00D+00 EMaxC= 1.00D-01 BMatC= 4.21D-02 BMatP= 3.41D-02
 IDIUse=3 WtCom= 9.43D-01 WtEn= 5.74D-02
 EnCoef did    56 forward-backward iterations
 Coeff-Com: -0.150D+00 0.233D+00 0.280D-01-0.194D-01 0.145D+00-0.419D+00
 Coeff-Com:  0.391D+00 0.791D+00
 Coeff-En:   0.000D+00 0.000D+00 0.000D+00 0.000D+00 0.228D+00 0.000D+00
 Coeff-En:   0.642D+00 0.130D+00
 Coeff:     -0.142D+00 0.220D+00 0.264D-01-0.182D-01 0.150D+00-0.395D+00
 Coeff:      0.405D+00 0.753D+00
 Gap=     0.020 Goal=   None    Shift=    0.000
 Gap=     0.030 Goal=   None    Shift=    0.000
 RMSDP=8.71D-04 MaxDP=4.07D-02 DE= 3.41D-03 OVMax= 2.06D-01

 Cycle   9  Pass 1  IDiag  1:
 RMSU=  3.82D-04    CP:  9.72D-01  1.57D+00  2.36D-01 -1.68D-01  5.32D-01
                    CP:  9.86D-01  1.67D+00  2.86D+00
 E= -496.704801200823     Delta-E=       -0.014678398678 Rises=F Damp=F
 DIIS: error= 4.15D-03 at cycle   9 NSaved=   9.
 NSaved= 9 IEnMin= 9 EnMin= -496.704801200823     IErMin= 9 ErrMin= 4.15D-03
 ErrMax= 4.15D-03  0.00D+00 EMaxC= 1.00D-01 BMatC= 1.16D-02 BMatP= 3.41D-02
 IDIUse=3 WtCom= 9.58D-01 WtEn= 4.15D-02
 Coeff-Com: -0.144D+00 0.224D+00 0.289D-01-0.169D-01 0.140D+00-0.412D+00
 Coeff-Com:  0.377D+00 0.754D+00 0.489D-01
 Coeff-En:   0.000D+00 0.000D+00 0.000D+00 0.000D+00 0.870D-01 0.000D+00
 Coeff-En:   0.000D+00 0.000D+00 0.913D+00
 Coeff:     -0.138D+00 0.215D+00 0.277D-01-0.162D-01 0.138D+00-0.395D+00
 Coeff:      0.361D+00 0.723D+00 0.848D-01
 Gap=     0.023 Goal=   None    Shift=    0.000
 Gap=     0.030 Goal=   None    Shift=    0.000
 RMSDP=2.66D-04 MaxDP=1.07D-02 DE=-1.47D-02 OVMax= 5.46D-02

 Cycle  10  Pass 1  IDiag  1:
 RMSU=  1.10D-04    CP:  9.71D-01  1.61D+00  2.39D-01 -1.20D-01  6.06D-01
                    CP:  9.19D-01  1.87D+00  3.00D+00  1.35D+00
 E= -496.707864869897     Delta-E=       -0.003063669074 Rises=F Damp=F
 DIIS: error= 4.02D-03 at cycle  10 NSaved=  10.
 NSaved=10 IEnMin=10 EnMin= -496.707864869897     IErMin=10 ErrMin= 4.02D-03
 ErrMax= 4.02D-03  0.00D+00 EMaxC= 1.00D-01 BMatC= 9.93D-03 BMatP= 1.16D-02
 IDIUse=3 WtCom= 9.60D-01 WtEn= 4.02D-02
 Coeff-Com: -0.304D-01 0.576D-01 0.823D-01 0.999D-02 0.658D-01-0.727D+00
 Coeff-Com:  0.310D+00 0.626D+00 0.484D+01-0.423D+01
 Coeff-En:   0.000D+00 0.000D+00 0.000D+00 0.000D+00 0.478D-01 0.000D+00
 Coeff-En:   0.000D+00 0.000D+00 0.000D+00 0.952D+00
 Coeff:     -0.292D-01 0.553D-01 0.790D-01 0.959D-02 0.651D-01-0.698D+00
 Coeff:      0.298D+00 0.600D+00 0.464D+01-0.402D+01
 Gap=     0.019 Goal=   None    Shift=    0.000
 Gap=     0.028 Goal=   None    Shift=    0.000
 RMSDP=1.91D-03 MaxDP=8.06D-02 DE=-3.06D-03 OVMax= 3.83D-01

 Cycle  11  Pass 1  IDiag  1:
 RMSU=  1.35D-04    CP:  9.73D-01  1.38D+00  2.69D-01 -2.71D-01  1.02D-01
                    CP:  1.10D+00 -3.96D-02 -1.76D+00 -1.27D+00 -1.15D-01
 E= -496.698432852073     Delta-E=        0.009432017824 Rises=F Damp=F
 DIIS: error= 6.23D-03 at cycle  11 NSaved=  11.
 NSaved=11 IEnMin=10 EnMin= -496.707864869897     IErMin=10 ErrMin= 4.02D-03
 ErrMax= 6.23D-03  0.00D+00 EMaxC= 1.00D-01 BMatC= 2.86D-02 BMatP= 9.93D-03
 IDIUse=3 WtCom= 9.60D-01 WtEn= 4.02D-02
 Rare condition: small coef for last iteration:  0.000D+00
 Coeff-Com: -0.982D-02 0.152D-01 0.479D-01 0.192D-01 0.491D-01-0.372D+00
 Coeff-Com: -0.439D-01-0.240D+00 0.162D+01-0.869D+00 0.786D+00
 Coeff-En:   0.000D+00 0.000D+00 0.000D+00 0.000D+00 0.179D+00 0.000D+00
 Coeff-En:   0.000D+00 0.000D+00 0.000D+00 0.000D+00 0.821D+00
 Coeff:     -0.982D-02 0.152D-01 0.479D-01 0.192D-01 0.491D-01-0.372D+00
 Coeff:     -0.439D-01-0.240D+00 0.162D+01-0.869D+00 0.786D+00
 Gap=     0.020 Goal=   None    Shift=    0.000
 Gap=     0.031 Goal=   None    Shift=    0.000
 RMSDP=3.45D-04 MaxDP=1.66D-02 DE= 9.43D-03 OVMax= 8.43D-02

 Cycle  12  Pass 1  IDiag  1:
 RMSU=  3.47D-05    CP:  9.73D-01  1.47D+00  2.20D-01 -2.53D-01  1.74D-01
                    CP:  1.11D+00  3.38D-01 -1.11D+00 -1.01D+00 -1.07D-01
                    CP:  7.92D-01
 E= -496.702372155095     Delta-E=       -0.003939303022 Rises=F Damp=F
 DIIS: error= 4.17D-03 at cycle  12 NSaved=  12.
 NSaved=12 IEnMin=10 EnMin= -496.707864869897     IErMin=10 ErrMin= 4.02D-03
 ErrMax= 4.17D-03  0.00D+00 EMaxC= 1.00D-01 BMatC= 1.22D-02 BMatP= 9.93D-03
 IDIUse=3 WtCom= 9.60D-01 WtEn= 4.02D-02
 Coeff-Com: -0.199D-01 0.283D-01 0.234D-01 0.134D-01 0.448D-01-0.136D+00
 Coeff-Com: -0.144D+00-0.421D+00-0.120D+00 0.670D+00 0.335D+00 0.726D+00
 Coeff-En:   0.000D+00 0.000D+00 0.000D+00 0.000D+00 0.972D-01 0.000D+00
 Coeff-En:   0.000D+00 0.000D+00 0.000D+00 0.000D+00 0.000D+00 0.903D+00
 Coeff:     -0.191D-01 0.271D-01 0.225D-01 0.129D-01 0.469D-01-0.130D+00
 Coeff:     -0.139D+00-0.404D+00-0.115D+00 0.643D+00 0.322D+00 0.733D+00
 Gap=     0.019 Goal=   None    Shift=    0.000
 Gap=     0.030 Goal=   None    Shift=    0.000
 RMSDP=5.73D-04 MaxDP=3.00D-02 DE=-3.94D-03 OVMax= 1.40D-01

 Cycle  13  Pass 1  IDiag  1:
 RMSU=  2.73D-05    CP:  9.73D-01  1.65D+00  1.39D-01 -1.85D-01  3.23D-01
                    CP:  1.07D+00  8.04D-01 -1.74D-01 -5.73D-01 -8.95D-02
                    CP:  6.13D-01  1.00D+00
 E= -496.705184641164     Delta-E=       -0.002812486069 Rises=F Damp=F
 DIIS: error= 3.65D-04 at cycle  13 NSaved=  13.
 NSaved=13 IEnMin=10 EnMin= -496.707864869897     IErMin=13 ErrMin= 3.65D-04
 ErrMax= 3.65D-04  0.00D+00 EMaxC= 1.00D-01 BMatC= 7.95D-05 BMatP= 9.93D-03
 IDIUse=3 WtCom= 9.96D-01 WtEn= 3.65D-03
 Coeff-Com: -0.234D-01 0.333D-01 0.665D-02-0.346D-02 0.316D-01-0.448D-01
 Coeff-Com: -0.220D-01-0.119D+00 0.774D-01 0.136D+00 0.160D-01 0.276D+00
 Coeff-Com:  0.635D+00
 Coeff-En:   0.000D+00 0.000D+00 0.000D+00 0.000D+00 0.000D+00 0.000D+00
 Coeff-En:   0.000D+00 0.000D+00 0.000D+00 0.000D+00 0.000D+00 0.000D+00
 Coeff-En:   0.100D+01
 Coeff:     -0.233D-01 0.332D-01 0.663D-02-0.345D-02 0.315D-01-0.446D-01
 Coeff:     -0.220D-01-0.118D+00 0.771D-01 0.136D+00 0.159D-01 0.275D+00
 Coeff:      0.637D+00
 Gap=     0.021 Goal=   None    Shift=    0.000
 Gap=     0.031 Goal=   None    Shift=    0.000
 RMSDP=1.22D-04 MaxDP=5.50D-03 DE=-2.81D-03 OVMax= 2.50D-02

 Cycle  14  Pass 1  IDiag  1:
 RMSU=  1.60D-05    CP:  9.73D-01  1.60D+00  1.61D-01 -2.08D-01  3.01D-01
                    CP:  1.08D+00  7.54D-01 -1.90D-01 -5.89D-01 -8.61D-02
                    CP:  6.08D-01  9.09D-01  6.31D-01
 E= -496.704875850139     Delta-E=        0.000308791025 Rises=F Damp=F
 DIIS: error= 1.18D-03 at cycle  14 NSaved=  14.
 NSaved=14 IEnMin=10 EnMin= -496.707864869897     IErMin=13 ErrMin= 3.65D-04
 ErrMax= 1.18D-03  0.00D+00 EMaxC= 1.00D-01 BMatC= 1.12D-03 BMatP= 7.95D-05
 IDIUse=3 WtCom= 9.96D-01 WtEn= 3.65D-03
 Rare condition: small coef for last iteration:  0.000D+00
 Coeff-Com: -0.934D-02 0.127D-01 0.969D-03-0.444D-03 0.137D-01 0.944D-02
 Coeff-Com: -0.312D-01-0.762D-01-0.224D+00 0.322D+00-0.677D-01 0.917D-01
 Coeff-Com:  0.486D+00 0.472D+00
 Coeff-En:   0.000D+00 0.000D+00 0.000D+00 0.000D+00 0.000D+00 0.000D+00
 Coeff-En:   0.000D+00 0.000D+00 0.000D+00 0.000D+00 0.000D+00 0.000D+00
 Coeff-En:   0.000D+00 0.100D+01
 Coeff:     -0.934D-02 0.127D-01 0.969D-03-0.444D-03 0.137D-01 0.944D-02
 Coeff:     -0.312D-01-0.762D-01-0.224D+00 0.322D+00-0.677D-01 0.917D-01
 Coeff:      0.486D+00 0.472D+00
 Gap=     0.022 Goal=   None    Shift=    0.000
 Gap=     0.031 Goal=   None    Shift=    0.000
 RMSDP=1.97D-04 MaxDP=1.03D-02 DE= 3.09D-04 OVMax= 4.78D-02

 Cycle  15  Pass 1  IDiag  1:
 RMSU=  1.04D-05    CP:  9.73D-01  1.66D+00  1.41D-01 -1.81D-01  3.61D-01
                    CP:  1.06D+00  9.01D-01  1.88D-01 -3.67D-01 -7.57D-02
                    CP:  5.56D-01  8.25D-01  7.24D-01  8.03D-01
 E= -496.705072184691     Delta-E=       -0.000196334552 Rises=F Damp=F
 DIIS: error= 1.62D-04 at cycle  15 NSaved=  15.
 NSaved=15 IEnMin=10 EnMin= -496.707864869897     IErMin=15 ErrMin= 1.62D-04
 ErrMax= 1.62D-04  0.00D+00 EMaxC= 1.00D-01 BMatC= 1.62D-05 BMatP= 7.95D-05
 IDIUse=3 WtCom= 9.98D-01 WtEn= 1.62D-03
 Coeff-Com: -0.217D-02 0.288D-02 0.273D-03-0.808D-04 0.350D-02-0.260D-03
 Coeff-Com: -0.458D-02-0.958D-02-0.551D-01 0.721D-01 0.741D-02-0.327D-01
 Coeff-Com:  0.543D-01 0.606D-01 0.903D+00
 Coeff-En:   0.000D+00 0.000D+00 0.000D+00 0.000D+00 0.000D+00 0.000D+00
 Coeff-En:   0.000D+00 0.000D+00 0.000D+00 0.000D+00 0.000D+00 0.000D+00
 Coeff-En:   0.000D+00 0.000D+00 0.100D+01
 Coeff:     -0.217D-02 0.288D-02 0.273D-03-0.806D-04 0.349D-02-0.260D-03
 Coeff:     -0.457D-02-0.957D-02-0.550D-01 0.720D-01 0.739D-02-0.326D-01
 Coeff:      0.542D-01 0.605D-01 0.904D+00
 Gap=     0.022 Goal=   None    Shift=    0.000
 Gap=     0.032 Goal=   None    Shift=    0.000
 RMSDP=1.42D-05 MaxDP=5.78D-04 DE=-1.96D-04 OVMax= 2.58D-03

 Cycle  16  Pass 1  IDiag  1:
 RMSU=  2.42D-06    CP:  9.73D-01  1.66D+00  1.41D-01 -1.80D-01  3.65D-01
                    CP:  1.06D+00  9.12D-01  2.28D-01 -3.46D-01 -7.43D-02
                    CP:  5.58D-01  7.82D-01  7.24D-01  9.12D-01  1.16D+00
 E= -496.705069098625     Delta-E=        0.000003086067 Rises=F Damp=F
 DIIS: error= 1.36D-04 at cycle  16 NSaved=  16.
 NSaved=16 IEnMin=10 EnMin= -496.707864869897     IErMin=16 ErrMin= 1.36D-04
 ErrMax= 1.36D-04  0.00D+00 EMaxC= 1.00D-01 BMatC= 1.43D-05 BMatP= 1.62D-05
 IDIUse=3 WtCom= 9.99D-01 WtEn= 1.36D-03
 Rare condition: small coef for last iteration:  0.000D+00
 Coeff-Com:  0.211D-03-0.322D-03-0.478D-04 0.322D-03-0.506D-04 0.118D-02
 Coeff-Com: -0.272D-02-0.160D-02-0.360D-01 0.304D-01 0.763D-02-0.127D-01
 Coeff-Com: -0.341D-01-0.771D-01 0.241D+00 0.884D+00
 Coeff-En:   0.000D+00 0.000D+00 0.000D+00 0.000D+00 0.000D+00 0.000D+00
 Coeff-En:   0.000D+00 0.000D+00 0.000D+00 0.000D+00 0.000D+00 0.000D+00
 Coeff-En:   0.000D+00 0.000D+00 0.000D+00 0.100D+01
 Coeff:      0.211D-03-0.322D-03-0.478D-04 0.322D-03-0.506D-04 0.118D-02
 Coeff:     -0.272D-02-0.160D-02-0.360D-01 0.304D-01 0.763D-02-0.127D-01
 Coeff:     -0.341D-01-0.771D-01 0.241D+00 0.884D+00
 Gap=     0.023 Goal=   None    Shift=    0.000
 Gap=     0.032 Goal=   None    Shift=    0.000
 RMSDP=2.56D-05 MaxDP=1.36D-03 DE= 3.09D-06 OVMax= 6.19D-03

 Cycle  17  Pass 1  IDiag  1:
 RMSU=  1.07D-06    CP:  9.73D-01  1.66D+00  1.39D-01 -1.76D-01  3.73D-01
                    CP:  1.06D+00  9.29D-01  2.78D-01 -3.17D-01 -7.26D-02
                    CP:  5.55D-01  7.65D-01  7.23D-01  9.45D-01  1.35D+00
                    CP:  1.16D+00
 E= -496.705072582090     Delta-E=       -0.000003483466 Rises=F Damp=F
 DIIS: error= 8.16D-06 at cycle  17 NSaved=  17.
 NSaved=17 IEnMin=10 EnMin= -496.707864869897     IErMin=17 ErrMin= 8.16D-06
 ErrMax= 8.16D-06  0.00D+00 EMaxC= 1.00D-01 BMatC= 6.31D-08 BMatP= 1.43D-05
 IDIUse=1 WtCom= 1.00D+00 WtEn= 0.00D+00
 Coeff-Com:  0.256D-03-0.341D-03 0.125D-03 0.133D-03-0.202D-03-0.897D-03
 Coeff-Com: -0.657D-03 0.125D-04 0.125D-02-0.460D-02 0.395D-02-0.636D-03
 Coeff-Com: -0.149D-01-0.458D-01-0.257D-01 0.474D+00 0.614D+00
 Coeff:      0.256D-03-0.341D-03 0.125D-03 0.133D-03-0.202D-03-0.897D-03
 Coeff:     -0.657D-03 0.125D-04 0.125D-02-0.460D-02 0.395D-02-0.636D-03
 Coeff:     -0.149D-01-0.458D-01-0.257D-01 0.474D+00 0.614D+00
 Gap=     0.023 Goal=   None    Shift=    0.000
 Gap=     0.032 Goal=   None    Shift=    0.000
 RMSDP=5.06D-06 MaxDP=2.20D-04 DE=-3.48D-06 OVMax= 1.09D-03

 Cycle  18  Pass 1  IDiag  1:
 RMSU=  5.41D-07    CP:  9.73D-01  1.66D+00  1.39D-01 -1.77D-01  3.71D-01
                    CP:  1.06D+00  9.25D-01  2.66D-01 -3.24D-01 -7.31D-02
                    CP:  5.59D-01  7.70D-01  7.28D-01  9.46D-01  1.33D+00
                    CP:  1.33D+00  1.00D+00
 E= -496.705072489060     Delta-E=        0.000000093030 Rises=F Damp=F
 DIIS: error= 1.01D-05 at cycle  18 NSaved=  18.
 NSaved=18 IEnMin=10 EnMin= -496.707864869897     IErMin=17 ErrMin= 8.16D-06
 ErrMax= 1.01D-05  0.00D+00 EMaxC= 1.00D-01 BMatC= 8.07D-08 BMatP= 6.31D-08
 IDIUse=1 WtCom= 1.00D+00 WtEn= 0.00D+00
 Coeff-Com:  0.522D-04-0.597D-04-0.549D-05-0.379D-04-0.106D-03 0.671D-04
 Coeff-Com:  0.216D-03 0.209D-03 0.709D-02-0.731D-02-0.263D-02 0.243D-02
 Coeff-Com:  0.610D-02 0.106D-01-0.659D-01-0.130D+00 0.107D+00 0.107D+01
 Coeff:      0.522D-04-0.597D-04-0.549D-05-0.379D-04-0.106D-03 0.671D-04
 Coeff:      0.216D-03 0.209D-03 0.709D-02-0.731D-02-0.263D-02 0.243D-02
 Coeff:      0.610D-02 0.106D-01-0.659D-01-0.130D+00 0.107D+00 0.107D+01
 Gap=     0.023 Goal=   None    Shift=    0.000
 Gap=     0.032 Goal=   None    Shift=    0.000
 RMSDP=1.62D-06 MaxDP=6.24D-05 DE= 9.30D-08 OVMax= 3.24D-04

 Cycle  19  Pass 1  IDiag  1:
 RMSU=  1.97D-07    CP:  9.73D-01  1.66D+00  1.39D-01 -1.77D-01  3.71D-01
                    CP:  1.06D+00  9.24D-01  2.64D-01 -3.25D-01 -7.32D-02
                    CP:  5.59D-01  7.74D-01  7.30D-01  9.49D-01  1.34D+00
                    CP:  1.43D+00  1.23D+00  1.23D+00
 E= -496.705072516319     Delta-E=       -0.000000027260 Rises=F Damp=F
 DIIS: error= 4.41D-06 at cycle  19 NSaved=  19.
 NSaved=19 IEnMin=10 EnMin= -496.707864869897     IErMin=19 ErrMin= 4.41D-06
 ErrMax= 4.41D-06  0.00D+00 EMaxC= 1.00D-01 BMatC= 1.39D-08 BMatP= 6.31D-08
 IDIUse=1 WtCom= 1.00D+00 WtEn= 0.00D+00
 Coeff-Com: -0.275D-04 0.405D-04-0.113D-04-0.403D-04-0.446D-05 0.141D-04
 Coeff-Com:  0.306D-03 0.435D-03 0.263D-02-0.235D-02-0.117D-02 0.676D-03
 Coeff-Com:  0.221D-02 0.699D-02-0.240D-01-0.792D-01-0.239D-02 0.436D+00
 Coeff-Com:  0.660D+00
 Coeff:     -0.275D-04 0.405D-04-0.113D-04-0.403D-04-0.446D-05 0.141D-04
 Coeff:      0.306D-03 0.435D-03 0.263D-02-0.235D-02-0.117D-02 0.676D-03
 Coeff:      0.221D-02 0.699D-02-0.240D-01-0.792D-01-0.239D-02 0.436D+00
 Coeff:      0.660D+00
 Gap=     0.023 Goal=   None    Shift=    0.000
 Gap=     0.032 Goal=   None    Shift=    0.000
 RMSDP=3.58D-07 MaxDP=1.70D-05 DE=-2.73D-08 OVMax= 8.01D-05

 Cycle  20  Pass 1  IDiag  1:
 RMSU=  8.39D-08    CP:  9.73D-01  1.66D+00  1.39D-01 -1.77D-01  3.71D-01
                    CP:  1.06D+00  9.25D-01  2.65D-01 -3.24D-01 -7.32D-02
                    CP:  5.59D-01  7.73D-01  7.30D-01  9.50D-01  1.34D+00
                    CP:  1.44D+00  1.25D+00  1.29D+00  1.04D+00
 E= -496.705072517585     Delta-E=       -0.000000001266 Rises=F Damp=F
 DIIS: error= 2.54D-06 at cycle  20 NSaved=  20.
 NSaved=20 IEnMin=10 EnMin= -496.707864869897     IErMin=20 ErrMin= 2.54D-06
 ErrMax= 2.54D-06  0.00D+00 EMaxC= 1.00D-01 BMatC= 4.19D-09 BMatP= 1.39D-08
 IDIUse=1 WtCom= 1.00D+00 WtEn= 0.00D+00
 Coeff-Com: -0.474D-04 0.614D-04-0.383D-05-0.180D-04 0.438D-04-0.648D-04
 Coeff-Com:  0.195D-03 0.360D-03-0.856D-03 0.121D-02 0.264D-03-0.475D-03
 Coeff-Com: -0.141D-02 0.353D-03 0.604D-02-0.118D-02-0.306D-01-0.766D-01
 Coeff-Com:  0.344D+00 0.759D+00
 Coeff:     -0.474D-04 0.614D-04-0.383D-05-0.180D-04 0.438D-04-0.648D-04
 Coeff:      0.195D-03 0.360D-03-0.856D-03 0.121D-02 0.264D-03-0.475D-03
 Coeff:     -0.141D-02 0.353D-03 0.604D-02-0.118D-02-0.306D-01-0.766D-01
 Coeff:      0.344D+00 0.759D+00
 Gap=     0.023 Goal=   None    Shift=    0.000
 Gap=     0.032 Goal=   None    Shift=    0.000
 RMSDP=4.31D-07 MaxDP=2.07D-05 DE=-1.27D-09 OVMax= 1.01D-04

 Cycle  21  Pass 1  IDiag  1:
 Restarting incremental Fock formation.
 E= -496.705072517771     Delta-E=       -0.000000000186 Rises=F Damp=F
 DIIS: error= 2.93D-07 at cycle  21 NSaved=  20.
 NSaved=20 IEnMin= 9 EnMin= -496.707864869897     IErMin=20 ErrMin= 2.93D-07
 ErrMax= 2.93D-07  0.00D+00 EMaxC= 1.00D-01 BMatC= 5.83D-11 BMatP= 4.19D-09
 IDIUse=1 WtCom= 1.00D+00 WtEn= 0.00D+00
 Coeff-Com: -0.163D-04 0.208D-04 0.132D-06 0.198D-04-0.230D-04 0.107D-04
 Coeff-Com:  0.308D-04-0.834D-03 0.945D-03 0.296D-03-0.215D-03-0.803D-03
 Coeff-Com: -0.921D-03 0.464D-02 0.102D-01-0.688D-02-0.944D-01-0.309D-01
 Coeff-Com:  0.255D+00 0.864D+00
 Coeff:     -0.163D-04 0.208D-04 0.132D-06 0.198D-04-0.230D-04 0.107D-04
 Coeff:      0.308D-04-0.834D-03 0.945D-03 0.296D-03-0.215D-03-0.803D-03
 Coeff:     -0.921D-03 0.464D-02 0.102D-01-0.688D-02-0.944D-01-0.309D-01
 Coeff:      0.255D+00 0.864D+00
 Gap=     0.023 Goal=   None    Shift=    0.000
 Gap=     0.032 Goal=   None    Shift=    0.000
 RMSDP=1.75D-07 MaxDP=6.57D-06 DE=-1.86D-10 OVMax= 3.47D-05

 Cycle  22  Pass 1  IDiag  1:
 RMSU=  1.75D-07    CP:  1.00D+00
 E= -496.705072517648     Delta-E=        0.000000000123 Rises=F Damp=F
 DIIS: error= 3.98D-07 at cycle  22 NSaved=  20.
 NSaved=20 IEnMin= 8 EnMin= -496.707864869897     IErMin=19 ErrMin= 2.93D-07
 ErrMax= 3.98D-07  0.00D+00 EMaxC= 1.00D-01 BMatC= 1.37D-10 BMatP= 5.83D-11
 IDIUse=1 WtCom= 1.00D+00 WtEn= 0.00D+00
 Coeff-Com: -0.266D-06 0.274D-05 0.278D-05 0.373D-05-0.320D-04-0.626D-04
 Coeff-Com: -0.219D-03 0.225D-03 0.848D-04-0.201D-05-0.134D-04-0.311D-03
 Coeff-Com:  0.768D-03 0.222D-02 0.137D-02-0.267D-01-0.643D-01 0.918D-02
 Coeff-Com:  0.432D+00 0.646D+00
 Coeff:     -0.266D-06 0.274D-05 0.278D-05 0.373D-05-0.320D-04-0.626D-04
 Coeff:     -0.219D-03 0.225D-03 0.848D-04-0.201D-05-0.134D-04-0.311D-03
 Coeff:      0.768D-03 0.222D-02 0.137D-02-0.267D-01-0.643D-01 0.918D-02
 Coeff:      0.432D+00 0.646D+00
 Gap=     0.023 Goal=   None    Shift=    0.000
 Gap=     0.032 Goal=   None    Shift=    0.000
 RMSDP=2.23D-08 MaxDP=1.17D-06 DE= 1.23D-10 OVMax= 3.68D-06

 Cycle  23  Pass 1  IDiag  1:
 RMSU=  2.01D-08    CP:  1.00D+00  9.45D-01
 E= -496.705072517678     Delta-E=       -0.000000000030 Rises=F Damp=F
 DIIS: error= 2.48D-07 at cycle  23 NSaved=  20.
 NSaved=20 IEnMin= 7 EnMin= -496.707864869897     IErMin=20 ErrMin= 2.48D-07
 ErrMax= 2.48D-07  0.00D+00 EMaxC= 1.00D-01 BMatC= 5.67D-11 BMatP= 5.83D-11
 IDIUse=1 WtCom= 1.00D+00 WtEn= 0.00D+00
 Coeff-Com:  0.415D-06 0.234D-05 0.158D-04-0.301D-04-0.750D-04 0.120D-03
 Coeff-Com: -0.111D-03-0.106D-03 0.133D-03 0.530D-03 0.447D-03-0.882D-03
 Coeff-Com: -0.483D-02 0.660D-03 0.245D-01 0.864D-02-0.733D-01-0.243D+00
 Coeff-Com:  0.213D+00 0.107D+01
 Coeff:      0.415D-06 0.234D-05 0.158D-04-0.301D-04-0.750D-04 0.120D-03
 Coeff:     -0.111D-03-0.106D-03 0.133D-03 0.530D-03 0.447D-03-0.882D-03
 Coeff:     -0.483D-02 0.660D-03 0.245D-01 0.864D-02-0.733D-01-0.243D+00
 Coeff:      0.213D+00 0.107D+01
 Gap=     0.023 Goal=   None    Shift=    0.000
 Gap=     0.032 Goal=   None    Shift=    0.000
 RMSDP=4.98D-08 MaxDP=2.47D-06 DE=-2.99D-11 OVMax= 1.04D-05

 Cycle  24  Pass 1  IDiag  1:
 RMSU=  1.55D-08    CP:  1.00D+00  6.92D-01  1.82D+00
 E= -496.705072517699     Delta-E=       -0.000000000021 Rises=F Damp=F
 DIIS: error= 1.14D-07 at cycle  24 NSaved=  20.
 NSaved=20 IEnMin= 6 EnMin= -496.707864869897     IErMin=20 ErrMin= 1.14D-07
 ErrMax= 1.14D-07  0.00D+00 EMaxC= 1.00D-01 BMatC= 8.14D-12 BMatP= 5.67D-11
 IDIUse=1 WtCom= 1.00D+00 WtEn= 0.00D+00
 Coeff-Com:  0.159D-06 0.377D-06-0.951D-06 0.410D-06 0.142D-05-0.160D-04
 Coeff-Com:  0.219D-05-0.175D-04-0.173D-04-0.125D-03 0.150D-03 0.538D-03
 Coeff-Com:  0.649D-03 0.110D-02-0.697D-03-0.176D-01-0.685D-01-0.328D-01
 Coeff-Com:  0.114D+00 0.100D+01
 Coeff:      0.159D-06 0.377D-06-0.951D-06 0.410D-06 0.142D-05-0.160D-04
 Coeff:      0.219D-05-0.175D-04-0.173D-04-0.125D-03 0.150D-03 0.538D-03
 Coeff:      0.649D-03 0.110D-02-0.697D-03-0.176D-01-0.685D-01-0.328D-01
 Coeff:      0.114D+00 0.100D+01
 Gap=     0.023 Goal=   None    Shift=    0.000
 Gap=     0.032 Goal=   None    Shift=    0.000
 RMSDP=2.37D-08 MaxDP=1.02D-06 DE=-2.13D-11 OVMax= 4.95D-06

 Cycle  25  Pass 1  IDiag  1:
 RMSU=  8.37D-09    CP:  1.00D+00  8.12D-01  2.17D+00  9.38D-01
 E= -496.705072517696     Delta-E=        0.000000000003 Rises=F Damp=F
 DIIS: error= 4.40D-08 at cycle  25 NSaved=  20.
 NSaved=20 IEnMin= 5 EnMin= -496.707864869897     IErMin=20 ErrMin= 4.40D-08
 ErrMax= 4.40D-08  0.00D+00 EMaxC= 1.00D-01 BMatC= 1.67D-12 BMatP= 8.14D-12
 IDIUse=1 WtCom= 1.00D+00 WtEn= 0.00D+00
 Coeff-Com: -0.842D-06 0.187D-05 0.565D-05-0.635D-05-0.326D-05 0.936D-05
 Coeff-Com: -0.191D-04-0.598D-04-0.117D-03 0.108D-03 0.755D-03 0.536D-03
 Coeff-Com: -0.142D-02-0.273D-02-0.402D-02-0.616D-02-0.369D-01-0.775D-01
 Coeff-Com:  0.474D+00 0.654D+00
 Coeff:     -0.842D-06 0.187D-05 0.565D-05-0.635D-05-0.326D-05 0.936D-05
 Coeff:     -0.191D-04-0.598D-04-0.117D-03 0.108D-03 0.755D-03 0.536D-03
 Coeff:     -0.142D-02-0.273D-02-0.402D-02-0.616D-02-0.369D-01-0.775D-01
 Coeff:      0.474D+00 0.654D+00
 Gap=     0.023 Goal=   None    Shift=    0.000
 Gap=     0.032 Goal=   None    Shift=    0.000
 RMSDP=5.65D-09 MaxDP=2.84D-07 DE= 3.18D-12 OVMax= 1.31D-06

 Error on total polarization charges =  0.00829
 SCF Done:  E(UB3LYP) =  -496.705072518     A.U. after   25 cycles
            NFock= 25  Conv=0.57D-08     -V/T= 2.0097
 <Sx>= 0.0000 <Sy>= 0.0000 <Sz>= 0.0000 <S**2>= 0.9409 S= 0.5913
 <L.S>=  0.00000000000    
 KE= 4.919475095639D+02 PE=-2.310291173160D+03 EE= 7.444880556331D+02
 Annihilation of the first spin contaminant:
 S**2 before annihilation     0.9409,   after     0.0021
 Leave Link  502 at Tue Jun 11 14:17:39 2019, MaxMem=   104857600 cpu:             753.0 elap:              19.4
 (Enter /project/6004141/group/g16/g16/l601.exe)
 Copying SCF densities to generalized density rwf, IOpCl= 1 IROHF=0.

 **********************************************************************

            Population analysis using the SCF density.

 **********************************************************************

 Orbital symmetries:
 Alpha Orbitals:
       Occupied  (A) (A) (A) (A) (A) (A) (A) (A) (A) (A) (A) (A)
                 (A) (A) (A) (A) (A) (A) (A) (A) (A) (A) (A) (A)
                 (A) (A) (A) (A) (A) (A) (A) (A) (A) (A) (A) (A)
                 (A) (A) (A) (A) (A)
       Virtual   (A) (A) (A) (A) (A) (A) (A) (A) (A) (A) (A) (A)
                 (A) (A) (A) (A) (A) (A) (A) (A) (A) (A) (A) (A)
                 (A) (A) (A) (A) (A) (A) (A) (A) (A) (A) (A) (A)
                 (A) (A) (A) (A) (A) (A) (A) (A) (A) (A) (A) (A)
                 (A) (A) (A) (A) (A) (A) (A) (A) (A) (A) (A) (A)
                 (A) (A) (A) (A) (A) (A) (A) (A) (A) (A) (A) (A)
                 (A) (A) (A) (A) (A) (A) (A) (A) (A) (A) (A) (A)
                 (A) (A) (A) (A) (A) (A) (A) (A) (A) (A) (A) (A)
                 (A) (A) (A) (A) (A) (A) (A) (A) (A) (A) (A) (A)
                 (A) (A) (A) (A) (A) (A) (A) (A) (A) (A) (A) (A)
                 (A) (A) (A) (A) (A) (A) (A) (A) (A) (A) (A) (A)
                 (A) (A) (A) (A) (A) (A) (A) (A) (A) (A) (A) (A)
                 (A) (A) (A) (A) (A) (A) (A) (A) (A) (A) (A) (A)
                 (A) (A) (A) (A) (A) (A) (A) (A) (A) (A) (A) (A)
                 (A) (A) (A) (A) (A) (A) (A) (A) (A) (A) (A) (A)
                 (A) (A) (A) (A)
 Beta  Orbitals:
       Occupied  (A) (A) (A) (A) (A) (A) (A) (A) (A) (A) (A) (A)
                 (A) (A) (A) (A) (A) (A) (A) (A) (A) (A) (A) (A)
                 (A) (A) (A) (A) (A) (A) (A) (A) (A) (A) (A) (A)
                 (A) (A) (A) (A) (A)
       Virtual   (A) (A) (A) (A) (A) (A) (A) (A) (A) (A) (A) (A)
                 (A) (A) (A) (A) (A) (A) (A) (A) (A) (A) (A) (A)
                 (A) (A) (A) (A) (A) (A) (A) (A) (A) (A) (A) (A)
                 (A) (A) (A) (A) (A) (A) (A) (A) (A) (A) (A) (A)
                 (A) (A) (A) (A) (A) (A) (A) (A) (A) (A) (A) (A)
                 (A) (A) (A) (A) (A) (A) (A) (A) (A) (A) (A) (A)
                 (A) (A) (A) (A) (A) (A) (A) (A) (A) (A) (A) (A)
                 (A) (A) (A) (A) (A) (A) (A) (A) (A) (A) (A) (A)
                 (A) (A) (A) (A) (A) (A) (A) (A) (A) (A) (A) (A)
                 (A) (A) (A) (A) (A) (A) (A) (A) (A) (A) (A) (A)
                 (A) (A) (A) (A) (A) (A) (A) (A) (A) (A) (A) (A)
                 (A) (A) (A) (A) (A) (A) (A) (A) (A) (A) (A) (A)
                 (A) (A) (A) (A) (A) (A) (A) (A) (A) (A) (A) (A)
                 (A) (A) (A) (A) (A) (A) (A) (A) (A) (A) (A) (A)
                 (A) (A) (A) (A) (A) (A) (A) (A) (A) (A) (A) (A)
                 (A) (A) (A) (A)
 The electronic state is 1-A.
 Alpha  occ. eigenvalues --  -19.16680 -14.36716 -14.32189 -10.26170 -10.19978
 Alpha  occ. eigenvalues --  -10.19256 -10.19045 -10.19028 -10.18983 -10.18875
 Alpha  occ. eigenvalues --  -10.18811  -1.04419  -0.96080  -0.85237  -0.77831
 Alpha  occ. eigenvalues --   -0.74471  -0.72856  -0.71195  -0.63666  -0.59939
 Alpha  occ. eigenvalues --   -0.58002  -0.53906  -0.53348  -0.48478  -0.46402
 Alpha  occ. eigenvalues --   -0.45942  -0.43933  -0.43653  -0.41988  -0.41354
 Alpha  occ. eigenvalues --   -0.39154  -0.38253  -0.36439  -0.35489  -0.34654
 Alpha  occ. eigenvalues --   -0.33543  -0.32745  -0.28342  -0.26130  -0.25377
 Alpha  occ. eigenvalues --   -0.11614
 Alpha virt. eigenvalues --   -0.09359  -0.00055   0.03332   0.08563   0.09701
 Alpha virt. eigenvalues --    0.12117   0.12782   0.14083   0.14769   0.15827
 Alpha virt. eigenvalues --    0.17091   0.17418   0.18268   0.19638   0.20639
 Alpha virt. eigenvalues --    0.23178   0.23940   0.26801   0.27905   0.30533
 Alpha virt. eigenvalues --    0.31174   0.33930   0.37464   0.41563   0.46689
 Alpha virt. eigenvalues --    0.50731   0.51619   0.52736   0.54729   0.55217
 Alpha virt. eigenvalues --    0.56082   0.56838   0.58908   0.59890   0.60647
 Alpha virt. eigenvalues --    0.61474   0.61675   0.62829   0.63205   0.65531
 Alpha virt. eigenvalues --    0.66680   0.67603   0.68933   0.69585   0.71501
 Alpha virt. eigenvalues --    0.72544   0.75013   0.75370   0.78130   0.81606
 Alpha virt. eigenvalues --    0.81862   0.82711   0.83317   0.85563   0.85825
 Alpha virt. eigenvalues --    0.87244   0.89155   0.90064   0.90598   0.91642
 Alpha virt. eigenvalues --    0.93518   0.94342   0.95255   0.97938   0.99085
 Alpha virt. eigenvalues --    1.00723   1.01673   1.06105   1.09108   1.10574
 Alpha virt. eigenvalues --    1.14668   1.16091   1.18601   1.20423   1.24500
 Alpha virt. eigenvalues --    1.25471   1.26442   1.32137   1.33361   1.36372
 Alpha virt. eigenvalues --    1.37528   1.40688   1.41389   1.41559   1.42774
 Alpha virt. eigenvalues --    1.43732   1.44213   1.48440   1.53728   1.57511
 Alpha virt. eigenvalues --    1.61674   1.67270   1.70249   1.75318   1.76455
 Alpha virt. eigenvalues --    1.77230   1.79503   1.81994   1.85376   1.86916
 Alpha virt. eigenvalues --    1.88371   1.88786   1.91792   1.93026   1.95027
 Alpha virt. eigenvalues --    1.96270   1.98067   2.00454   2.02998   2.05257
 Alpha virt. eigenvalues --    2.06187   2.07551   2.08989   2.09332   2.10899
 Alpha virt. eigenvalues --    2.13814   2.15288   2.20636   2.24275   2.25673
 Alpha virt. eigenvalues --    2.29627   2.30702   2.33284   2.35455   2.36684
 Alpha virt. eigenvalues --    2.37621   2.38887   2.39724   2.41094   2.43289
 Alpha virt. eigenvalues --    2.45026   2.45585   2.48206   2.48923   2.50251
 Alpha virt. eigenvalues --    2.52302   2.54845   2.55490   2.55961   2.58762
 Alpha virt. eigenvalues --    2.59905   2.64379   2.64668   2.65270   2.68099
 Alpha virt. eigenvalues --    2.69960   2.73053   2.73185   2.76255   2.77859
 Alpha virt. eigenvalues --    2.82585   2.83902   2.86707   2.90450   2.93338
 Alpha virt. eigenvalues --    2.96878   3.05478   3.07319   3.11942   3.18462
 Alpha virt. eigenvalues --    3.21337   3.24211   3.25984   3.27364   3.38239
 Alpha virt. eigenvalues --    3.39796   3.42078   3.43591   3.45045   3.46041
 Alpha virt. eigenvalues --    3.51107   3.58108   3.76461   3.88451   4.09488
 Alpha virt. eigenvalues --    4.11799   4.13741   4.16569   4.19313   4.31817
 Alpha virt. eigenvalues --    4.43296   4.44306   4.59436   4.84550
  Beta  occ. eigenvalues --  -19.16560 -14.36763 -14.32177 -10.26245 -10.19976
  Beta  occ. eigenvalues --  -10.19236 -10.19047 -10.19036 -10.18975 -10.18848
  Beta  occ. eigenvalues --  -10.18807  -1.04253  -0.96125  -0.85216  -0.77841
  Beta  occ. eigenvalues --   -0.74451  -0.72858  -0.71226  -0.63651  -0.59934
  Beta  occ. eigenvalues --   -0.58007  -0.53911  -0.53352  -0.48455  -0.46441
  Beta  occ. eigenvalues --   -0.45934  -0.43926  -0.43655  -0.41985  -0.41353
  Beta  occ. eigenvalues --   -0.39127  -0.38151  -0.36397  -0.35386  -0.34928
  Beta  occ. eigenvalues --   -0.33536  -0.32623  -0.28273  -0.25960  -0.25314
  Beta  occ. eigenvalues --   -0.12181
  Beta virt. eigenvalues --   -0.09009  -0.00022   0.03311   0.08558   0.09691
  Beta virt. eigenvalues --    0.12105   0.12770   0.14088   0.14747   0.15872
  Beta virt. eigenvalues --    0.17114   0.17421   0.18244   0.19658   0.20646
  Beta virt. eigenvalues --    0.23122   0.23926   0.26809   0.27918   0.30530
  Beta virt. eigenvalues --    0.31141   0.33935   0.37438   0.41557   0.46674
  Beta virt. eigenvalues --    0.50714   0.51608   0.52771   0.54744   0.55171
  Beta virt. eigenvalues --    0.56063   0.56839   0.58920   0.59911   0.60660
  Beta virt. eigenvalues --    0.61490   0.61689   0.62811   0.63179   0.65560
  Beta virt. eigenvalues --    0.66546   0.67518   0.68945   0.69606   0.71541
  Beta virt. eigenvalues --    0.72506   0.75018   0.75315   0.78106   0.81611
  Beta virt. eigenvalues --    0.81843   0.82704   0.83321   0.85545   0.85809
  Beta virt. eigenvalues --    0.87269   0.89161   0.90064   0.90596   0.91661
  Beta virt. eigenvalues --    0.93516   0.94366   0.95268   0.97901   0.99180
  Beta virt. eigenvalues --    1.00735   1.01690   1.06119   1.09118   1.10576
  Beta virt. eigenvalues --    1.14681   1.16110   1.18609   1.20435   1.24514
  Beta virt. eigenvalues --    1.25492   1.26448   1.32123   1.33376   1.36356
  Beta virt. eigenvalues --    1.37521   1.40713   1.41383   1.41568   1.42802
  Beta virt. eigenvalues --    1.43757   1.44231   1.48435   1.53675   1.57450
  Beta virt. eigenvalues --    1.61686   1.67317   1.70245   1.75316   1.76458
  Beta virt. eigenvalues --    1.77226   1.79519   1.82052   1.85347   1.86910
  Beta virt. eigenvalues --    1.88356   1.88738   1.91800   1.93004   1.94988
  Beta virt. eigenvalues --    1.96290   1.98082   2.00475   2.02987   2.05264
  Beta virt. eigenvalues --    2.06193   2.07540   2.08978   2.09326   2.10916
  Beta virt. eigenvalues --    2.13811   2.15313   2.20609   2.24212   2.25703
  Beta virt. eigenvalues --    2.29577   2.30722   2.33236   2.35380   2.36678
  Beta virt. eigenvalues --    2.37625   2.38892   2.39698   2.41103   2.43276
  Beta virt. eigenvalues --    2.45001   2.45582   2.48163   2.48925   2.50258
  Beta virt. eigenvalues --    2.52348   2.54883   2.55491   2.55958   2.58748
  Beta virt. eigenvalues --    2.59913   2.64404   2.64671   2.65200   2.68074
  Beta virt. eigenvalues --    2.69929   2.73048   2.73169   2.76237   2.77843
  Beta virt. eigenvalues --    2.82562   2.83890   2.86678   2.90430   2.93327
  Beta virt. eigenvalues --    2.96892   3.05474   3.07293   3.11925   3.18475
  Beta virt. eigenvalues --    3.21318   3.24211   3.25982   3.27366   3.38237
  Beta virt. eigenvalues --    3.39785   3.42077   3.43576   3.45029   3.46035
  Beta virt. eigenvalues --    3.51106   3.58084   3.76436   3.88455   4.09473
  Beta virt. eigenvalues --    4.11791   4.13742   4.16579   4.19355   4.31826
  Beta virt. eigenvalues --    4.43320   4.44321   4.59400   4.84554
          Condensed to atoms (all electrons):
               1          2          3          4          5          6
     1  C    4.853048   0.000003   0.301352   0.003972  -0.018710  -0.000072
     2  H    0.000003   0.451408  -0.000062  -0.027389   0.000827   0.337617
     3  O    0.301352  -0.000062   8.169232  -0.046264   0.238300   0.001068
     4  N    0.003972  -0.027389  -0.046264   7.075135   0.104196   0.161882
     5  H   -0.018710   0.000827   0.238300   0.104196   0.312560  -0.006981
     6  N   -0.000072   0.337617   0.001068   0.161882  -0.006981   6.589380
     7  H    0.000005  -0.033886   0.000544  -0.044951  -0.001705   0.353466
     8  H   -0.000226  -0.013789   0.001851   0.300782  -0.007627  -0.035115
     9  C    0.372140  -0.000000  -0.072797  -0.000127   0.003820   0.000001
    10  H   -0.028188   0.000000   0.002092  -0.000000   0.000003  -0.000000
    11  H   -0.026869   0.000000   0.002798   0.000001  -0.000127  -0.000000
    12  H   -0.027757   0.000000   0.001315   0.000023  -0.000028  -0.000000
    13  C    0.429369   0.000001  -0.049424   0.000805  -0.005002  -0.000008
    14  C   -0.055101   0.000003  -0.002509  -0.007754   0.002145   0.000380
    15  C   -0.050114  -0.000000   0.003473  -0.000061  -0.000092   0.000001
    16  C    0.006858  -0.000001   0.000721  -0.000490  -0.000123   0.000008
    17  H   -0.015114  -0.000028   0.006965   0.012727   0.000273  -0.000305
    18  C    0.005903   0.000000  -0.000066   0.000001   0.000000  -0.000000
    19  H   -0.012188   0.000000   0.000029  -0.000000   0.000002  -0.000000
    20  C    0.000392  -0.000000  -0.000007  -0.000001  -0.000006  -0.000000
    21  H   -0.000177  -0.000000   0.000001  -0.000015   0.000002   0.000000
    22  H   -0.000174  -0.000000   0.000000   0.000000  -0.000000   0.000000
    23  H    0.000006   0.000000  -0.000000   0.000000   0.000000  -0.000000
               7          8          9         10         11         12
     1  C    0.000005  -0.000226   0.372140  -0.028188  -0.026869  -0.027757
     2  H   -0.033886  -0.013789  -0.000000   0.000000   0.000000   0.000000
     3  O    0.000544   0.001851  -0.072797   0.002092   0.002798   0.001315
     4  N   -0.044951   0.300782  -0.000127  -0.000000   0.000001   0.000023
     5  H   -0.001705  -0.007627   0.003820   0.000003  -0.000127  -0.000028
     6  N    0.353466  -0.035115   0.000001  -0.000000  -0.000000  -0.000000
     7  H    0.426466   0.006802   0.000001   0.000000  -0.000000   0.000000
     8  H    0.006802   0.495609   0.000009  -0.000000  -0.000000   0.000001
     9  C    0.000001   0.000009   5.032071   0.368827   0.371134   0.365915
    10  H    0.000000  -0.000000   0.368827   0.572297  -0.023066  -0.030818
    11  H   -0.000000  -0.000000   0.371134  -0.023066   0.575249  -0.031878
    12  H    0.000000   0.000001   0.365915  -0.030818  -0.031878   0.580298
    13  C   -0.000008  -0.000057  -0.068385   0.003265  -0.002070  -0.000994
    14  C    0.000013   0.004346   0.006975  -0.000095  -0.000152  -0.000103
    15  C   -0.000000  -0.000016  -0.011222   0.000164   0.001944   0.000777
    16  C    0.000000   0.001051  -0.000138   0.000002  -0.000012   0.000004
    17  H   -0.000070  -0.002257   0.000062  -0.000003  -0.000007  -0.000010
    18  C    0.000000   0.000002   0.000117  -0.000001   0.000194   0.000002
    19  H   -0.000000  -0.000000   0.005183  -0.000068   0.001508   0.000189
    20  C   -0.000000  -0.000032  -0.000007   0.000000  -0.000003  -0.000001
    21  H    0.000000   0.000081   0.000002  -0.000000   0.000000  -0.000000
    22  H    0.000000  -0.000000   0.000004  -0.000000  -0.000003  -0.000001
    23  H   -0.000000  -0.000000  -0.000000  -0.000000  -0.000000   0.000000
              13         14         15         16         17         18
     1  C    0.429369  -0.055101  -0.050114   0.006858  -0.015114   0.005903
     2  H    0.000001   0.000003  -0.000000  -0.000001  -0.000028   0.000000
     3  O   -0.049424  -0.002509   0.003473   0.000721   0.006965  -0.000066
     4  N    0.000805  -0.007754  -0.000061  -0.000490   0.012727   0.000001
     5  H   -0.005002   0.002145  -0.000092  -0.000123   0.000273   0.000000
     6  N   -0.000008   0.000380   0.000001   0.000008  -0.000305  -0.000000
     7  H   -0.000008   0.000013  -0.000000   0.000000  -0.000070   0.000000
     8  H   -0.000057   0.004346  -0.000016   0.001051  -0.002257   0.000002
     9  C   -0.068385   0.006975  -0.011222  -0.000138   0.000062   0.000117
    10  H    0.003265  -0.000095   0.000164   0.000002  -0.000003  -0.000001
    11  H   -0.002070  -0.000152   0.001944  -0.000012  -0.000007   0.000194
    12  H   -0.000994  -0.000103   0.000777   0.000004  -0.000010   0.000002
    13  C    4.832248   0.443032   0.470183  -0.019905  -0.045095  -0.016551
    14  C    0.443032   5.053320  -0.052826   0.513363   0.342692  -0.042362
    15  C    0.470183  -0.052826   4.988346  -0.040603   0.006455   0.532013
    16  C   -0.019905   0.513363  -0.040603   4.853486  -0.037627  -0.029527
    17  H   -0.045095   0.342692   0.006455  -0.037627   0.637966  -0.000029
    18  C   -0.016551  -0.042362   0.532013  -0.029527  -0.000029   4.836784
    19  H   -0.041090   0.005699   0.370087   0.000213  -0.000129  -0.040908
    20  C   -0.030907  -0.043518  -0.044551   0.524443   0.005315   0.524858
    21  H    0.003489  -0.036994   0.000809   0.370390  -0.006334   0.004497
    22  H    0.003527   0.000756  -0.036614   0.004540   0.000014   0.370416
    23  H    0.000570   0.004797   0.004749  -0.040360  -0.000158  -0.040642
              19         20         21         22         23
     1  C   -0.012188   0.000392  -0.000177  -0.000174   0.000006
     2  H    0.000000  -0.000000  -0.000000  -0.000000   0.000000
     3  O    0.000029  -0.000007   0.000001   0.000000  -0.000000
     4  N   -0.000000  -0.000001  -0.000015   0.000000   0.000000
     5  H    0.000002  -0.000006   0.000002  -0.000000   0.000000
     6  N   -0.000000  -0.000000   0.000000   0.000000  -0.000000
     7  H   -0.000000  -0.000000   0.000000   0.000000  -0.000000
     8  H   -0.000000  -0.000032   0.000081  -0.000000  -0.000000
     9  C    0.005183  -0.000007   0.000002   0.000004  -0.000000
    10  H   -0.000068   0.000000  -0.000000  -0.000000  -0.000000
    11  H    0.001508  -0.000003   0.000000  -0.000003  -0.000000
    12  H    0.000189  -0.000001  -0.000000  -0.000001   0.000000
    13  C   -0.041090  -0.030907   0.003489   0.003527   0.000570
    14  C    0.005699  -0.043518  -0.036994   0.000756   0.004797
    15  C    0.370087  -0.044551   0.000809  -0.036614   0.004749
    16  C    0.000213   0.524443   0.370390   0.004540  -0.040360
    17  H   -0.000129   0.005315  -0.006334   0.000014  -0.000158
    18  C   -0.040908   0.524858   0.004497   0.370416  -0.040642
    19  H    0.612871   0.004846   0.000015  -0.006355  -0.000169
    20  C    0.004846   4.878671  -0.041240  -0.041500   0.372675
    21  H    0.000015  -0.041240   0.611138  -0.000184  -0.005556
    22  H   -0.006355  -0.041500  -0.000184   0.610781  -0.005625
    23  H   -0.000169   0.372675  -0.005556  -0.005625   0.609902
          Atomic-Atomic Spin Densities.
               1          2          3          4          5          6
     1  C   -0.039113   0.000012  -0.007376   0.008143  -0.001010  -0.000397
     2  H    0.000012   0.005114  -0.000012   0.001836  -0.000075  -0.001759
     3  O   -0.007376  -0.000012   0.048624  -0.007571   0.001888   0.000559
     4  N    0.008143   0.001836  -0.007571  -0.003732  -0.003154   0.002644
     5  H   -0.001010  -0.000075   0.001888  -0.003154  -0.004934   0.000260
     6  N   -0.000397  -0.001759   0.000559   0.002644   0.000260  -0.026812
     7  H    0.000057  -0.000110  -0.000126   0.002197  -0.000296  -0.000120
     8  H   -0.000103  -0.001505   0.000072   0.002474  -0.000203   0.001109
     9  C   -0.001747   0.000000  -0.000469   0.000066  -0.000077  -0.000002
    10  H   -0.001058   0.000000  -0.000177   0.000017   0.000029  -0.000001
    11  H   -0.000700   0.000000  -0.000051   0.000002   0.000004  -0.000000
    12  H    0.004036  -0.000000   0.000247  -0.000084  -0.000052   0.000005
    13  C    0.005221   0.000001  -0.000808   0.000612   0.000977  -0.000014
    14  C    0.000246  -0.000024   0.002270  -0.000369  -0.001840  -0.000077
    15  C   -0.002185  -0.000000   0.000109  -0.000175   0.000043   0.000002
    16  C   -0.000080  -0.000000   0.000009  -0.000048  -0.000013   0.000001
    17  H    0.002187   0.000008  -0.003168  -0.003199   0.002316   0.000208
    18  C    0.000102  -0.000000  -0.000001  -0.000001  -0.000004   0.000000
    19  H   -0.000168   0.000000   0.000005   0.000000   0.000003  -0.000000
    20  C    0.000017   0.000000  -0.000001   0.000023   0.000004  -0.000000
    21  H    0.000002   0.000000  -0.000000  -0.000003  -0.000000   0.000000
    22  H    0.000001  -0.000000  -0.000000  -0.000000  -0.000000   0.000000
    23  H   -0.000000   0.000000  -0.000000  -0.000000   0.000000   0.000000
               7          8          9         10         11         12
     1  C    0.000057  -0.000103  -0.001747  -0.001058  -0.000700   0.004036
     2  H   -0.000110  -0.001505   0.000000   0.000000   0.000000  -0.000000
     3  O   -0.000126   0.000072  -0.000469  -0.000177  -0.000051   0.000247
     4  N    0.002197   0.002474   0.000066   0.000017   0.000002  -0.000084
     5  H   -0.000296  -0.000203  -0.000077   0.000029   0.000004  -0.000052
     6  N   -0.000120   0.001109  -0.000002  -0.000001  -0.000000   0.000005
     7  H   -0.001144  -0.000447   0.000001   0.000001   0.000000  -0.000001
     8  H   -0.000447  -0.003030  -0.000001   0.000000   0.000000  -0.000001
     9  C    0.000001  -0.000001   0.006494   0.000878   0.001328  -0.001505
    10  H    0.000001   0.000000   0.000878  -0.000517  -0.000144   0.000711
    11  H    0.000000   0.000000   0.001328  -0.000144  -0.001316   0.000919
[...]
              13         14         15         16         17         18
     1  C   -0.037859   0.018648   0.019020   0.000180   0.000784   0.000187
     2  H   -0.000009   0.000012  -0.000001  -0.000001  -0.000003   0.000000
     3  O    0.003051  -0.002074  -0.000289   0.000001  -0.000739  -0.000002
     4  N   -0.001003   0.001755  -0.000069  -0.000092  -0.000913   0.000005
     5  H   -0.000669  -0.000566  -0.000107   0.000020   0.000487   0.000001
     6  N    0.000128  -0.000165   0.000073   0.000041   0.000024  -0.000003
     7  H    0.000015  -0.000021  -0.000005  -0.000001   0.000003   0.000000
     8  H    0.000034  -0.002307  -0.000038   0.000043   0.000420  -0.000002
     9  C    0.001674  -0.000222   0.000025  -0.000007  -0.000010  -0.000000
    10  H    0.000345  -0.000077  -0.000041   0.000000  -0.000011  -0.000001
    11  H    0.000299  -0.000154  -0.000638   0.000000  -0.000007  -0.000034
    12  H    0.000261   0.000062  -0.000946  -0.000001   0.000011   0.000004
    13  C    0.126691   0.026360   0.022053  -0.000642   0.000327  -0.000109
    14  C    0.026360  -0.262600  -0.006332  -0.006574  -0.000572  -0.001783
    15  C    0.022053  -0.006332  -0.249097  -0.001234   0.000072  -0.009683
    16  C   -0.000642  -0.006574  -0.001234   0.125604  -0.000362   0.000043
    17  H    0.000327  -0.000572   0.000072  -0.000362   0.010742  -0.000000
    18  C   -0.000109  -0.001783  -0.009683   0.000043  -0.000000   0.118528
    19  H   -0.000586   0.000003  -0.001150   0.000019  -0.000002  -0.000381
    20  C   -0.001993   0.012000   0.011640   0.005899  -0.000008   0.011047
    21  H    0.000009   0.000696   0.000008  -0.000560  -0.000085  -0.000006
    22  H   -0.000001   0.000017   0.000502  -0.000004   0.000000  -0.000452
    23  H    0.000036  -0.000021  -0.000002  -0.000061  -0.000004  -0.000096
              19         20         21         22         23
     1  C   -0.000095  -0.000319   0.000003   0.000004  -0.000000
     2  H   -0.000000  -0.000000   0.000000   0.000000   0.000000
     3  O    0.000002   0.000003  -0.000000  -0.000000   0.000000
     4  N    0.000000  -0.000001   0.000004  -0.000000   0.000000
     5  H    0.000000   0.000005   0.000001  -0.000000  -0.000000
     6  N   -0.000000  -0.000003  -0.000000   0.000000  -0.000000
     7  H    0.000000   0.000000   0.000000  -0.000000   0.000000
     8  H    0.000000   0.000047   0.000005  -0.000000   0.000000
     9  C   -0.000073   0.000001  -0.000000   0.000000   0.000000
    10  H   -0.000003   0.000000  -0.000000   0.000000  -0.000000
    11  H   -0.000102   0.000004  -0.000000   0.000001  -0.000000
    12  H    0.000055   0.000001   0.000000  -0.000000   0.000000
    13  C   -0.000586  -0.001993   0.000009  -0.000001   0.000036
    14  C    0.000003   0.012000   0.000696   0.000017  -0.000021
    15  C   -0.001150   0.011640   0.000008   0.000502  -0.000002
    16  C    0.000019   0.005899  -0.000560  -0.000004  -0.000061
    17  H   -0.000002  -0.000008  -0.000085   0.000000  -0.000004
    18  C   -0.000381   0.011047  -0.000006  -0.000452  -0.000096
    19  H    0.011912  -0.000023   0.000000  -0.000030  -0.000003
    20  C   -0.000023  -0.293995   0.000552   0.000528  -0.001645
    21  H    0.000000   0.000552  -0.005080   0.000000  -0.000074
    22  H   -0.000030   0.000528   0.000000  -0.004688  -0.000075
    23  H   -0.000003  -0.001645  -0.000074  -0.000075   0.013987
 Mulliken charges and spin densities:
               1          2
     1  C    0.236686  -0.578797
     2  H    0.306857  -0.004344
     3  O   -0.589997  -0.075310
     4  N   -0.438990   0.678941
     5  H    0.373899  -0.012676
     6  N   -0.374704   0.325227
     7  H    0.311627  -0.007526
     8  H    0.272835  -0.023832
     9  C   -0.370078   0.049798
    10  H    0.122211  -0.013093
    11  H    0.120322  -0.005142
    12  H    0.124684  -0.037820
    13  C    0.100772   0.138411
    14  C   -0.158354  -0.223917
    15  C   -0.153646  -0.216239
    16  C   -0.107065   0.122308
    17  H    0.088039   0.010151
    18  C   -0.107781   0.117262
    19  H    0.089128   0.009541
    20  C   -0.118382  -0.256262
    21  H    0.091605  -0.004528
    22  H    0.091654  -0.004198
    23  H    0.088679   0.012043
 Sum of Mulliken charges =  -0.00000  -0.00000
 Mulliken charges and spin densities with hydrogens summed into heavy atoms:
               1          2
     1  C    0.236686  -0.578797
     3  O   -0.216098  -0.087986
     4  N   -0.166155   0.655110
     6  N    0.243779   0.313357
     9  C   -0.002861  -0.006258
    13  C    0.100772   0.138411
    14  C   -0.070315  -0.213766
    15  C   -0.064518  -0.206698
    16  C   -0.015461   0.117781
    18  C   -0.016126   0.113065
    20  C   -0.029703  -0.244219
 Electronic spatial extent (au):  <R**2>=           2024.8019
 Charge=             -0.0000 electrons
 Dipole moment (field-independent basis, Debye):
    X=             -1.9452    Y=             -3.0298    Z=             -3.8155  Tot=              5.2461
 Quadrupole moment (field-independent basis, Debye-Ang):
   XX=            -60.2080   YY=            -54.3261   ZZ=            -63.8652
   XY=              5.6007   XZ=              8.6651   YZ=              0.9111
 Traceless Quadrupole moment (field-independent basis, Debye-Ang):
   XX=             -0.7416   YY=              5.1403   ZZ=             -4.3987
   XY=              5.6007   XZ=              8.6651   YZ=              0.9111
 Octapole moment (field-independent basis, Debye-Ang**2):
  XXX=            -36.1613  YYY=            -25.5786  ZZZ=            -11.3949  XYY=            -18.3173
  XXY=            -20.8588  XXZ=            -38.9727  XZZ=            -18.2292  YZZ=            -12.6542
  YYZ=            -12.5852  XYZ=            -15.7258
 Hexadecapole moment (field-independent basis, Debye-Ang**3):
 XXXX=          -1352.0878 YYYY=           -810.3639 ZZZZ=           -278.2282 XXXY=             29.6568
 XXXZ=             68.4915 YYYX=             45.0043 YYYZ=             30.3820 ZZZX=             29.9250
 ZZZY=             20.1966 XXYY=           -363.0809 XXZZ=           -260.2225 YYZZ=           -170.9492
 XXYZ=             29.8475 YYXZ=             37.1158 ZZXY=             34.5868
 N-N= 5.890773749850D+02 E-N=-2.334376211885D+03  KE= 4.920203653553D+02
                          Isotropic Fermi Contact Couplings
        Atom                 a.u.       MegaHertz       Gauss      10(-4) cm-1
     1  C(13)             -0.06665     -37.46239     -13.36751     -12.49611
     2  H(1)              -0.00017      -0.37234      -0.13286      -0.12420
     3  O(17)             -0.03394      10.28782       3.67095       3.43165
     4  N(14)              0.09379      15.15122       5.40633       5.05390
     5  H(1)              -0.00530     -11.84651      -4.22713      -3.95157
     6  N(14)              0.09671      15.62406       5.57505       5.21163
     7  H(1)              -0.00237      -5.30691      -1.89364      -1.77019
     8  H(1)              -0.00932     -20.83144      -7.43318      -6.94862
     9  C(13)              0.01782      10.01843       3.57483       3.34179
    10  H(1)              -0.00612     -13.68812      -4.88426      -4.56587
    11  H(1)              -0.00251      -5.61420      -2.00329      -1.87270
    12  H(1)              -0.01721     -38.45223     -13.72071     -12.82628
    13  C(13)              0.02872      16.14104       5.75953       5.38407
    14  C(13)             -0.02372     -13.33146      -4.75700      -4.44690
    15  C(13)             -0.02509     -14.10038      -5.03137      -4.70338
    16  C(13)              0.01813      10.18949       3.63586       3.39885
    17  H(1)               0.00391       8.72967       3.11496       2.91190
    18  C(13)              0.01750       9.83876       3.51071       3.28186
    19  H(1)               0.00323       7.21662       2.57507       2.40720
    20  C(13)             -0.02768     -15.55834      -5.55160      -5.18970
    21  H(1)              -0.00149      -3.33883      -1.19138      -1.11371
    22  H(1)              -0.00134      -3.00310      -1.07158      -1.00172
    23  H(1)               0.00389       8.69077       3.10108       2.89893
 --------------------------------------------------------
       Center         ----  Spin Dipole Couplings  ----
                      3XX-RR        3YY-RR        3ZZ-RR
 --------------------------------------------------------
     1   Atom        0.252727      0.218946     -0.471672
     2   Atom       -0.022179      0.013353      0.008826
     3   Atom        0.143633      0.289265     -0.432898
     4   Atom        0.619359      0.038670     -0.658029
     5   Atom       -0.012733      0.004485      0.008248
     6   Atom        0.307618     -0.040389     -0.267229
     7   Atom        0.020223      0.008751     -0.028975
     8   Atom        0.023948      0.040202     -0.064150
     9   Atom        0.005081     -0.004869     -0.000212
    10   Atom        0.001395     -0.006499      0.005104
    11   Atom        0.004360     -0.007643      0.003283
    12   Atom        0.002873     -0.001018     -0.001855
    13   Atom       -0.025628     -0.012728      0.038356
    14   Atom        0.051241     -0.004125     -0.047116
    15   Atom        0.035716      0.026459     -0.062175
    16   Atom       -0.025125     -0.007292      0.032417
    17   Atom        0.003756     -0.001582     -0.002174
    18   Atom       -0.018910     -0.015474      0.034384
    19   Atom        0.008528     -0.007956     -0.000572
    20   Atom        0.059045      0.033301     -0.092345
    21   Atom       -0.002016      0.000754      0.001262
    22   Atom       -0.000290     -0.002194      0.002485
    23   Atom       -0.009244      0.002673      0.006572
 --------------------------------------------------------
                        XY            XZ            YZ
 --------------------------------------------------------
     1   Atom       -0.108369     -0.281375     -0.330409
     2   Atom        0.001121     -0.015474      0.040728
     3   Atom       -0.021157     -0.248187     -0.016145
     4   Atom        1.040969     -0.408496     -0.318338
     5   Atom       -0.005024      0.000692      0.033411
     6   Atom        0.528557     -0.315070     -0.234445
     7   Atom       -0.034465      0.010128     -0.022247
     8   Atom       -0.054471      0.000892     -0.020240
     9   Atom        0.003995     -0.002185      0.005504
    10   Atom        0.007114     -0.000116      0.000348
    11   Atom       -0.002088      0.001476      0.004382
    12   Atom        0.004512     -0.003516      0.006193
    13   Atom        0.038015      0.041415      0.041248
    14   Atom       -0.074432     -0.093939     -0.125303
    15   Atom       -0.069939     -0.104696     -0.114878
    16   Atom        0.032321      0.047830      0.052494
    17   Atom       -0.002992      0.015009      0.005402
    18   Atom        0.034928      0.041908      0.050313
    19   Atom       -0.000662     -0.001872      0.007301
    20   Atom       -0.071984     -0.118776     -0.143863
    21   Atom        0.001504      0.004483     -0.000245
    22   Atom        0.004710     -0.000287      0.001318
    23   Atom        0.012362     -0.002245     -0.008969
 --------------------------------------------------------


 ---------------------------------------------------------------------------------
              Anisotropic Spin Dipole Couplings in Principal Axis System
 ---------------------------------------------------------------------------------

       Atom             a.u.   MegaHertz   Gauss  10(-4) cm-1        Axes

              Baa    -0.6997   -93.896   -33.504   -31.320  0.3018  0.3540  0.8852
     1 C(13)  Bbb     0.3455    46.360    16.543    15.464  0.7940 -0.6073 -0.0278
              Bcc     0.3542    47.536    16.962    15.856  0.5278  0.7112 -0.4643
 
              Baa    -0.0389   -20.760    -7.408    -6.925  0.6071 -0.4965  0.6204
     2 H(1)   Bbb    -0.0143    -7.619    -2.719    -2.541  0.7836  0.5039 -0.3635
              Bcc     0.0532    28.379    10.126     9.466 -0.1322  0.7068  0.6950
 
              Baa    -0.5256    38.035    13.572    12.687  0.3483  0.0276  0.9370
     3 O(17)  Bbb     0.2322   -16.805    -5.997    -5.606  0.9078  0.2393 -0.3445
              Bcc     0.2934   -21.230    -7.575    -7.081 -0.2337  0.9706  0.0583
 
              Baa    -0.7818   -30.152   -10.759   -10.058  0.0545  0.3003  0.9523
     4 N(14)  Bbb    -0.7504   -28.939   -10.326    -9.653 -0.6300  0.7503 -0.2005
              Bcc     1.5322    59.092    21.085    19.711  0.7747  0.5890 -0.2301
 
              Baa    -0.0282   -15.050    -5.370    -5.020  0.2597  0.7095 -0.6552
     5 H(1)   Bbb    -0.0118    -6.290    -2.245    -2.098  0.9641 -0.1510  0.2185
              Bcc     0.0400    21.340     7.615     7.118 -0.0561  0.6884  0.7232
 
              Baa    -0.4243   -16.365    -5.839    -5.459 -0.4854  0.8321  0.2684
     6 N(14)  Bbb    -0.4062   -15.668    -5.591    -5.226  0.4287 -0.0410  0.9025
              Bcc     0.8305    32.032    11.430    10.685  0.7620  0.5531 -0.3368
 
              Baa    -0.0400   -21.343    -7.616    -7.119  0.1346  0.4886  0.8621
     7 H(1)   Bbb    -0.0153    -8.177    -2.918    -2.727  0.6873  0.5807 -0.4364
              Bcc     0.0553    29.519    10.533     9.847  0.7138 -0.6513  0.2576
 
              Baa    -0.0692   -36.908   -13.170   -12.311  0.1337  0.2443  0.9604
     8 H(1)   Bbb    -0.0196   -10.482    -3.740    -3.496  0.7563  0.6011 -0.2582
              Bcc     0.0888    47.390    16.910    15.808 -0.6404  0.7609 -0.1044
 
              Baa    -0.0099    -1.327    -0.474    -0.443 -0.2902  0.8023 -0.5216
     9 C(13)  Bbb     0.0034     0.455     0.162     0.152 -0.1120  0.5129  0.8511
              Bcc     0.0065     0.872     0.311     0.291  0.9504  0.3054 -0.0590
 
              Baa    -0.0107    -5.707    -2.036    -1.904 -0.5071  0.8616 -0.0227
    10 H(1)   Bbb     0.0051     2.721     0.971     0.908 -0.1464 -0.0601  0.9874
              Bcc     0.0056     2.986     1.065     0.996  0.8493  0.5041  0.1566
 
              Baa    -0.0096    -5.131    -1.831    -1.712  0.1737  0.9263 -0.3345
    11 H(1)   Bbb     0.0041     2.198     0.784     0.733  0.7033 -0.3544 -0.6162
              Bcc     0.0055     2.933     1.047     0.978  0.6893  0.1282  0.7130
 
              Baa    -0.0101    -5.395    -1.925    -1.800  0.4002 -0.6432  0.6528
    12 H(1)   Bbb     0.0042     2.236     0.798     0.746 -0.5267  0.4215  0.7382
              Bcc     0.0059     3.159     1.127     1.054  0.7500  0.6393  0.1700
 
              Baa    -0.0582    -7.812    -2.787    -2.606  0.8043 -0.5867 -0.0944
    13 C(13)  Bbb    -0.0298    -3.993    -1.425    -1.332  0.4020  0.6542 -0.6406
              Bcc     0.0880    11.805     4.212     3.938  0.4375  0.4773  0.7620
 
              Baa    -0.2081   -27.925    -9.964    -9.315  0.4194  0.5814  0.6972
    14 C(13)  Bbb     0.0999    13.404     4.783     4.471 -0.4003  0.8078 -0.4328
              Bcc     0.1082    14.521     5.182     4.844  0.8148  0.0976 -0.5715
 
              Baa    -0.2064   -27.703    -9.885    -9.241  0.4613  0.5000  0.7329
    15 C(13)  Bbb     0.1007    13.519     4.824     4.510  0.8482 -0.4908 -0.1990
              Bcc     0.1057    14.183     5.061     4.731  0.2602  0.7135 -0.6506
 
              Baa    -0.0526    -7.063    -2.520    -2.356  0.9014 -0.1950 -0.3866
    16 C(13)  Bbb    -0.0435    -5.841    -2.084    -1.948 -0.0527  0.8367 -0.5451
              Bcc     0.0962    12.904     4.604     4.304  0.4298  0.5118  0.7439
 
              Baa    -0.0169    -9.027    -3.221    -3.011 -0.5804 -0.3689  0.7260
    17 H(1)   Bbb     0.0008     0.402     0.143     0.134 -0.2864  0.9270  0.2421
              Bcc     0.0162     8.625     3.078     2.877  0.7623  0.0674  0.6437
 
              Baa    -0.0529    -7.094    -2.531    -2.366 -0.6065  0.7792 -0.1580
    18 C(13)  Bbb    -0.0392    -5.254    -1.875    -1.752  0.6628  0.3858 -0.6417
              Bcc     0.0920    12.348     4.406     4.119  0.4391  0.4940  0.7505
 
              Baa    -0.0125    -6.645    -2.371    -2.216 -0.0201  0.8504 -0.5257
    19 H(1)   Bbb     0.0032     1.712     0.611     0.571  0.3423  0.4999  0.7956
              Bcc     0.0092     4.932     1.760     1.645  0.9394 -0.1640 -0.3012
 
              Baa    -0.2490   -33.420   -11.925   -11.148  0.4108  0.4949  0.7657
    20 C(13)  Bbb     0.1192    16.001     5.709     5.337  0.8034 -0.5935 -0.0475
              Bcc     0.1298    17.419     6.216     5.810 -0.4310 -0.6347  0.6414
 
              Baa    -0.0055    -2.911    -1.039    -0.971  0.8082 -0.2174 -0.5473
    21 H(1)   Bbb     0.0009     0.500     0.179     0.167  0.0723  0.9590 -0.2742
              Bcc     0.0045     2.411     0.860     0.804  0.5844  0.1821  0.7907
 
              Baa    -0.0062    -3.316    -1.183    -1.106 -0.6205  0.7721 -0.1374
    22 H(1)   Bbb     0.0023     1.253     0.447     0.418 -0.4257 -0.1845  0.8858
              Bcc     0.0039     2.063     0.736     0.688  0.6586  0.6082  0.4432
 
              Baa    -0.0174    -9.283    -3.312    -3.096  0.8159 -0.5625 -0.1341
    23 H(1)   Bbb    -0.0002    -0.107    -0.038    -0.036  0.4464  0.4654  0.7643
              Bcc     0.0176     9.390     3.350     3.132  0.3675  0.6834 -0.6308
 

 ---------------------------------------------------------------------------------

 No NMR shielding tensors so no spin-rotation constants.
 Leave Link  601 at Tue Jun 11 14:28:44 2019, MaxMem=   104857600 cpu:              18.4 elap:               0.5
 (Enter /project/6004141/group/g16/g16/l9999.exe)
 1\1\GINC-BLG9212\FOpt\UB3LYP\6-31G(d,p)\C8H12N2O1\RZK\11-Jun-2019\0\\#
 p opt ub3lyp/6-31g(d,p) scrf=(iefpcm,solvent=acetonitrile) guess=(mix,
 always) empiricaldispersion=gd3\\Title Card Required\\0,1\C,0.38728219
 43,1.4277264768,-0.4446403621\H,3.0903087507,-1.6813836134,1.613844382
 4\O,1.5242166126,1.179904413,-1.1382104489\N,2.5590813759,-1.134847733
 4,-0.289793453\H,1.8750346295,0.2518618436,-0.9494552892\N,2.907996324
 1,-0.9016810792,0.9896127626\H,3.5168827006,-0.1026581421,1.1161026226
 \H,2.0868984919,-2.041898305,-0.3139004746\C,0.2793106315,2.8372414725
 ,0.0495731378\H,0.7677032495,3.5080480604,-0.6646485661\H,-0.757724106
 6,3.1589782577,0.1709815022\H,0.7881381319,2.9735384194,1.0156427759\C
 ,-0.5810865357,0.4114344679,-0.2267472237\C,-0.5167822026,-0.833866202
 5,-0.925634886\C,-1.655656944,0.5770196708,0.7002442851\C,-1.445209688
 4,-1.839263889,-0.6911545114\H,0.2435254717,-0.9750028466,-1.685290677
 7\C,-2.574300524,-0.4378905252,0.9223134043\H,-1.7422954168,1.50188699
 68,1.2611403983\C,-2.4800463943,-1.6602737477,0.2373800632\H,-1.372597
 5285,-2.7704667233,-1.2472142188\H,-3.3738054084,-0.2831613254,1.64221
 74346\H,-3.2024638148,-2.4501589462,0.4178243425\\Version=ES64L-G16Rev
 A.03\State=1-A\HF=-496.7478155\S2=0.986564\S2-1=0.\S2A=0.194531\RMSD=4
 .086e-09\RMSF=6.085e-06\Dipole=1.1362548,-0.9367492,1.4461865\Quadrupo
 le=2.5675607,1.5392609,-4.1068215,-4.5339565,6.1010048,1.1875585\PG=C0
 1 [X(C8H12N2O1)]\\@


 LET US LEARN TO DREAM, GENTLEMEN, THEN PERHAPS WE SHALL
 DISCOVER THE TRUTH;  BUT LET US BEWARE OF PUBLISHING
 OUR DREAMS ABROAD BEFORE THEY HAVE BEEN SCRUTINIZED
 BY OUR VIGILANT INTELLECT ... LET US ALWAYS ALLOW
 THE FRUIT TO HANG UNTIL IT IS RIPE.  UNRIPE FRUIT
 BRINGS EVEN THE GROWER BUT LITTLE PROFIT; IT DAMAGES
 THE HEALTH OF THOSE WHO CONSUME IT; IT ENDANGERS
 PARTICULARLY THE YOUTH WHO CANNOT YET DISTINGUISH
 BETWEEN RIPE AND UNRIPE FRUIT.

                                  -- KEKULE, 1890
 Job cpu time:       0 days  7 hours 10 minutes  2.4 seconds.
 Elapsed time:       0 days  0 hours 11 minutes 20.1 seconds.
 File lengths (MBytes):  RWF=    184 Int=      0 D2E=      0 Chk=     10 Scr=      2
 Normal termination of Gaussian 16 at Tue Jun 11 14:28:45 2019.
