 Entering Gaussian System, Link 0=g16
 Initial command:
 /project/6004141/group/g16/g16/l1.exe "/scratch/rzk/Gau-228779.inp" -scrdir="/scratch/rzk/"
 Entering Link 1 = /project/6004141/group/g16/g16/l1.exe PID=    228781.
  
 Copyright (c) 1988,1990,1992,1993,1995,1998,2003,2009,2016,
            Gaussian, Inc.  All Rights Reserved.
  
 This is part of the Gaussian(R) 16 program.  It is based on
 the Gaussian(R) 09 system (copyright 2009, Gaussian, Inc.),
 the Gaussian(R) 03 system (copyright 2003, Gaussian, Inc.),
 the Gaussian(R) 98 system (copyright 1998, Gaussian, Inc.),
 the Gaussian(R) 94 system (copyright 1995, Gaussian, Inc.),
 the Gaussian 92(TM) system (copyright 1992, Gaussian, Inc.),
 the Gaussian 90(TM) system (copyright 1990, Gaussian, Inc.),
 the Gaussian 88(TM) system (copyright 1988, Gaussian, Inc.),
 the Gaussian 86(TM) system (copyright 1986, Carnegie Mellon
 University), and the Gaussian 82(TM) system (copyright 1983,
 Carnegie Mellon University). Gaussian is a federally registered
 trademark of Gaussian, Inc.
  
 This software contains proprietary and confidential information,
 including trade secrets, belonging to Gaussian, Inc.
  
 This software is provided under written license and may be
 used, copied, transmitted, or stored only in accord with that
 written license.
  
 The following legend is applicable only to US Government
 contracts under FAR:
  
                    RESTRICTED RIGHTS LEGEND
  
 Use, reproduction and disclosure by the US Government is
 subject to restrictions as set forth in subparagraphs (a)
 and (c) of the Commercial Computer Software - Restricted
 Rights clause in FAR 52.227-19.
  
 Gaussian, Inc.
 340 Quinnipiac St., Bldg. 40, Wallingford CT 06492
  
  
 ---------------------------------------------------------------
 Warning -- This program may not be used in any manner that
 competes with the business of Gaussian, Inc. or will provide
 assistance to any competitor of Gaussian, Inc.  The licensee
 of this program is prohibited from giving any competitor of
 Gaussian, Inc. access to this program.  By using this program,
 the user acknowledges that Gaussian, Inc. is engaged in the
 business of creating and licensing software in the field of
 computational chemistry and represents and warrants to the
 licensee that it is not a competitor of Gaussian, Inc. and that
 it will not use this program in any manner prohibited above.
 ---------------------------------------------------------------
  

 Cite this work as:
 Gaussian 16, Revision A.03,
 M. J. Frisch, G. W. Trucks, H. B. Schlegel, G. E. Scuseria, 
 M. A. Robb, J. R. Cheeseman, G. Scalmani, V. Barone, 
 G. A. Petersson, H. Nakatsuji, X. Li, M. Caricato, A. V. Marenich, 
 J. Bloino, B. G. Janesko, R. Gomperts, B. Mennucci, H. P. Hratchian, 
 J. V. Ortiz, A. F. Izmaylov, J. L. Sonnenberg, D. Williams-Young, 
 F. Ding, F. Lipparini, F. Egidi, J. Goings, B. Peng, A. Petrone, 
 T. Henderson, D. Ranasinghe, V. G. Zakrzewski, J. Gao, N. Rega, 
 G. Zheng, W. Liang, M. Hada, M. Ehara, K. Toyota, R. Fukuda, 
 J. Hasegawa, M. Ishida, T. Nakajima, Y. Honda, O. Kitao, H. Nakai, 
 T. Vreven, K. Throssell, J. A. Montgomery, Jr., J. E. Peralta, 
 F. Ogliaro, M. J. Bearpark, J. J. Heyd, E. N. Brothers, K. N. Kudin, 
 V. N. Staroverov, T. A. Keith, R. Kobayashi, J. Normand, 
 K. Raghavachari, A. P. Rendell, J. C. Burant, S. S. Iyengar, 
 J. Tomasi, M. Cossi, J. M. Millam, M. Klene, C. Adamo, R. Cammi, 
 J. W. Ochterski, R. L. Martin, K. Morokuma, O. Farkas, 
 J. B. Foresman, and D. J. Fox, Gaussian, Inc., Wallingford CT, 2016.
 
 ******************************************
 Gaussian 16:  ES64L-G16RevA.03 25-Dec-2016
                13-Jun-2019 
 ******************************************
 %NProcShared=40
 Will use up to   40 processors via shared memory.
 %chk=ABH.chk
 ----------------------------------------------------------------------
 #p td=(nstates=100) ub3lyp/6-31g(d,p) scrf=(iefpcm,solvent=acetonitril
 e) guess=(core,mix) empiricaldispersion=gd3
 ----------------------------------------------------------------------
 1/38=1,172=1/1;
 2/12=2,17=6,18=5,40=1/2;
 3/5=1,6=6,7=101,11=2,25=1,30=1,70=2201,72=2,74=-5,116=2,124=31/1,2,3,8;
 4/5=2,13=-1/1;
 5/5=2,38=5,53=2/2;
 8/6=1,10=2,108=100/1;
 9/41=100,42=1,70=2/14;
 6/7=2,8=2,9=2,10=2/1;
 99/5=1,9=1/99;
 Leave Link    1 at Thu Jun 13 17:50:22 2019, MaxMem=           0 cpu:               7.7 elap:               0.2
 (Enter /project/6004141/group/g16/g16/l101.exe)
 -------------------
 Title Card Required
 -------------------
 Symbolic Z-matrix:
 Charge =  0 Multiplicity = 1
 C                     0.56833   0.21082  -0.4047 
 H                     4.90274  -0.95786  -0.402 
 O                     1.2594   -0.78588  -0.61312 
 N                     3.81889  -0.33344   1.14533 
 H                     3.50096   0.59323   1.42235 
 N                     4.21805  -0.22116  -0.24515 
 H                     3.41369  -0.45009  -0.83165 
 H                     2.98939  -0.92602   1.20901 
 C                     1.18804   1.59216  -0.38607 
 H                     0.71512   2.23599  -1.13463 
 H                     1.03617   2.06554   0.58974 
 H                     2.25554   1.52027  -0.59245 
 C                    -0.89882   0.07122  -0.16117 
 C                    -1.46194  -1.21651  -0.17624 
 C                    -1.72782   1.17837   0.08347 
 C                    -2.82339  -1.39442   0.04776 
 H                    -0.81242  -2.06419  -0.3654 
 C                    -3.09245   0.99861   0.30822 
 H                    -1.31682   2.1816    0.10067 
 C                    -3.6416   -0.2857    0.29062 
 H                    -3.24972  -2.39273   0.03424 
 H                    -3.72612   1.85949   0.49672 
 H                    -4.70436  -0.42336   0.46572 
 
 ITRead=  0  0  0  0  0  0  0  0  0  0  0  0  0  0  0  0  0  0  0  0
 ITRead=  0  0  0
 MicOpt= -1 -1 -1 -1 -1 -1 -1 -1 -1 -1 -1 -1 -1 -1 -1 -1 -1 -1 -1 -1
 MicOpt= -1 -1 -1
 NAtoms=     23 NQM=       23 NQMF=       0 NMMI=      0 NMMIF=      0
                NMic=       0 NMicF=      0.
                    Isotopes and Nuclear Properties:
 (Nuclear quadrupole moments (NQMom) in fm**2, nuclear magnetic moments (NMagM)
  in nuclear magnetons)

  Atom         1           2           3           4           5           6           7           8           9          10
 IAtWgt=          12           1          16          14           1          14           1           1          12           1
 AtmWgt=  12.0000000   1.0078250  15.9949146  14.0030740   1.0078250  14.0030740   1.0078250   1.0078250  12.0000000   1.0078250
 NucSpn=           0           1           0           2           1           2           1           1           0           1
 AtZEff=  -0.0000000  -0.0000000  -0.0000000  -0.0000000  -0.0000000  -0.0000000  -0.0000000  -0.0000000  -0.0000000  -0.0000000
 NQMom=    0.0000000   0.0000000   0.0000000   2.0440000   0.0000000   2.0440000   0.0000000   0.0000000   0.0000000   0.0000000
 NMagM=    0.0000000   2.7928460   0.0000000   0.4037610   2.7928460   0.4037610   2.7928460   2.7928460   0.0000000   2.7928460
 AtZNuc=   6.0000000   1.0000000   8.0000000   7.0000000   1.0000000   7.0000000   1.0000000   1.0000000   6.0000000   1.0000000

  Atom        11          12          13          14          15          16          17          18          19          20
 IAtWgt=           1           1          12          12          12          12           1          12           1          12
 AtmWgt=   1.0078250   1.0078250  12.0000000  12.0000000  12.0000000  12.0000000   1.0078250  12.0000000   1.0078250  12.0000000
 NucSpn=           1           1           0           0           0           0           1           0           1           0
 AtZEff=  -0.0000000  -0.0000000  -0.0000000  -0.0000000  -0.0000000  -0.0000000  -0.0000000  -0.0000000  -0.0000000  -0.0000000
 NQMom=    0.0000000   0.0000000   0.0000000   0.0000000   0.0000000   0.0000000   0.0000000   0.0000000   0.0000000   0.0000000
 NMagM=    2.7928460   2.7928460   0.0000000   0.0000000   0.0000000   0.0000000   2.7928460   0.0000000   2.7928460   0.0000000
 AtZNuc=   1.0000000   1.0000000   6.0000000   6.0000000   6.0000000   6.0000000   1.0000000   6.0000000   1.0000000   6.0000000

  Atom        21          22          23
 IAtWgt=           1           1           1
 AtmWgt=   1.0078250   1.0078250   1.0078250
 NucSpn=           1           1           1
 AtZEff=  -0.0000000  -0.0000000  -0.0000000
 NQMom=    0.0000000   0.0000000   0.0000000
 NMagM=    2.7928460   2.7928460   2.7928460
 AtZNuc=   1.0000000   1.0000000   1.0000000
 Leave Link  101 at Thu Jun 13 17:50:22 2019, MaxMem=   104857600 cpu:               5.7 elap:               0.2
 (Enter /project/6004141/group/g16/g16/l202.exe)
                          Input orientation:                          
 ---------------------------------------------------------------------
 Center     Atomic      Atomic             Coordinates (Angstroms)
 Number     Number       Type             X           Y           Z
 ---------------------------------------------------------------------
      1          6           0        0.568326    0.210816   -0.404695
      2          1           0        4.902740   -0.957863   -0.402000
      3          8           0        1.259404   -0.785877   -0.613115
      4          7           0        3.818887   -0.333442    1.145330
      5          1           0        3.500957    0.593234    1.422347
      6          7           0        4.218046   -0.221155   -0.245149
      7          1           0        3.413694   -0.450090   -0.831653
      8          1           0        2.989393   -0.926021    1.209005
      9          6           0        1.188036    1.592164   -0.386071
     10          1           0        0.715121    2.235994   -1.134627
     11          1           0        1.036166    2.065539    0.589738
     12          1           0        2.255536    1.520265   -0.592445
     13          6           0       -0.898822    0.071220   -0.161174
     14          6           0       -1.461944   -1.216508   -0.176239
     15          6           0       -1.727815    1.178365    0.083471
     16          6           0       -2.823394   -1.394418    0.047758
     17          1           0       -0.812423   -2.064189   -0.365400
     18          6           0       -3.092445    0.998613    0.308223
     19          1           0       -1.316817    2.181601    0.100673
     20          6           0       -3.641595   -0.285698    0.290616
     21          1           0       -3.249722   -2.392727    0.034242
     22          1           0       -3.726118    1.859493    0.496723
     23          1           0       -4.704364   -0.423359    0.465721
 ---------------------------------------------------------------------
                    Distance matrix (angstroms):
                    1          2          3          4          5
     1  C    0.000000
     2  H    4.489205   0.000000
     3  O    1.230620   3.653498   0.000000
     4  N    3.642107   1.989691   3.138117   0.000000
     5  H    3.476298   2.774732   3.327103   1.018109   0.000000
     6  N    3.678656   1.017913   3.034448   1.450989   1.989470
     7  H    2.952153   1.630857   2.191227   2.021447   2.485288
     8  H    3.123778   2.501449   2.516470   1.021403   1.617204
     9  C    1.514104   4.505765   2.389921   3.602017   3.101264
    10  H    2.157706   5.317294   3.114470   4.629640   4.122822
    11  H    2.155868   5.007484   3.102783   3.715821   2.989333
    12  H    2.143965   3.631126   2.512170   2.983313   2.543589
    13  C    1.493758   5.897044   2.365757   4.911973   4.705113
    14  C    2.492277   6.373937   2.789631   5.514846   5.519151
    15  C    2.539039   6.983080   3.642383   5.846282   5.429091
    16  C    3.779584   7.751517   4.180468   6.815441   6.770352
    17  H    2.661515   5.821373   2.447021   5.169799   5.372447
    18  C    3.811840   8.261670   4.792897   7.088133   6.699146
    19  H    2.773654   6.985113   3.994037   5.813106   5.242202
    20  C    4.295744   8.598673   5.008662   7.509435   7.284874
    21  H    4.642046   8.289257   4.830451   7.445831   7.510956
    22  H    4.687530   9.121534   5.751969   7.883956   7.395323
    23  H    5.381548   9.661008   6.071395   8.550775   8.323214
                    6          7          8          9         10
     6  N    0.000000
     7  H    1.021460   0.000000
     8  H    2.030022   2.137949   0.000000
     9  C    3.533970   3.053342   3.482874   0.000000
    10  H    4.370267   3.819573   4.545686   1.094761   0.000000
    11  H    4.006291   3.741842   3.626020   1.095149   1.762260
    12  H    2.646621   2.298010   3.125393   1.089640   1.783005
    13  C    5.125902   4.395350   4.241473   2.592070   2.870308
    14  C    5.766954   4.978836   4.670940   3.867178   4.192599
    15  C    6.117182   5.470323   5.286522   2.982262   2.927504
    16  C    7.144524   6.369175   5.946123   5.019905   5.205671
    17  H    5.358811   4.547832   4.269424   4.167875   4.627815
    18  C    7.432182   6.762241   6.442389   4.376856   4.255642
    19  H    6.043802   5.492974   5.424865   2.618901   2.378591
    20  C    7.878145   7.145881   6.724839   5.225859   5.231751
    21  H    7.782117   6.994621   6.515969   5.979107   6.205747
    22  H    8.245557   7.620740   7.305102   4.999970   4.746331
    23  H    8.952967   8.221117   7.745905   6.285560   6.245325
                   11         12         13         14         15
    11  H    0.000000
    12  H    1.783744   0.000000
    13  C    2.878429   3.497957   0.000000
    14  C    4.195129   4.634955   1.405552   0.000000
    15  C    2.946689   4.054731   1.404582   2.423541   0.000000
    16  C    5.211645   5.890736   2.428111   1.391177   2.796566
    17  H    4.624308   4.723583   2.146892   1.084538   3.399056
    18  C    4.273524   5.448323   2.427421   2.792848   1.394647
    19  H    2.406072   3.698579   2.167254   3.412461   1.084296
    20  C    5.243972   6.230365   2.802554   2.415624   2.418459
    21  H    6.209150   6.783223   3.411151   2.150336   3.882180
    22  H    4.767647   6.089462   3.409450   3.878291   2.151262
    23  H    6.258089   7.303259   3.888413   3.399189   3.401688
                   16         17         18         19         20
    16  C    0.000000
    17  H    2.159467   0.000000
    18  C    2.422154   3.877244   0.000000
    19  H    3.880784   4.300973   2.143687   0.000000
    20  C    1.399176   3.405525   1.396900   3.395326   0.000000
    21  H    1.085615   2.491601   3.406022   4.966388   2.158440
    22  H    3.406526   4.962676   1.085444   2.462791   2.156726
    23  H    2.157706   4.304682   2.155248   4.288887   1.085859
                   21         22         23
    21  H    0.000000
    22  H    4.303745   0.000000
    23  H    2.486075   2.483816   0.000000
 Stoichiometry    C8H12N2O
 Framework group  C1[X(C8H12N2O)]
 Deg. of freedom    63
 Full point group                 C1      NOp   1
 Largest Abelian subgroup         C1      NOp   1
 Largest concise Abelian subgroup C1      NOp   1
                         Standard orientation:                         
 ---------------------------------------------------------------------
 Center     Atomic      Atomic             Coordinates (Angstroms)
 Number     Number       Type             X           Y           Z
 ---------------------------------------------------------------------
      1          6           0        0.568326    0.210816   -0.404695
      2          1           0        4.902740   -0.957863   -0.402000
      3          8           0        1.259404   -0.785877   -0.613115
      4          7           0        3.818887   -0.333442    1.145330
      5          1           0        3.500957    0.593234    1.422347
      6          7           0        4.218046   -0.221155   -0.245149
      7          1           0        3.413694   -0.450090   -0.831653
      8          1           0        2.989393   -0.926021    1.209005
      9          6           0        1.188036    1.592164   -0.386071
     10          1           0        0.715121    2.235994   -1.134627
     11          1           0        1.036166    2.065539    0.589738
     12          1           0        2.255536    1.520265   -0.592445
     13          6           0       -0.898822    0.071220   -0.161174
     14          6           0       -1.461944   -1.216508   -0.176239
     15          6           0       -1.727815    1.178365    0.083471
     16          6           0       -2.823394   -1.394418    0.047758
     17          1           0       -0.812423   -2.064189   -0.365400
     18          6           0       -3.092445    0.998613    0.308223
     19          1           0       -1.316817    2.181601    0.100673
     20          6           0       -3.641595   -0.285698    0.290616
     21          1           0       -3.249722   -2.392727    0.034242
     22          1           0       -3.726118    1.859493    0.496723
     23          1           0       -4.704364   -0.423359    0.465721
 ---------------------------------------------------------------------
 Rotational constants (GHZ):           2.7287111           0.4626245           0.4212131
 Leave Link  202 at Thu Jun 13 17:50:23 2019, MaxMem=   104857600 cpu:               4.5 elap:               0.1
 (Enter /project/6004141/group/g16/g16/l301.exe)
 Standard basis: 6-31G(d,p) (6D, 7F)
 Ernie: Thresh=  0.10000D-02 Tol=  0.10000D-05 Strict=F.
 There are   225 symmetry adapted cartesian basis functions of A   symmetry.
 There are   225 symmetry adapted basis functions of A   symmetry.
   225 basis functions,   392 primitive gaussians,   225 cartesian basis functions
    41 alpha electrons       41 beta electrons
       nuclear repulsion energy       569.4143960803 Hartrees.
 IExCor=  402 DFT=T Ex+Corr=B3LYP ExCW=0 ScaHFX=  0.200000
 ScaDFX=  0.800000  0.720000  1.000000  0.810000 ScalE2=  1.000000  1.000000
 IRadAn=      5 IRanWt=     -1 IRanGd=            0 ICorTp=0 IEmpDi=131
 NAtoms=   23 NActive=   23 NUniq=   23 SFac= 1.00D+00 NAtFMM=   60 NAOKFM=F Big=F
 Integral buffers will be    131072 words long.
 Raffenetti 2 integral format.
 Two-electron integral symmetry is turned on.
 R6Disp:  Grimme-D3 Dispersion energy=       -0.0174004410 Hartrees.
 Nuclear repulsion after empirical dispersion term =      569.3969956392 Hartrees.
 ------------------------------------------------------------------------------
 Polarizable Continuum Model (PCM)
 =================================
 Model                : PCM.
 Atomic radii         : UFF (Universal Force Field).
 Polarization charges : Total charges.
 Charge compensation  : None.
 Solution method      : On-the-fly selection.
 Cavity type          : Scaled VdW (van der Waals Surface) (Alpha=1.100).
 Cavity algorithm     : GePol (No added spheres)
                        Default sphere list used, NSphG=   23.
                        Lebedev-Laikov grids with approx.  5.0 points / Ang**2.
                        Smoothing algorithm: York/Karplus (Gamma=1.0000).
                        Polarization charges: spherical gaussians, with
                                              point-specific exponents (IZeta= 3).
                        Self-potential: point-specific (ISelfS= 7).
                        Self-field    : sphere-specific E.n sum rule (ISelfD= 2).
 Solvent              : Acetonitrile, Eps=  35.688000 Eps(inf)=   1.806874
 ------------------------------------------------------------------------------
 GePol: Number of generator spheres                  =      23
 GePol: Total number of spheres                      =      23
 GePol: Number of exposed spheres                    =      23 (100.00%)
 GePol: Number of points                             =    1844
 GePol: Average weight of points                     =       0.13
 GePol: Minimum weight of points                     =   0.10D-10
 GePol: Maximum weight of points                     =    0.20577
 GePol: Number of points with low weight             =     117
 GePol: Fraction of low-weight points (<1% of avg)   =       6.34%
 GePol: Cavity surface area                          =    240.276 Ang**2
 GePol: Cavity volume                                =    243.489 Ang**3
 Leave Link  301 at Thu Jun 13 17:50:24 2019, MaxMem=   104857600 cpu:              11.2 elap:               0.4
 (Enter /project/6004141/group/g16/g16/l302.exe)
 NPDir=0 NMtPBC=     1 NCelOv=     1 NCel=       1 NClECP=     1 NCelD=      1
         NCelK=      1 NCelE2=     1 NClLst=     1 CellRange=     0.0.
 One-electron integrals computed using PRISM.
 One-electron integral symmetry used in STVInt
 PrsmSu:  requested number of processors reduced to:  29 ShMem   1 Linda.
 NBasis=   225 RedAO= T EigKep=  4.70D-04  NBF=   225
 NBsUse=   225 1.00D-06 EigRej= -1.00D+00 NBFU=   225
 Precomputing XC quadrature grid using
 IXCGrd= 4 IRadAn=           5 IRanWt=          -1 IRanGd=           0 AccXCQ= 0.00D+00.
 Generated NRdTot=       0 NPtTot=           0 NUsed=           0 NTot=          32
 NSgBfM=   224   224   224   224   224 MxSgAt=    23 MxSgA2=    23.
 Leave Link  302 at Thu Jun 13 17:50:24 2019, MaxMem=   104857600 cpu:              19.4 elap:               0.6
 (Enter /project/6004141/group/g16/g16/l303.exe)
 DipDrv:  MaxL=1.
 Leave Link  303 at Thu Jun 13 17:50:25 2019, MaxMem=   104857600 cpu:               3.9 elap:               0.1
 (Enter /project/6004141/group/g16/g16/l308.exe)
 Leave Link  308 at Thu Jun 13 17:50:25 2019, MaxMem=   104857600 cpu:               5.7 elap:               0.2
 (Enter /project/6004141/group/g16/g16/l401.exe)
 Core hamiltonian diagonalized for initial guess.
 JPrj=0 DoOrth=F DoCkMO=T.
 Mixing orbitals, IMix= 1 IMixAn=  0 NRI=1 NE=   41 Coef=  7.07106781D-01  7.07106781D-01
 Mixing orbitals, IMix= 1 IMixAn=  0 NRI=1 NE=   41 Coef= -7.07106781D-01  7.07106781D-01
 Initial guess <Sx>= 0.0000 <Sy>= 0.0000 <Sz>= 0.0000 <S**2>= 1.0000 S= 0.6180
 Leave Link  401 at Thu Jun 13 17:50:26 2019, MaxMem=   104857600 cpu:              16.3 elap:               0.5
 (Enter /project/6004141/group/g16/g16/l502.exe)
 Integral symmetry usage will be decided dynamically.
 UHF open shell SCF:
 Using DIIS extrapolation, IDIIS=  1040.
 NGot=   104857600 LenX=   104744810 LenY=   104693744
 Requested convergence on RMS density matrix=1.00D-08 within 128 cycles.
 Requested convergence on MAX density matrix=1.00D-06.
 Requested convergence on             energy=1.00D-06.
 No special actions if energy rises.
 Fock matrices will be formed incrementally for  20 cycles.

 Cycle   1  Pass 1  IDiag  1:
 FoFJK:  IHMeth= 1 ICntrl=       0 DoSepK=F KAlg= 0 I1Cent=           0 FoldK=F
 IRaf= 840000000 NMat=       1 IRICut=       1 DoRegI=T DoRafI=F ISym2E= 0 IDoP0=0 IntGTp=1.
 FoFCou: FMM=F IPFlag=           0 FMFlag=      100000 FMFlg1=           0
         NFxFlg=           0 DoJE=F BraDBF=F KetDBF=F FulRan=T
         wScrn=  0.000000 ICntrl=         0 IOpCl=  1 I1Cent=           0 NGrid=           0
         NMat0=    1 NMatS0=      1 NMatT0=    0 NMatD0=    1 NMtDS0=    0 NMtDT0=    0
 Symmetry not used in FoFCou.
 Inv3:  Mode=1 IEnd=    10201008.
 Iteration    1 A*A^-1 deviation from unit magnitude is 3.89D-15 for   1339.
 Iteration    1 A*A^-1 deviation from orthogonality  is 2.22D-15 for   1753   1329.
 Iteration    1 A^-1*A deviation from unit magnitude is 3.89D-15 for   1339.
 Iteration    1 A^-1*A deviation from orthogonality  is 4.11D-14 for    961    930.
 E= -318.688592596686    
 DIIS: error= 4.44D-01 at cycle   1 NSaved=   1.
 NSaved= 1 IEnMin= 1 EnMin= -318.688592596686     IErMin= 1 ErrMin= 4.44D-01
 ErrMax= 4.44D-01  0.00D+00 EMaxC= 1.00D-01 BMatC= 3.37D+02 BMatP= 3.37D+02
 IDIUse=3 WtCom= 0.00D+00 WtEn= 1.00D+00
 Coeff-Com:  0.100D+01
 Coeff-En:   0.100D+01
 Coeff:      0.100D+01
 Gap=     0.143 Goal=   None    Shift=    0.000
 Gap=     0.060 Goal=   None    Shift=    0.000
 GapD=    0.060 DampG=0.500 DampE=0.250 DampFc=0.2500 IDamp=-1.
 Damping current iteration by 2.50D-01
 RMSDP=9.35D-02 MaxDP=4.55D+00              OVMax= 1.00D+00

 Cycle   2  Pass 1  IDiag  1:
 RMSU=  1.30D-02    CP:  7.60D-01
 E= -399.759018474565     Delta-E=      -81.070425877879 Rises=F Damp=T
 DIIS: error= 2.55D-01 at cycle   2 NSaved=   2.
 NSaved= 2 IEnMin= 2 EnMin= -399.759018474565     IErMin= 2 ErrMin= 2.55D-01
 ErrMax= 2.55D-01  0.00D+00 EMaxC= 1.00D-01 BMatC= 1.13D+02 BMatP= 3.37D+02
 IDIUse=3 WtCom= 0.00D+00 WtEn= 1.00D+00
 Coeff-Com: -0.122D+01 0.222D+01
 Coeff-En:   0.000D+00 0.100D+01
 Coeff:      0.000D+00 0.100D+01
 Gap=    -0.283 Goal=   None    Shift=    0.000
 Gap=    -0.278 Goal=   None    Shift=    0.000
 RMSDP=1.45D-01 MaxDP=8.04D+00 DE=-8.11D+01 OVMax= 9.99D-01

 Cycle   3  Pass 1  IDiag  1:
 RMSU=  1.37D-01    CP:  2.20D-01  2.25D+00
 E= -425.681485911217     Delta-E=      -25.922467436652 Rises=F Damp=F
 DIIS: error= 1.66D-01 at cycle   3 NSaved=   3.
 NSaved= 3 IEnMin= 3 EnMin= -425.681485911217     IErMin= 3 ErrMin= 1.66D-01
 ErrMax= 1.66D-01  0.00D+00 EMaxC= 1.00D-01 BMatC= 8.14D+01 BMatP= 1.13D+02
 IDIUse=3 WtCom= 0.00D+00 WtEn= 1.00D+00
 EnCoef did   100 forward-backward iterations
 Coeff-Com: -0.103D+01 0.189D+01 0.140D+00
 Coeff-En:   0.327D+00 0.102D-01 0.663D+00
 Coeff:      0.327D+00 0.102D-01 0.663D+00
 Gap=    -0.448 Goal=   None    Shift=    0.000
 Gap=    -0.515 Goal=   None    Shift=    0.000
 RMSDP=1.44D-01 MaxDP=8.20D+00 DE=-2.59D+01 OVMax= 9.95D-01

 Cycle   4  Pass 1  IDiag  1:
 RMSU=  5.52D-02    CP:  1.98D-01  3.99D-01  4.22D-02
 E= -463.431550077596     Delta-E=      -37.750064166379 Rises=F Damp=F
 DIIS: error= 1.37D-01 at cycle   4 NSaved=   4.
 NSaved= 4 IEnMin= 4 EnMin= -463.431550077596     IErMin= 4 ErrMin= 1.37D-01
 ErrMax= 1.37D-01  0.00D+00 EMaxC= 1.00D-01 BMatC= 5.87D+01 BMatP= 8.14D+01
 IDIUse=3 WtCom= 0.00D+00 WtEn= 1.00D+00
 Coeff-Com: -0.834D+00 0.151D+01 0.127D+00 0.196D+00
 Coeff-En:   0.000D+00 0.000D+00 0.344D+00 0.656D+00
 Coeff:      0.000D+00 0.000D+00 0.344D+00 0.656D+00
 Gap=     0.551 Goal=   None    Shift=    0.000
 Gap=     0.592 Goal=   None    Shift=    0.000
 RMSDP=7.40D-02 MaxDP=1.80D+00 DE=-3.78D+01 OVMax= 9.67D-01

 Cycle   5  Pass 1  IDiag  1:
 RMSU=  5.44D-02    CP:  2.50D-01  3.83D-01  7.21D-02  9.81D-02
 E= -388.931166849020     Delta-E=       74.500383228576 Rises=F Damp=F
 DIIS: error= 4.13D-01 at cycle   5 NSaved=   5.
 NSaved= 5 IEnMin= 4 EnMin= -463.431550077596     IErMin= 4 ErrMin= 1.37D-01
 ErrMax= 4.13D-01  0.00D+00 EMaxC= 1.00D-01 BMatC= 1.99D+02 BMatP= 5.87D+01
 IDIUse=2 WtCom= 0.00D+00 WtEn= 1.00D+00
 EnCoef did     6 forward-backward iterations
 Coeff-En:   0.000D+00 0.000D+00 0.253D+00 0.573D+00 0.174D+00
 Coeff:      0.000D+00 0.000D+00 0.253D+00 0.573D+00 0.174D+00
 Gap=     0.158 Goal=   None    Shift=    0.000
 Gap=     0.158 Goal=   None    Shift=    0.000
 RMSDP=5.40D-02 MaxDP=2.32D+00 DE= 7.45D+01 OVMax= 9.98D-01

 Cycle   6  Pass 1  IDiag  1:
 RMSU=  1.83D-02    CP:  8.48D-02  4.06D-01  2.16D-02  7.91D-02  1.10D-01
 E= -492.830894621162     Delta-E=     -103.899727772142 Rises=F Damp=F
 DIIS: error= 8.38D-02 at cycle   6 NSaved=   6.
 NSaved= 6 IEnMin= 6 EnMin= -492.830894621162     IErMin= 6 ErrMin= 8.38D-02
 ErrMax= 8.38D-02  0.00D+00 EMaxC= 1.00D-01 BMatC= 1.20D+01 BMatP= 5.87D+01
 IDIUse=3 WtCom= 1.62D-01 WtEn= 8.38D-01
 Coeff-Com: -0.352D+00 0.643D+00 0.194D-01 0.158D+00-0.183D-01 0.550D+00
 Coeff-En:   0.000D+00 0.000D+00 0.000D+00 0.142D+00 0.000D+00 0.858D+00
 Coeff:     -0.570D-01 0.104D+00 0.313D-02 0.144D+00-0.297D-02 0.808D+00
 Gap=    -0.234 Goal=   None    Shift=    0.000
 Gap=    -0.232 Goal=   None    Shift=    0.000
 RMSDP=1.39D-02 MaxDP=5.50D-01 DE=-1.04D+02 OVMax= 7.90D-01

 Cycle   7  Pass 1  IDiag  1:
 RMSU=  1.24D-02    CP:  8.57D-02  3.33D-01  1.10D-02  1.19D-01  5.60D-02
                    CP:  7.37D-01
 E= -493.105861549702     Delta-E=       -0.274966928540 Rises=F Damp=F
 DIIS: error= 7.84D-02 at cycle   7 NSaved=   7.
 NSaved= 7 IEnMin= 7 EnMin= -493.105861549702     IErMin= 7 ErrMin= 7.84D-02
 ErrMax= 7.84D-02  0.00D+00 EMaxC= 1.00D-01 BMatC= 1.19D+01 BMatP= 1.20D+01
 IDIUse=3 WtCom= 2.16D-01 WtEn= 7.84D-01
 Coeff-Com: -0.137D+00 0.242D+00 0.179D-01 0.274D-01-0.116D-01 0.448D+00
 Coeff-Com:  0.414D+00
 Coeff-En:   0.000D+00 0.000D+00 0.000D+00 0.000D+00 0.000D+00 0.485D+00
 Coeff-En:   0.515D+00
 Coeff:     -0.297D-01 0.523D-01 0.386D-02 0.591D-02-0.251D-02 0.477D+00
 Coeff:      0.493D+00
 Gap=    -0.308 Goal=   None    Shift=    0.000
 Gap=    -0.309 Goal=   None    Shift=    0.000
 RMSDP=8.29D-03 MaxDP=3.48D-01 DE=-2.75D-01 OVMax= 7.97D-01

 Cycle   8  Pass 1  IDiag  1:
 RMSU=  5.95D-03    CP:  7.54D-02  3.95D-01  1.06D-02  9.94D-02  5.78D-02
                    CP:  8.21D-01  5.68D-01
 E= -496.271502516732     Delta-E=       -3.165640967030 Rises=F Damp=F
 DIIS: error= 4.31D-02 at cycle   8 NSaved=   8.
 NSaved= 8 IEnMin= 8 EnMin= -496.271502516732     IErMin= 8 ErrMin= 4.31D-02
 ErrMax= 4.31D-02  0.00D+00 EMaxC= 1.00D-01 BMatC= 2.21D+00 BMatP= 1.19D+01
 IDIUse=3 WtCom= 5.69D-01 WtEn= 4.31D-01
 Coeff-Com: -0.406D-01 0.725D-01-0.842D-02-0.106D-01-0.183D-02 0.265D+00
 Coeff-Com:  0.214D+00 0.510D+00
 Coeff-En:   0.000D+00 0.000D+00 0.000D+00 0.000D+00 0.000D+00 0.817D-01
 Coeff-En:   0.000D+00 0.918D+00
 Coeff:     -0.231D-01 0.413D-01-0.480D-02-0.606D-02-0.104D-02 0.186D+00
 Coeff:      0.122D+00 0.686D+00
 Gap=     0.618 Goal=   None    Shift=    0.000
 Gap=     0.618 Goal=   None    Shift=    0.000
 RMSDP=6.50D-03 MaxDP=3.58D-01 DE=-3.17D+00 OVMax= 9.27D-01

 Cycle   9  Pass 1  IDiag  1:
 RMSU=  5.13D-03    CP:  7.63D-02  3.47D-01  1.09D-02  9.39D-02  6.69D-02
                    CP:  8.45D-01  5.46D-01  3.51D-01
 E= -495.373855152093     Delta-E=        0.897647364639 Rises=F Damp=F
 DIIS: error= 6.79D-02 at cycle   9 NSaved=   9.
 NSaved= 9 IEnMin= 8 EnMin= -496.271502516732     IErMin= 8 ErrMin= 4.31D-02
 ErrMax= 6.79D-02  0.00D+00 EMaxC= 1.00D-01 BMatC= 3.33D+00 BMatP= 2.21D+00
 IDIUse=2 WtCom= 0.00D+00 WtEn= 1.00D+00
 Coeff-En:   0.000D+00 0.000D+00 0.000D+00 0.000D+00 0.000D+00 0.000D+00
 Coeff-En:   0.000D+00 0.700D+00 0.300D+00
 Coeff:      0.000D+00 0.000D+00 0.000D+00 0.000D+00 0.000D+00 0.000D+00
 Coeff:      0.000D+00 0.700D+00 0.300D+00
 Gap=    -0.145 Goal=   None    Shift=    0.000
 Gap=    -0.145 Goal=   None    Shift=    0.000
 RMSDP=5.58D-03 MaxDP=1.98D-01 DE= 8.98D-01 OVMax= 6.87D-01

 Cycle  10  Pass 1  IDiag  1:
 RMSU=  3.42D-03    CP:  7.61D-02  3.75D-01  1.29D-02  9.74D-02  7.03D-02
                    CP:  8.67D-01  3.82D-01  7.98D-01  4.54D-01
 E= -496.580455020503     Delta-E=       -1.206599868410 Rises=F Damp=F
 DIIS: error= 2.81D-02 at cycle  10 NSaved=  10.
 NSaved=10 IEnMin=10 EnMin= -496.580455020503     IErMin=10 ErrMin= 2.81D-02
 ErrMax= 2.81D-02  0.00D+00 EMaxC= 1.00D-01 BMatC= 9.66D-01 BMatP= 2.21D+00
 IDIUse=3 WtCom= 7.19D-01 WtEn= 2.81D-01
 EnCoef did     2 forward-backward iterations
 Coeff-Com: -0.774D-02 0.160D-01-0.212D-02-0.322D-02 0.919D-03-0.949D-02
 Coeff-Com:  0.600D-01 0.334D+00 0.138D+00 0.474D+00
 Coeff-En:   0.000D+00 0.000D+00 0.000D+00 0.000D+00 0.000D+00 0.000D+00
 Coeff-En:   0.000D+00 0.287D+00 0.518D-02 0.708D+00
 Coeff:     -0.556D-02 0.115D-01-0.152D-02-0.231D-02 0.660D-03-0.682D-02
 Coeff:      0.431D-01 0.321D+00 0.101D+00 0.540D+00
 Gap=     0.251 Goal=   None    Shift=    0.000
 Gap=     0.251 Goal=   None    Shift=    0.000
 RMSDP=3.02D-03 MaxDP=1.33D-01 DE=-1.21D+00 OVMax= 1.72D-01

 Cycle  11  Pass 1  IDiag  1:
 RMSU=  1.57D-03    CP:  7.55D-02  3.70D-01  1.02D-02  9.44D-02  6.29D-02
                    CP:  8.47D-01  4.95D-01  8.03D-01  2.48D-01  4.84D-01
 E= -496.788286213052     Delta-E=       -0.207831192549 Rises=F Damp=F
 DIIS: error= 1.11D-02 at cycle  11 NSaved=  11.
 NSaved=11 IEnMin=11 EnMin= -496.788286213052     IErMin=11 ErrMin= 1.11D-02
 ErrMax= 1.11D-02  0.00D+00 EMaxC= 1.00D-01 BMatC= 1.28D-01 BMatP= 9.66D-01
 IDIUse=3 WtCom= 8.89D-01 WtEn= 1.11D-01
 Coeff-Com:  0.145D-03 0.185D-03-0.145D-02 0.156D-02 0.652D-03-0.214D-01
 Coeff-Com:  0.863D-02 0.975D-01 0.382D-01 0.323D+00 0.553D+00
 Coeff-En:   0.000D+00 0.000D+00 0.000D+00 0.000D+00 0.000D+00 0.000D+00
 Coeff-En:   0.000D+00 0.000D+00 0.000D+00 0.689D-01 0.931D+00
 Coeff:      0.129D-03 0.165D-03-0.129D-02 0.139D-02 0.580D-03-0.190D-01
 Coeff:      0.768D-02 0.867D-01 0.340D-01 0.295D+00 0.595D+00
 Gap=     0.185 Goal=   None    Shift=    0.000
 Gap=     0.185 Goal=   None    Shift=    0.000
 RMSDP=1.07D-03 MaxDP=7.12D-02 DE=-2.08D-01 OVMax= 8.19D-02

 Cycle  12  Pass 1  IDiag  1:
 RMSU=  5.64D-04    CP:  7.48D-02  3.72D-01  1.06D-02  9.57D-02  6.41D-02
                    CP:  8.48D-01  4.72D-01  8.26D-01  3.16D-01  6.55D-01
                    CP:  6.77D-01
 E= -496.803099979978     Delta-E=       -0.014813766926 Rises=F Damp=F
 DIIS: error= 7.44D-03 at cycle  12 NSaved=  12.
 NSaved=12 IEnMin=12 EnMin= -496.803099979978     IErMin=12 ErrMin= 7.44D-03
 ErrMax= 7.44D-03  0.00D+00 EMaxC= 1.00D-01 BMatC= 4.99D-02 BMatP= 1.28D-01
 IDIUse=3 WtCom= 9.26D-01 WtEn= 7.44D-02
 Coeff-Com: -0.123D-03-0.141D-03-0.459D-03-0.299D-03-0.200D-03 0.291D-04
 Coeff-Com:  0.459D-03-0.130D-01 0.791D-02 0.230D-01 0.407D+00 0.576D+00
 Coeff-En:   0.000D+00 0.000D+00 0.000D+00 0.000D+00 0.000D+00 0.000D+00
 Coeff-En:   0.000D+00 0.000D+00 0.000D+00 0.000D+00 0.322D+00 0.678D+00
 Coeff:     -0.114D-03-0.131D-03-0.425D-03-0.277D-03-0.185D-03 0.269D-04
 Coeff:      0.425D-03-0.120D-01 0.732D-02 0.213D-01 0.401D+00 0.583D+00
 Gap=     0.194 Goal=   None    Shift=    0.000
 Gap=     0.194 Goal=   None    Shift=    0.000
 RMSDP=5.10D-04 MaxDP=2.82D-02 DE=-1.48D-02 OVMax= 3.67D-02

 Cycle  13  Pass 1  IDiag  1:
 RMSU=  1.70D-04    CP:  7.48D-02  3.71D-01  1.04D-02  9.49D-02  6.36D-02
                    CP:  8.49D-01  4.81D-01  8.02D-01  2.94D-01  5.94D-01
                    CP:  8.65D-01  5.90D-01
 E= -496.812567570914     Delta-E=       -0.009467590936 Rises=F Damp=F
 DIIS: error= 9.87D-04 at cycle  13 NSaved=  13.
 NSaved=13 IEnMin=13 EnMin= -496.812567570914     IErMin=13 ErrMin= 9.87D-04
 ErrMax= 9.87D-04  0.00D+00 EMaxC= 1.00D-01 BMatC= 1.48D-03 BMatP= 4.99D-02
 IDIUse=3 WtCom= 9.90D-01 WtEn= 9.87D-03
 Coeff-Com:  0.113D-03-0.348D-03-0.560D-04-0.957D-04-0.669D-05 0.107D-02
 Coeff-Com: -0.205D-02-0.133D-01 0.346D-02-0.171D-01 0.163D+00 0.315D+00
 Coeff-Com:  0.550D+00
 Coeff-En:   0.000D+00 0.000D+00 0.000D+00 0.000D+00 0.000D+00 0.000D+00
 Coeff-En:   0.000D+00 0.000D+00 0.000D+00 0.000D+00 0.000D+00 0.000D+00
 Coeff-En:   0.100D+01
 Coeff:      0.112D-03-0.344D-03-0.554D-04-0.948D-04-0.662D-05 0.106D-02
 Coeff:     -0.203D-02-0.132D-01 0.342D-02-0.169D-01 0.161D+00 0.312D+00
 Coeff:      0.554D+00
 Gap=     0.176 Goal=   None    Shift=    0.000
 Gap=     0.176 Goal=   None    Shift=    0.000
 RMSDP=9.29D-05 MaxDP=4.63D-03 DE=-9.47D-03 OVMax= 6.31D-03

 Cycle  14  Pass 1  IDiag  1:
 RMSU=  4.79D-05    CP:  7.48D-02  3.71D-01  1.04D-02  9.50D-02  6.36D-02
                    CP:  8.48D-01  4.82D-01  8.05D-01  2.94D-01  5.94D-01
                    CP:  8.70D-01  6.72D-01  6.47D-01
 E= -496.812879990019     Delta-E=       -0.000312419106 Rises=F Damp=F
 DIIS: error= 3.40D-04 at cycle  14 NSaved=  14.
 NSaved=14 IEnMin=14 EnMin= -496.812879990019     IErMin=14 ErrMin= 3.40D-04
 ErrMax= 3.40D-04  0.00D+00 EMaxC= 1.00D-01 BMatC= 1.22D-04 BMatP= 1.48D-03
 IDIUse=3 WtCom= 9.97D-01 WtEn= 3.40D-03
 EnCoef did    13 forward-backward iterations
 Coeff-Com: -0.226D-04 0.404D-04 0.560D-04 0.285D-04 0.138D-04 0.261D-03
 Coeff-Com: -0.331D-03-0.204D-02 0.355D-03-0.119D-02 0.123D-01 0.493D-01
 Coeff-Com:  0.229D+00 0.712D+00
 Coeff-En:   0.000D+00 0.000D+00 0.000D+00 0.000D+00 0.000D+00 0.000D+00
 Coeff-En:   0.000D+00 0.000D+00 0.000D+00 0.000D+00 0.000D+00 0.000D+00
 Coeff-En:   0.524D-03 0.999D+00
 Coeff:     -0.226D-04 0.402D-04 0.558D-04 0.284D-04 0.138D-04 0.260D-03
 Coeff:     -0.330D-03-0.204D-02 0.354D-03-0.118D-02 0.123D-01 0.491D-01
 Coeff:      0.228D+00 0.713D+00
 Gap=     0.176 Goal=   None    Shift=    0.000
 Gap=     0.176 Goal=   None    Shift=    0.000
 RMSDP=2.78D-05 MaxDP=1.06D-03 DE=-3.12D-04 OVMax= 2.17D-03

 Cycle  15  Pass 1  IDiag  1:
 RMSU=  1.23D-05    CP:  7.48D-02  3.71D-01  1.04D-02  9.50D-02  6.36D-02
                    CP:  8.48D-01  4.81D-01  8.04D-01  2.96D-01  5.97D-01
                    CP:  8.67D-01  6.68D-01  7.13D-01  7.48D-01
 E= -496.812911812323     Delta-E=       -0.000031822303 Rises=F Damp=F
 DIIS: error= 6.52D-05 at cycle  15 NSaved=  15.
 NSaved=15 IEnMin=15 EnMin= -496.812911812323     IErMin=15 ErrMin= 6.52D-05
 ErrMax= 6.52D-05  0.00D+00 EMaxC= 1.00D-01 BMatC= 6.95D-06 BMatP= 1.22D-04
 IDIUse=1 WtCom= 1.00D+00 WtEn= 0.00D+00
 Coeff-Com:  0.278D-04-0.505D-04 0.186D-04-0.170D-04-0.462D-05 0.107D-03
 Coeff-Com: -0.225D-04-0.392D-03-0.711D-04 0.306D-03-0.810D-03 0.133D-01
 Coeff-Com:  0.880D-01 0.330D+00 0.570D+00
 Coeff:      0.278D-04-0.505D-04 0.186D-04-0.170D-04-0.462D-05 0.107D-03
 Coeff:     -0.225D-04-0.392D-03-0.711D-04 0.306D-03-0.810D-03 0.133D-01
 Coeff:      0.880D-01 0.330D+00 0.570D+00
 Gap=     0.176 Goal=   None    Shift=    0.000
 Gap=     0.176 Goal=   None    Shift=    0.000
 RMSDP=5.61D-06 MaxDP=3.07D-04 DE=-3.18D-05 OVMax= 3.89D-04

 Cycle  16  Pass 1  IDiag  1:
 RMSU=  4.23D-06    CP:  7.48D-02  3.71D-01  1.04D-02  9.50D-02  6.36D-02
                    CP:  8.48D-01  4.81D-01  8.04D-01  2.96D-01  5.97D-01
                    CP:  8.66D-01  6.70D-01  7.12D-01  7.66D-01  7.70D-01
 E= -496.812913196471     Delta-E=       -0.000001384149 Rises=F Damp=F
 DIIS: error= 2.22D-05 at cycle  16 NSaved=  16.
 NSaved=16 IEnMin=16 EnMin= -496.812913196471     IErMin=16 ErrMin= 2.22D-05
 ErrMax= 2.22D-05  0.00D+00 EMaxC= 1.00D-01 BMatC= 7.51D-07 BMatP= 6.95D-06
 IDIUse=1 WtCom= 1.00D+00 WtEn= 0.00D+00
 Coeff-Com:  0.399D-05-0.108D-04 0.235D-05-0.112D-04-0.617D-05-0.791D-05
 Coeff-Com:  0.363D-04 0.813D-04-0.443D-04 0.632D-03-0.174D-02 0.632D-03
 Coeff-Com:  0.154D-01 0.611D-01 0.256D+00 0.667D+00
 Coeff:      0.399D-05-0.108D-04 0.235D-05-0.112D-04-0.617D-05-0.791D-05
 Coeff:      0.363D-04 0.813D-04-0.443D-04 0.632D-03-0.174D-02 0.632D-03
 Coeff:      0.154D-01 0.611D-01 0.256D+00 0.667D+00
 Gap=     0.176 Goal=   None    Shift=    0.000
 Gap=     0.176 Goal=   None    Shift=    0.000
 RMSDP=2.09D-06 MaxDP=8.94D-05 DE=-1.38D-06 OVMax= 1.66D-04

 Cycle  17  Pass 1  IDiag  1:
 RMSU=  1.20D-06    CP:  7.48D-02  3.71D-01  1.04D-02  9.50D-02  6.36D-02
                    CP:  8.48D-01  4.81D-01  8.04D-01  2.96D-01  5.98D-01
                    CP:  8.65D-01  6.70D-01  7.14D-01  7.67D-01  8.26D-01
                    CP:  8.36D-01
 E= -496.812913375007     Delta-E=       -0.000000178536 Rises=F Damp=F
 DIIS: error= 5.33D-06 at cycle  17 NSaved=  17.
 NSaved=17 IEnMin=17 EnMin= -496.812913375007     IErMin=17 ErrMin= 5.33D-06
 ErrMax= 5.33D-06  0.00D+00 EMaxC= 1.00D-01 BMatC= 5.62D-08 BMatP= 7.51D-07
 IDIUse=1 WtCom= 1.00D+00 WtEn= 0.00D+00
 Coeff-Com: -0.452D-06 0.393D-06 0.109D-05 0.110D-05-0.230D-05-0.597D-05
 Coeff-Com: -0.872D-05 0.578D-04 0.519D-05 0.134D-03-0.557D-03-0.608D-03
 Coeff-Com:  0.667D-03-0.327D-02 0.579D-01 0.275D+00 0.671D+00
 Coeff:     -0.452D-06 0.393D-06 0.109D-05 0.110D-05-0.230D-05-0.597D-05
 Coeff:     -0.872D-05 0.578D-04 0.519D-05 0.134D-03-0.557D-03-0.608D-03
 Coeff:      0.667D-03-0.327D-02 0.579D-01 0.275D+00 0.671D+00
 Gap=     0.176 Goal=   None    Shift=    0.000
 Gap=     0.176 Goal=   None    Shift=    0.000
 RMSDP=5.83D-07 MaxDP=2.39D-05 DE=-1.79D-07 OVMax= 3.99D-05

 Cycle  18  Pass 1  IDiag  1:
 RMSU=  4.29D-07    CP:  7.48D-02  3.71D-01  1.04D-02  9.50D-02  6.36D-02
                    CP:  8.48D-01  4.81D-01  8.04D-01  2.96D-01  5.98D-01
                    CP:  8.65D-01  6.69D-01  7.15D-01  7.64D-01  8.32D-01
                    CP:  8.58D-01  7.93D-01
 E= -496.812913385195     Delta-E=       -0.000000010187 Rises=F Damp=F
 DIIS: error= 4.74D-06 at cycle  18 NSaved=  18.
 NSaved=18 IEnMin=18 EnMin= -496.812913385195     IErMin=18 ErrMin= 4.74D-06
 ErrMax= 4.74D-06  0.00D+00 EMaxC= 1.00D-01 BMatC= 1.22D-08 BMatP= 5.62D-08
 IDIUse=1 WtCom= 1.00D+00 WtEn= 0.00D+00
 Coeff-Com: -0.405D-06 0.983D-06-0.116D-06 0.623D-06-0.122D-06 0.344D-05
 Coeff-Com: -0.354D-05 0.245D-04 0.213D-05-0.264D-04 0.142D-04 0.111D-05
 Coeff-Com: -0.698D-04-0.462D-02 0.380D-02 0.765D-01 0.305D+00 0.620D+00
 Coeff:     -0.405D-06 0.983D-06-0.116D-06 0.623D-06-0.122D-06 0.344D-05
 Coeff:     -0.354D-05 0.245D-04 0.213D-05-0.264D-04 0.142D-04 0.111D-05
 Coeff:     -0.698D-04-0.462D-02 0.380D-02 0.765D-01 0.305D+00 0.620D+00
 Gap=     0.176 Goal=   None    Shift=    0.000
 Gap=     0.176 Goal=   None    Shift=    0.000
 RMSDP=2.40D-07 MaxDP=8.37D-06 DE=-1.02D-08 OVMax= 1.44D-05

 Cycle  19  Pass 1  IDiag  1:
 RMSU=  1.41D-07    CP:  7.48D-02  3.71D-01  1.04D-02  9.50D-02  6.36D-02
                    CP:  8.48D-01  4.81D-01  8.04D-01  2.96D-01  5.97D-01
                    CP:  8.66D-01  6.70D-01  7.15D-01  7.64D-01  8.30D-01
                    CP:  8.62D-01  8.16D-01  8.14D-01
 E= -496.812913387971     Delta-E=       -0.000000002776 Rises=F Damp=F
 DIIS: error= 8.59D-07 at cycle  19 NSaved=  19.
 NSaved=19 IEnMin=19 EnMin= -496.812913387971     IErMin=19 ErrMin= 8.59D-07
 ErrMax= 8.59D-07  0.00D+00 EMaxC= 1.00D-01 BMatC= 4.54D-10 BMatP= 1.22D-08
 IDIUse=1 WtCom= 1.00D+00 WtEn= 0.00D+00
 Coeff-Com: -0.202D-06 0.375D-06-0.186D-06-0.151D-06 0.189D-06 0.459D-07
 Coeff-Com:  0.717D-06 0.872D-05-0.174D-05-0.960D-05 0.390D-05 0.122D-04
 Coeff-Com: -0.130D-03-0.140D-02-0.170D-03 0.225D-01 0.822D-01 0.218D+00
 Coeff-Com:  0.679D+00
 Coeff:     -0.202D-06 0.375D-06-0.186D-06-0.151D-06 0.189D-06 0.459D-07
 Coeff:      0.717D-06 0.872D-05-0.174D-05-0.960D-05 0.390D-05 0.122D-04
 Coeff:     -0.130D-03-0.140D-02-0.170D-03 0.225D-01 0.822D-01 0.218D+00
 Coeff:      0.679D+00
 Gap=     0.176 Goal=   None    Shift=    0.000
 Gap=     0.176 Goal=   None    Shift=    0.000
 RMSDP=6.14D-08 MaxDP=2.72D-06 DE=-2.78D-09 OVMax= 4.91D-06

 Cycle  20  Pass 1  IDiag  1:
 RMSU=  4.75D-08    CP:  7.48D-02  3.71D-01  1.04D-02  9.50D-02  6.36D-02
                    CP:  8.48D-01  4.81D-01  8.04D-01  2.96D-01  5.97D-01
                    CP:  8.65D-01  6.70D-01  7.15D-01  7.64D-01  8.30D-01
                    CP:  8.64D-01  8.18D-01  8.37D-01  8.80D-01
 E= -496.812913388095     Delta-E=       -0.000000000124 Rises=F Damp=F
 DIIS: error= 2.90D-07 at cycle  20 NSaved=  20.
 NSaved=20 IEnMin=20 EnMin= -496.812913388095     IErMin=20 ErrMin= 2.90D-07
 ErrMax= 2.90D-07  0.00D+00 EMaxC= 1.00D-01 BMatC= 6.75D-11 BMatP= 4.54D-10
 IDIUse=1 WtCom= 1.00D+00 WtEn= 0.00D+00
 Coeff-Com:  0.589D-09-0.508D-08-0.140D-07 0.450D-08-0.897D-10 0.500D-07
 Coeff-Com:  0.237D-06-0.186D-05-0.191D-07-0.323D-05 0.125D-05 0.131D-04
 Coeff-Com: -0.537D-04 0.287D-04-0.769D-03-0.127D-02-0.104D-01-0.209D-01
 Coeff-Com:  0.271D+00 0.762D+00
 Coeff:      0.589D-09-0.508D-08-0.140D-07 0.450D-08-0.897D-10 0.500D-07
 Coeff:      0.237D-06-0.186D-05-0.191D-07-0.323D-05 0.125D-05 0.131D-04
 Coeff:     -0.537D-04 0.287D-04-0.769D-03-0.127D-02-0.104D-01-0.209D-01
 Coeff:      0.271D+00 0.762D+00
 Gap=     0.176 Goal=   None    Shift=    0.000
 Gap=     0.176 Goal=   None    Shift=    0.000
 RMSDP=2.68D-08 MaxDP=1.50D-06 DE=-1.24D-10 OVMax= 2.90D-06

 Cycle  21  Pass 1  IDiag  1:
 Restarting incremental Fock formation.
 E= -496.812913388125     Delta-E=       -0.000000000030 Rises=F Damp=F
 DIIS: error= 1.69D-07 at cycle  21 NSaved=  20.
 NSaved=20 IEnMin=20 EnMin= -496.812913388125     IErMin=20 ErrMin= 1.69D-07
 ErrMax= 1.69D-07  0.00D+00 EMaxC= 1.00D-01 BMatC= 8.27D-12 BMatP= 6.75D-11
 IDIUse=1 WtCom= 1.00D+00 WtEn= 0.00D+00
 Coeff-Com: -0.150D-08 0.694D-08 0.108D-07-0.105D-07 0.270D-07 0.683D-07
 Coeff-Com: -0.123D-05 0.108D-06-0.684D-06-0.673D-07 0.176D-05-0.723D-05
 Coeff-Com:  0.120D-03-0.245D-03-0.181D-02-0.835D-02-0.192D-01 0.355D-01
 Coeff-Com:  0.204D+00 0.790D+00
 Coeff:     -0.150D-08 0.694D-08 0.108D-07-0.105D-07 0.270D-07 0.683D-07
 Coeff:     -0.123D-05 0.108D-06-0.684D-06-0.673D-07 0.176D-05-0.723D-05
 Coeff:      0.120D-03-0.245D-03-0.181D-02-0.835D-02-0.192D-01 0.355D-01
 Coeff:      0.204D+00 0.790D+00
 Gap=     0.176 Goal=   None    Shift=    0.000
 Gap=     0.176 Goal=   None    Shift=    0.000
 RMSDP=1.52D-08 MaxDP=8.79D-07 DE=-2.96D-11 OVMax= 2.30D-06

 Cycle  22  Pass 1  IDiag  1:
 RMSU=  1.52D-08    CP:  1.00D+00
 E= -496.812913388134     Delta-E=       -0.000000000009 Rises=F Damp=F
 DIIS: error= 1.13D-07 at cycle  22 NSaved=  20.
 NSaved=20 IEnMin=20 EnMin= -496.812913388134     IErMin=20 ErrMin= 1.13D-07
 ErrMax= 1.13D-07  0.00D+00 EMaxC= 1.00D-01 BMatC= 5.72D-12 BMatP= 8.27D-12
 IDIUse=1 WtCom= 1.00D+00 WtEn= 0.00D+00
 Coeff-Com: -0.237D-08 0.129D-07-0.487D-08-0.761D-07-0.516D-07 0.279D-06
 Coeff-Com: -0.246D-08 0.171D-05-0.133D-05-0.832D-05 0.268D-04 0.912D-04
 Coeff-Com:  0.319D-03-0.623D-03-0.497D-03-0.789D-03-0.140D+00-0.327D+00
 Coeff-Com:  0.584D+00 0.884D+00
 Coeff:     -0.237D-08 0.129D-07-0.487D-08-0.761D-07-0.516D-07 0.279D-06
 Coeff:     -0.246D-08 0.171D-05-0.133D-05-0.832D-05 0.268D-04 0.912D-04
 Coeff:      0.319D-03-0.623D-03-0.497D-03-0.789D-03-0.140D+00-0.327D+00
 Coeff:      0.584D+00 0.884D+00
 Gap=     0.176 Goal=   None    Shift=    0.000
 Gap=     0.176 Goal=   None    Shift=    0.000
 RMSDP=1.76D-08 MaxDP=1.01D-06 DE=-9.21D-12 OVMax= 2.69D-06

 Cycle  23  Pass 1  IDiag  1:
 RMSU=  1.33D-08    CP:  1.00D+00  1.76D+00
 E= -496.812913388140     Delta-E=       -0.000000000006 Rises=F Damp=F
 DIIS: error= 5.88D-08 at cycle  23 NSaved=  20.
 NSaved=20 IEnMin=20 EnMin= -496.812913388140     IErMin=20 ErrMin= 5.88D-08
 ErrMax= 5.88D-08  0.00D+00 EMaxC= 1.00D-01 BMatC= 8.92D-13 BMatP= 5.72D-12
 IDIUse=1 WtCom= 1.00D+00 WtEn= 0.00D+00
 Coeff-Com: -0.878D-09-0.315D-09 0.229D-08-0.918D-07 0.628D-06 0.868D-08
 Coeff-Com:  0.715D-06 0.733D-06-0.118D-05 0.478D-05-0.525D-04 0.739D-04
 Coeff-Com:  0.231D-03 0.240D-02 0.614D-02-0.318D-01-0.991D-01-0.239D+00
 Coeff-Com:  0.756D-01 0.129D+01
 Coeff:     -0.878D-09-0.315D-09 0.229D-08-0.918D-07 0.628D-06 0.868D-08
 Coeff:      0.715D-06 0.733D-06-0.118D-05 0.478D-05-0.525D-04 0.739D-04
 Coeff:      0.231D-03 0.240D-02 0.614D-02-0.318D-01-0.991D-01-0.239D+00
 Coeff:      0.756D-01 0.129D+01
 Gap=     0.176 Goal=   None    Shift=    0.000
 Gap=     0.176 Goal=   None    Shift=    0.000
 RMSDP=1.28D-08 MaxDP=6.57D-07 DE=-6.48D-12 OVMax= 1.80D-06

 Cycle  24  Pass 1  IDiag  1:
 RMSU=  3.50D-09    CP:  1.00D+00  2.46D+00  1.48D+00
 E= -496.812913388143     Delta-E=       -0.000000000003 Rises=F Damp=F
 DIIS: error= 9.82D-09 at cycle  24 NSaved=  20.
 NSaved=20 IEnMin=20 EnMin= -496.812913388143     IErMin=20 ErrMin= 9.82D-09
 ErrMax= 9.82D-09  0.00D+00 EMaxC= 1.00D-01 BMatC= 9.63D-14 BMatP= 8.92D-13
 IDIUse=1 WtCom= 1.00D+00 WtEn= 0.00D+00
 Coeff-Com:  0.595D-10 0.286D-08-0.245D-08 0.303D-07-0.357D-08-0.740D-07
 Coeff-Com:  0.152D-06 0.134D-05-0.323D-05-0.174D-04-0.219D-04 0.384D-04
 Coeff-Com:  0.130D-03-0.202D-03 0.122D-01 0.384D-01-0.560D-01-0.983D-01
 Coeff-Com: -0.119D-01 0.112D+01
 Coeff:      0.595D-10 0.286D-08-0.245D-08 0.303D-07-0.357D-08-0.740D-07
 Coeff:      0.152D-06 0.134D-05-0.323D-05-0.174D-04-0.219D-04 0.384D-04
 Coeff:      0.130D-03-0.202D-03 0.122D-01 0.384D-01-0.560D-01-0.983D-01
 Coeff:     -0.119D-01 0.112D+01
 Gap=     0.176 Goal=   None    Shift=    0.000
 Gap=     0.176 Goal=   None    Shift=    0.000
 RMSDP=2.63D-09 MaxDP=1.18D-07 DE=-2.73D-12 OVMax= 3.26D-07

 Error on total polarization charges =  0.00822
 SCF Done:  E(UB3LYP) =  -496.812913388     A.U. after   24 cycles
            NFock= 24  Conv=0.26D-08     -V/T= 2.0096
 <Sx>= 0.0000 <Sy>= 0.0000 <Sz>= 0.0000 <S**2>=-0.0000 S=-0.0000
 <L.S>=  0.00000000000    
 KE= 4.920740279312D+02 PE=-2.293930008047D+03 EE= 7.356460710884D+02
 Annihilation of the first spin contaminant:
 S**2 before annihilation    -0.0000,   after     0.0000
 Leave Link  502 at Thu Jun 13 17:50:45 2019, MaxMem=   104857600 cpu:             689.2 elap:              17.8
 (Enter /project/6004141/group/g16/g16/l801.exe)
 DoSCS=F DFT=T ScalE2(SS,OS)=  1.000000  1.000000
 ExpMin= 1.61D-01 ExpMax= 5.48D+03 ExpMxC= 8.25D+02 IAcc=3 IRadAn=         5 AccDes= 0.00D+00
 HarFok:  IExCor=  205 AccDes= 0.00D+00 IRadAn=         5 IDoV=-2 UseB2=F ITyADJ=14
 ICtDFT= 12500011 ScaDFX=  1.000000  1.000000  1.000000  1.000000
 Largest valence mixing into a core orbital is  5.79D-05
 Largest core mixing into a valence orbital is  1.43D-05
 Largest valence mixing into a core orbital is  5.79D-05
 Largest core mixing into a valence orbital is  1.43D-05
 Range of M.O.s used for correlation:    12   225
 NBasis=   225 NAE=    41 NBE=    41 NFC=    11 NFV=     0
 NROrb=    214 NOA=    30 NOB=    30 NVA=   184 NVB=   184

 **** Warning!!: The largest alpha MO coefficient is  0.10966625D+02


 **** Warning!!: The largest beta MO coefficient is  0.10966625D+02

 Leave Link  801 at Thu Jun 13 17:50:45 2019, MaxMem=   104857600 cpu:               8.9 elap:               0.3
 (Enter /project/6004141/group/g16/g16/l914.exe)
 UHF ground state
 Two-electron integrals replicated using symmetry.
 MDV=   104857600 DFT=T DoStab=F Mixed=T DoRPA=T DoScal=F NonHer=T
 NEqPCM:  Using non-equilibrium solvation (IEInf=1, Eps=  35.6880, EpsInf=   1.8069)
 Inv3:  Mode=1 IEnd=    10201008.
 Iteration    1 A*A^-1 deviation from unit magnitude is 3.11D-15 for    380.
 Iteration    1 A*A^-1 deviation from orthogonality  is 1.68D-15 for   1059     61.
 Iteration    1 A^-1*A deviation from unit magnitude is 2.89D-15 for    615.
 Iteration    1 A^-1*A deviation from orthogonality  is 2.89D-15 for   1689    240.
 Making orbital integer symmetry assigments:
 Orbital symmetries:
 Alpha Orbitals:
       Occupied  (A) (A) (A) (A) (A) (A) (A) (A) (A) (A) (A) (A)
                 (A) (A) (A) (A) (A) (A) (A) (A) (A) (A) (A) (A)
                 (A) (A) (A) (A) (A) (A) (A) (A) (A) (A) (A) (A)
                 (A) (A) (A) (A) (A)
       Virtual   (A) (A) (A) (A) (A) (A) (A) (A) (A) (A) (A) (A)
                 (A) (A) (A) (A) (A) (A) (A) (A) (A) (A) (A) (A)
                 (A) (A) (A) (A) (A) (A) (A) (A) (A) (A) (A) (A)
                 (A) (A) (A) (A) (A) (A) (A) (A) (A) (A) (A) (A)
                 (A) (A) (A) (A) (A) (A) (A) (A) (A) (A) (A) (A)
                 (A) (A) (A) (A) (A) (A) (A) (A) (A) (A) (A) (A)
                 (A) (A) (A) (A) (A) (A) (A) (A) (A) (A) (A) (A)
                 (A) (A) (A) (A) (A) (A) (A) (A) (A) (A) (A) (A)
                 (A) (A) (A) (A) (A) (A) (A) (A) (A) (A) (A) (A)
                 (A) (A) (A) (A) (A) (A) (A) (A) (A) (A) (A) (A)
                 (A) (A) (A) (A) (A) (A) (A) (A) (A) (A) (A) (A)
                 (A) (A) (A) (A) (A) (A) (A) (A) (A) (A) (A) (A)
                 (A) (A) (A) (A) (A) (A) (A) (A) (A) (A) (A) (A)
                 (A) (A) (A) (A) (A) (A) (A) (A) (A) (A) (A) (A)
                 (A) (A) (A) (A) (A) (A) (A) (A) (A) (A) (A) (A)
                 (A) (A) (A) (A)
 Beta  Orbitals:
       Occupied  (A) (A) (A) (A) (A) (A) (A) (A) (A) (A) (A) (A)
                 (A) (A) (A) (A) (A) (A) (A) (A) (A) (A) (A) (A)
                 (A) (A) (A) (A) (A) (A) (A) (A) (A) (A) (A) (A)
                 (A) (A) (A) (A) (A)
       Virtual   (A) (A) (A) (A) (A) (A) (A) (A) (A) (A) (A) (A)
                 (A) (A) (A) (A) (A) (A) (A) (A) (A) (A) (A) (A)
                 (A) (A) (A) (A) (A) (A) (A) (A) (A) (A) (A) (A)
                 (A) (A) (A) (A) (A) (A) (A) (A) (A) (A) (A) (A)
                 (A) (A) (A) (A) (A) (A) (A) (A) (A) (A) (A) (A)
                 (A) (A) (A) (A) (A) (A) (A) (A) (A) (A) (A) (A)
                 (A) (A) (A) (A) (A) (A) (A) (A) (A) (A) (A) (A)
                 (A) (A) (A) (A) (A) (A) (A) (A) (A) (A) (A) (A)
                 (A) (A) (A) (A) (A) (A) (A) (A) (A) (A) (A) (A)
                 (A) (A) (A) (A) (A) (A) (A) (A) (A) (A) (A) (A)
                 (A) (A) (A) (A) (A) (A) (A) (A) (A) (A) (A) (A)
                 (A) (A) (A) (A) (A) (A) (A) (A) (A) (A) (A) (A)
                 (A) (A) (A) (A) (A) (A) (A) (A) (A) (A) (A) (A)
                 (A) (A) (A) (A) (A) (A) (A) (A) (A) (A) (A) (A)
                 (A) (A) (A) (A) (A) (A) (A) (A) (A) (A) (A) (A)
                 (A) (A) (A) (A)
   400 initial guesses have been made.
 Convergence on wavefunction:    0.001000000000000
 Davidson Disk Diagonalization:  ConvIn= 1.00D-03 SkipCon=T Conv= 1.00D-03.
 Max sub-space:  6000 roots to seek:   400 dimension of matrix:        11040
 Iteration     1 Dimension   400 NMult     0 NNew    400
 CISAX will form     5 AO SS matrices at one time.
 NMat=     5 NSing=     5 JSym2X= 0.
 FoFJK:  IHMeth= 1 ICntrl=       0 DoSepK=F KAlg= 0 I1Cent=           0 FoldK=F
 IRaf= 840000000 NMat=      10 IRICut=       1 DoRegI=T DoRafI=F ISym2E= 0 IDoP0=0 IntGTp=1.
 NMat=     5 NSing=     5 JSym2X= 0.
 NMat=     5 NSing=     5 JSym2X= 0.
 NMat=     5 NSing=     5 JSym2X= 0.
 NMat=     5 NSing=     5 JSym2X= 0.
 NMat=     5 NSing=     5 JSym2X= 0.
 NMat=     5 NSing=     5 JSym2X= 0.
 NMat=     5 NSing=     5 JSym2X= 0.
 NMat=     5 NSing=     5 JSym2X= 0.
 NMat=     5 NSing=     5 JSym2X= 0.
 NMat=     5 NSing=     5 JSym2X= 0.
 NMat=     5 NSing=     5 JSym2X= 0.
 NMat=     5 NSing=     5 JSym2X= 0.
 NMat=     5 NSing=     5 JSym2X= 0.
 NMat=     5 NSing=     5 JSym2X= 0.
 NMat=     5 NSing=     5 JSym2X= 0.
 NMat=     5 NSing=     5 JSym2X= 0.
 NMat=     5 NSing=     5 JSym2X= 0.
 NMat=     5 NSing=     5 JSym2X= 0.
 NMat=     5 NSing=     5 JSym2X= 0.
 NMat=     5 NSing=     5 JSym2X= 0.
 NMat=     5 NSing=     5 JSym2X= 0.
 NMat=     5 NSing=     5 JSym2X= 0.
 NMat=     5 NSing=     5 JSym2X= 0.
 NMat=     5 NSing=     5 JSym2X= 0.
 NMat=     5 NSing=     5 JSym2X= 0.
 NMat=     5 NSing=     5 JSym2X= 0.
 NMat=     5 NSing=     5 JSym2X= 0.
 NMat=     5 NSing=     5 JSym2X= 0.
 NMat=     5 NSing=     5 JSym2X= 0.
 NMat=     5 NSing=     5 JSym2X= 0.
 NMat=     5 NSing=     5 JSym2X= 0.
 NMat=     5 NSing=     5 JSym2X= 0.
 NMat=     5 NSing=     5 JSym2X= 0.
 NMat=     5 NSing=     5 JSym2X= 0.
 NMat=     5 NSing=     5 JSym2X= 0.
 NMat=     5 NSing=     5 JSym2X= 0.
 NMat=     5 NSing=     5 JSym2X= 0.
 NMat=     5 NSing=     5 JSym2X= 0.
 NMat=     5 NSing=     5 JSym2X= 0.
 NMat=     5 NSing=     5 JSym2X= 0.
 NMat=     5 NSing=     5 JSym2X= 0.
 NMat=     5 NSing=     5 JSym2X= 0.
 NMat=     5 NSing=     5 JSym2X= 0.
 NMat=     5 NSing=     5 JSym2X= 0.
 NMat=     5 NSing=     5 JSym2X= 0.
 NMat=     5 NSing=     5 JSym2X= 0.
 NMat=     5 NSing=     5 JSym2X= 0.
 NMat=     5 NSing=     5 JSym2X= 0.
 NMat=     5 NSing=     5 JSym2X= 0.
 NMat=     5 NSing=     5 JSym2X= 0.
 NMat=     5 NSing=     5 JSym2X= 0.
 NMat=     5 NSing=     5 JSym2X= 0.
 NMat=     5 NSing=     5 JSym2X= 0.
 NMat=     5 NSing=     5 JSym2X= 0.
 NMat=     5 NSing=     5 JSym2X= 0.
 NMat=     5 NSing=     5 JSym2X= 0.
 NMat=     5 NSing=     5 JSym2X= 0.
 NMat=     5 NSing=     5 JSym2X= 0.
 NMat=     5 NSing=     5 JSym2X= 0.
 NMat=     5 NSing=     5 JSym2X= 0.
 NMat=     5 NSing=     5 JSym2X= 0.
 NMat=     5 NSing=     5 JSym2X= 0.
 NMat=     5 NSing=     5 JSym2X= 0.
 NMat=     5 NSing=     5 JSym2X= 0.
 NMat=     5 NSing=     5 JSym2X= 0.
 NMat=     5 NSing=     5 JSym2X= 0.
 NMat=     5 NSing=     5 JSym2X= 0.
 NMat=     5 NSing=     5 JSym2X= 0.
 NMat=     5 NSing=     5 JSym2X= 0.
 NMat=     5 NSing=     5 JSym2X= 0.
 NMat=     5 NSing=     5 JSym2X= 0.
 NMat=     5 NSing=     5 JSym2X= 0.
 NMat=     5 NSing=     5 JSym2X= 0.
 NMat=     5 NSing=     5 JSym2X= 0.
 NMat=     5 NSing=     5 JSym2X= 0.
 NMat=     5 NSing=     5 JSym2X= 0.
 NMat=     5 NSing=     5 JSym2X= 0.
 NMat=     5 NSing=     5 JSym2X= 0.
 NMat=     5 NSing=     5 JSym2X= 0.
 Out-of-memory error in routine DiskD-NHDiag (IEnd=     144024801 MxCore=     104837312)
 Use %mem=138MW to provide the minimum amount of memory required to complete this step.
 Error termination via Lnk1e in /project/6004141/group/g16/g16/l914.exe at Thu Jun 13 17:54:44 2019.
 Job cpu time:       0 days  2 hours 50 minutes 31.8 seconds.
 Elapsed time:       0 days  0 hours  4 minutes 17.8 seconds.
 File lengths (MBytes):  RWF=   2893 Int=      0 D2E=      0 Chk=      3 Scr=      2
Error: segmentation violation
   rax 0000000000000000, rbx ffffffffffffffff, rcx ffffffffffffffff
   rdx 0000000000037dad, rsp 00007ffe5509e238, rbp 00007ffe5509e7b0
   rsi 000000000000000b, rdi 0000000000037dad, r8  0000000000000020
   r9  0000000000000401, r10 00007ffe5509d620, r11 0000000000000202
   r12 00007ffe5509e7f8, r13 0000000000000000, r14 0000000000000000
   r15 00000000000003e6
  /lib64/libpthread.so.0(+0xf5d0) [0x2ae672e625d0]
  /lib64/libc.so.6(kill+0x7) [0x2ae6733a74d7]
  /project/6004141/group/g16/g16/l914.exe() [0x483029]
  /project/6004141/group/g16/g16/l914.exe() [0x499d3a]
  /project/6004141/group/g16/g16/l914.exe() [0x4e220c]
  /project/6004141/group/g16/g16/l914.exe() [0x5b6302]
  /project/6004141/group/g16/g16/l914.exe() [0x46af63]
  /project/6004141/group/g16/g16/l914.exe() [0x467628]
  /project/6004141/group/g16/g16/l914.exe() [0x45573f]
  /project/6004141/group/g16/g16/l914.exe() [0x450c2b]
  /project/6004141/group/g16/g16/l914.exe() [0x450b34]
  /lib64/libc.so.6(__libc_start_main+0xf5) [0x2ae6733933d5]
  /project/6004141/group/g16/g16/l914.exe() [0x450a29]
