 Entering Gaussian System, Link 0=g16
 Initial command:
 /project/6004141/group/g16/g16/l1.exe "/scratch/rzk/GaussianScratch/Gau-268196.inp" -scrdir="/scratch/rzk/GaussianScratch/"
 Entering Link 1 = /project/6004141/group/g16/g16/l1.exe PID=    268197.
  
 Copyright (c) 1988,1990,1992,1993,1995,1998,2003,2009,2016,
            Gaussian, Inc.  All Rights Reserved.
  
 This is part of the Gaussian(R) 16 program.  It is based on
 the Gaussian(R) 09 system (copyright 2009, Gaussian, Inc.),
 the Gaussian(R) 03 system (copyright 2003, Gaussian, Inc.),
 the Gaussian(R) 98 system (copyright 1998, Gaussian, Inc.),
 the Gaussian(R) 94 system (copyright 1995, Gaussian, Inc.),
 the Gaussian 92(TM) system (copyright 1992, Gaussian, Inc.),
 the Gaussian 90(TM) system (copyright 1990, Gaussian, Inc.),
 the Gaussian 88(TM) system (copyright 1988, Gaussian, Inc.),
 the Gaussian 86(TM) system (copyright 1986, Carnegie Mellon
 University), and the Gaussian 82(TM) system (copyright 1983,
 Carnegie Mellon University). Gaussian is a federally registered
 trademark of Gaussian, Inc.
  
 This software contains proprietary and confidential information,
 including trade secrets, belonging to Gaussian, Inc.
  
 This software is provided under written license and may be
 used, copied, transmitted, or stored only in accord with that
 written license.
  
 The following legend is applicable only to US Government
 contracts under FAR:
  
                    RESTRICTED RIGHTS LEGEND
  
 Use, reproduction and disclosure by the US Government is
 subject to restrictions as set forth in subparagraphs (a)
 and (c) of the Commercial Computer Software - Restricted
 Rights clause in FAR 52.227-19.
  
 Gaussian, Inc.
 340 Quinnipiac St., Bldg. 40, Wallingford CT 06492
  
  
 ---------------------------------------------------------------
 Warning -- This program may not be used in any manner that
 competes with the business of Gaussian, Inc. or will provide
 assistance to any competitor of Gaussian, Inc.  The licensee
 of this program is prohibited from giving any competitor of
 Gaussian, Inc. access to this program.  By using this program,
 the user acknowledges that Gaussian, Inc. is engaged in the
 business of creating and licensing software in the field of
 computational chemistry and represents and warrants to the
 licensee that it is not a competitor of Gaussian, Inc. and that
 it will not use this program in any manner prohibited above.
 ---------------------------------------------------------------
  

 Cite this work as:
 Gaussian 16, Revision A.03,
 M. J. Frisch, G. W. Trucks, H. B. Schlegel, G. E. Scuseria, 
 M. A. Robb, J. R. Cheeseman, G. Scalmani, V. Barone, 
 G. A. Petersson, H. Nakatsuji, X. Li, M. Caricato, A. V. Marenich, 
 J. Bloino, B. G. Janesko, R. Gomperts, B. Mennucci, H. P. Hratchian, 
 J. V. Ortiz, A. F. Izmaylov, J. L. Sonnenberg, D. Williams-Young, 
 F. Ding, F. Lipparini, F. Egidi, J. Goings, B. Peng, A. Petrone, 
 T. Henderson, D. Ranasinghe, V. G. Zakrzewski, J. Gao, N. Rega, 
 G. Zheng, W. Liang, M. Hada, M. Ehara, K. Toyota, R. Fukuda, 
 J. Hasegawa, M. Ishida, T. Nakajima, Y. Honda, O. Kitao, H. Nakai, 
 T. Vreven, K. Throssell, J. A. Montgomery, Jr., J. E. Peralta, 
 F. Ogliaro, M. J. Bearpark, J. J. Heyd, E. N. Brothers, K. N. Kudin, 
 V. N. Staroverov, T. A. Keith, R. Kobayashi, J. Normand, 
 K. Raghavachari, A. P. Rendell, J. C. Burant, S. S. Iyengar, 
 J. Tomasi, M. Cossi, J. M. Millam, M. Klene, C. Adamo, R. Cammi, 
 J. W. Ochterski, R. L. Martin, K. Morokuma, O. Farkas, 
 J. B. Foresman, and D. J. Fox, Gaussian, Inc., Wallingford CT, 2016.
 
 ******************************************
 Gaussian 16:  ES64L-G16RevA.03 25-Dec-2016
                30-Jun-2019 
 ******************************************
 %NProcShared=40
 Will use up to   40 processors via shared memory.
 %chk=ABH.chk
 %Mem=1GW
 ----------------------------------------------------------------------
 #p td=(nstates=100) ub3lyp/6-31g(d,p) scrf=(iefpcm,solvent=acetonitril
 e) guess=(core,mix) empiricaldispersion=gd3
 ----------------------------------------------------------------------
 1/38=1,172=1/1;
 2/12=2,17=6,18=5,40=1/2;
 3/5=1,6=6,7=101,11=2,25=1,30=1,70=2201,72=2,74=-5,116=2,124=31/1,2,3,8;
 4/5=2,13=-1/1;
 5/5=2,38=5,53=2/2;
 8/6=1,10=2,108=100/1;
 9/41=100,42=1,70=2/14;
 6/7=2,8=2,9=2,10=2/1;
 99/5=1,9=1/99;
 Leave Link    1 at Sun Jun 30 16:44:02 2019, MaxMem=  1073741824 cpu:              10.9 elap:               0.3
 (Enter /project/6004141/group/g16/g16/l101.exe)
 -------------------
 Title Card Required
 -------------------
 Symbolic Z-matrix:
 Charge =  0 Multiplicity = 1
 C                     0.56833   0.21082  -0.4047 
 H                     4.90274  -0.95786  -0.402 
 O                     1.2594   -0.78588  -0.61312 
 N                     3.81889  -0.33344   1.14533 
 H                     3.50096   0.59323   1.42235 
 N                     4.21805  -0.22116  -0.24515 
 H                     3.41369  -0.45009  -0.83165 
 H                     2.98939  -0.92602   1.20901 
 C                     1.18804   1.59216  -0.38607 
 H                     0.71512   2.23599  -1.13463 
 H                     1.03617   2.06554   0.58974 
 H                     2.25554   1.52027  -0.59245 
 C                    -0.89882   0.07122  -0.16117 
 C                    -1.46194  -1.21651  -0.17624 
 C                    -1.72782   1.17837   0.08347 
 C                    -2.82339  -1.39442   0.04776 
 H                    -0.81242  -2.06419  -0.3654 
 C                    -3.09245   0.99861   0.30822 
 H                    -1.31682   2.1816    0.10067 
 C                    -3.6416   -0.2857    0.29062 
 H                    -3.24972  -2.39273   0.03424 
 H                    -3.72612   1.85949   0.49672 
 H                    -4.70436  -0.42336   0.46572 
 
 ITRead=  0  0  0  0  0  0  0  0  0  0  0  0  0  0  0  0  0  0  0  0
 ITRead=  0  0  0
 MicOpt= -1 -1 -1 -1 -1 -1 -1 -1 -1 -1 -1 -1 -1 -1 -1 -1 -1 -1 -1 -1
 MicOpt= -1 -1 -1
 NAtoms=     23 NQM=       23 NQMF=       0 NMMI=      0 NMMIF=      0
                NMic=       0 NMicF=      0.
                    Isotopes and Nuclear Properties:
 (Nuclear quadrupole moments (NQMom) in fm**2, nuclear magnetic moments (NMagM)
  in nuclear magnetons)

  Atom         1           2           3           4           5           6           7           8           9          10
 IAtWgt=          12           1          16          14           1          14           1           1          12           1
 AtmWgt=  12.0000000   1.0078250  15.9949146  14.0030740   1.0078250  14.0030740   1.0078250   1.0078250  12.0000000   1.0078250
 NucSpn=           0           1           0           2           1           2           1           1           0           1
 AtZEff=  -0.0000000  -0.0000000  -0.0000000  -0.0000000  -0.0000000  -0.0000000  -0.0000000  -0.0000000  -0.0000000  -0.0000000
 NQMom=    0.0000000   0.0000000   0.0000000   2.0440000   0.0000000   2.0440000   0.0000000   0.0000000   0.0000000   0.0000000
 NMagM=    0.0000000   2.7928460   0.0000000   0.4037610   2.7928460   0.4037610   2.7928460   2.7928460   0.0000000   2.7928460
 AtZNuc=   6.0000000   1.0000000   8.0000000   7.0000000   1.0000000   7.0000000   1.0000000   1.0000000   6.0000000   1.0000000

  Atom        11          12          13          14          15          16          17          18          19          20
 IAtWgt=           1           1          12          12          12          12           1          12           1          12
 AtmWgt=   1.0078250   1.0078250  12.0000000  12.0000000  12.0000000  12.0000000   1.0078250  12.0000000   1.0078250  12.0000000
 NucSpn=           1           1           0           0           0           0           1           0           1           0
 AtZEff=  -0.0000000  -0.0000000  -0.0000000  -0.0000000  -0.0000000  -0.0000000  -0.0000000  -0.0000000  -0.0000000  -0.0000000
 NQMom=    0.0000000   0.0000000   0.0000000   0.0000000   0.0000000   0.0000000   0.0000000   0.0000000   0.0000000   0.0000000
 NMagM=    2.7928460   2.7928460   0.0000000   0.0000000   0.0000000   0.0000000   2.7928460   0.0000000   2.7928460   0.0000000
 AtZNuc=   1.0000000   1.0000000   6.0000000   6.0000000   6.0000000   6.0000000   1.0000000   6.0000000   1.0000000   6.0000000

  Atom        21          22          23
 IAtWgt=           1           1           1
 AtmWgt=   1.0078250   1.0078250   1.0078250
 NucSpn=           1           1           1
 AtZEff=  -0.0000000  -0.0000000  -0.0000000
 NQMom=    0.0000000   0.0000000   0.0000000
 NMagM=    2.7928460   2.7928460   2.7928460
 AtZNuc=   1.0000000   1.0000000   1.0000000
 Leave Link  101 at Sun Jun 30 16:44:02 2019, MaxMem=  1073741824 cpu:               6.0 elap:               0.2
 (Enter /project/6004141/group/g16/g16/l202.exe)
                          Input orientation:                          
 ---------------------------------------------------------------------
 Center     Atomic      Atomic             Coordinates (Angstroms)
 Number     Number       Type             X           Y           Z
 ---------------------------------------------------------------------
      1          6           0        0.568326    0.210816   -0.404695
      2          1           0        4.902740   -0.957863   -0.402000
      3          8           0        1.259404   -0.785877   -0.613115
      4          7           0        3.818887   -0.333442    1.145330
      5          1           0        3.500957    0.593234    1.422347
      6          7           0        4.218046   -0.221155   -0.245149
      7          1           0        3.413694   -0.450090   -0.831653
      8          1           0        2.989393   -0.926021    1.209005
      9          6           0        1.188036    1.592164   -0.386071
     10          1           0        0.715121    2.235994   -1.134627
     11          1           0        1.036166    2.065539    0.589738
     12          1           0        2.255536    1.520265   -0.592445
     13          6           0       -0.898822    0.071220   -0.161174
     14          6           0       -1.461944   -1.216508   -0.176239
     15          6           0       -1.727815    1.178365    0.083471
     16          6           0       -2.823394   -1.394418    0.047758
     17          1           0       -0.812423   -2.064189   -0.365400
     18          6           0       -3.092445    0.998613    0.308223
     19          1           0       -1.316817    2.181601    0.100673
     20          6           0       -3.641595   -0.285698    0.290616
     21          1           0       -3.249722   -2.392727    0.034242
     22          1           0       -3.726118    1.859493    0.496723
     23          1           0       -4.704364   -0.423359    0.465721
 ---------------------------------------------------------------------
                    Distance matrix (angstroms):
                    1          2          3          4          5
     1  C    0.000000
     2  H    4.489205   0.000000
     3  O    1.230620   3.653498   0.000000
     4  N    3.642107   1.989691   3.138117   0.000000
     5  H    3.476298   2.774732   3.327103   1.018109   0.000000
     6  N    3.678656   1.017913   3.034448   1.450989   1.989470
     7  H    2.952153   1.630857   2.191227   2.021447   2.485288
     8  H    3.123778   2.501449   2.516470   1.021403   1.617204
     9  C    1.514104   4.505765   2.389921   3.602017   3.101264
    10  H    2.157706   5.317294   3.114470   4.629640   4.122822
    11  H    2.155868   5.007484   3.102783   3.715821   2.989333
    12  H    2.143965   3.631126   2.512170   2.983313   2.543589
    13  C    1.493758   5.897044   2.365757   4.911973   4.705113
    14  C    2.492277   6.373937   2.789631   5.514846   5.519151
    15  C    2.539039   6.983080   3.642383   5.846282   5.429091
    16  C    3.779584   7.751517   4.180468   6.815441   6.770352
    17  H    2.661515   5.821373   2.447021   5.169799   5.372447
    18  C    3.811840   8.261670   4.792897   7.088133   6.699146
    19  H    2.773654   6.985113   3.994037   5.813106   5.242202
    20  C    4.295744   8.598673   5.008662   7.509435   7.284874
    21  H    4.642046   8.289257   4.830451   7.445831   7.510956
    22  H    4.687530   9.121534   5.751969   7.883956   7.395323
    23  H    5.381548   9.661008   6.071395   8.550775   8.323214
                    6          7          8          9         10
     6  N    0.000000
     7  H    1.021460   0.000000
     8  H    2.030022   2.137949   0.000000
     9  C    3.533970   3.053342   3.482874   0.000000
    10  H    4.370267   3.819573   4.545686   1.094761   0.000000
    11  H    4.006291   3.741842   3.626020   1.095149   1.762260
    12  H    2.646621   2.298010   3.125393   1.089640   1.783005
    13  C    5.125902   4.395350   4.241473   2.592070   2.870308
    14  C    5.766954   4.978836   4.670940   3.867178   4.192599
    15  C    6.117182   5.470323   5.286522   2.982262   2.927504
    16  C    7.144524   6.369175   5.946123   5.019905   5.205671
    17  H    5.358811   4.547832   4.269424   4.167875   4.627815
    18  C    7.432182   6.762241   6.442389   4.376856   4.255642
    19  H    6.043802   5.492974   5.424865   2.618901   2.378591
    20  C    7.878145   7.145881   6.724839   5.225859   5.231751
    21  H    7.782117   6.994621   6.515969   5.979107   6.205747
    22  H    8.245557   7.620740   7.305102   4.999970   4.746331
    23  H    8.952967   8.221117   7.745905   6.285560   6.245325
                   11         12         13         14         15
    11  H    0.000000
    12  H    1.783744   0.000000
    13  C    2.878429   3.497957   0.000000
    14  C    4.195129   4.634955   1.405552   0.000000
    15  C    2.946689   4.054731   1.404582   2.423541   0.000000
    16  C    5.211645   5.890736   2.428111   1.391177   2.796566
    17  H    4.624308   4.723583   2.146892   1.084538   3.399056
    18  C    4.273524   5.448323   2.427421   2.792848   1.394647
    19  H    2.406072   3.698579   2.167254   3.412461   1.084296
    20  C    5.243972   6.230365   2.802554   2.415624   2.418459
    21  H    6.209150   6.783223   3.411151   2.150336   3.882180
    22  H    4.767647   6.089462   3.409450   3.878291   2.151262
    23  H    6.258089   7.303259   3.888413   3.399189   3.401688
                   16         17         18         19         20
    16  C    0.000000
    17  H    2.159467   0.000000
    18  C    2.422154   3.877244   0.000000
    19  H    3.880784   4.300973   2.143687   0.000000
    20  C    1.399176   3.405525   1.396900   3.395326   0.000000
    21  H    1.085615   2.491601   3.406022   4.966388   2.158440
    22  H    3.406526   4.962676   1.085444   2.462791   2.156726
    23  H    2.157706   4.304682   2.155248   4.288887   1.085859
                   21         22         23
    21  H    0.000000
    22  H    4.303745   0.000000
    23  H    2.486075   2.483816   0.000000
 Stoichiometry    C8H12N2O
 Framework group  C1[X(C8H12N2O)]
 Deg. of freedom    63
 Full point group                 C1      NOp   1
 Largest Abelian subgroup         C1      NOp   1
 Largest concise Abelian subgroup C1      NOp   1
                         Standard orientation:                         
 ---------------------------------------------------------------------
 Center     Atomic      Atomic             Coordinates (Angstroms)
 Number     Number       Type             X           Y           Z
 ---------------------------------------------------------------------
      1          6           0        0.568326    0.210816   -0.404695
      2          1           0        4.902740   -0.957863   -0.402000
      3          8           0        1.259404   -0.785877   -0.613115
      4          7           0        3.818887   -0.333442    1.145330
      5          1           0        3.500957    0.593234    1.422347
      6          7           0        4.218046   -0.221155   -0.245149
      7          1           0        3.413694   -0.450090   -0.831653
      8          1           0        2.989393   -0.926021    1.209005
      9          6           0        1.188036    1.592164   -0.386071
     10          1           0        0.715121    2.235994   -1.134627
     11          1           0        1.036166    2.065539    0.589738
     12          1           0        2.255536    1.520265   -0.592445
     13          6           0       -0.898822    0.071220   -0.161174
     14          6           0       -1.461944   -1.216508   -0.176239
     15          6           0       -1.727815    1.178365    0.083471
     16          6           0       -2.823394   -1.394418    0.047758
     17          1           0       -0.812423   -2.064189   -0.365400
     18          6           0       -3.092445    0.998613    0.308223
     19          1           0       -1.316817    2.181601    0.100673
     20          6           0       -3.641595   -0.285698    0.290616
     21          1           0       -3.249722   -2.392727    0.034242
     22          1           0       -3.726118    1.859493    0.496723
     23          1           0       -4.704364   -0.423359    0.465721
 ---------------------------------------------------------------------
 Rotational constants (GHZ):           2.7287111           0.4626245           0.4212131
 Leave Link  202 at Sun Jun 30 16:44:03 2019, MaxMem=  1073741824 cpu:               3.5 elap:               0.1
 (Enter /project/6004141/group/g16/g16/l301.exe)
 Standard basis: 6-31G(d,p) (6D, 7F)
 Ernie: Thresh=  0.10000D-02 Tol=  0.10000D-05 Strict=F.
 There are   225 symmetry adapted cartesian basis functions of A   symmetry.
 There are   225 symmetry adapted basis functions of A   symmetry.
   225 basis functions,   392 primitive gaussians,   225 cartesian basis functions
    41 alpha electrons       41 beta electrons
       nuclear repulsion energy       569.4143960803 Hartrees.
 IExCor=  402 DFT=T Ex+Corr=B3LYP ExCW=0 ScaHFX=  0.200000
 ScaDFX=  0.800000  0.720000  1.000000  0.810000 ScalE2=  1.000000  1.000000
 IRadAn=      5 IRanWt=     -1 IRanGd=            0 ICorTp=0 IEmpDi=131
 NAtoms=   23 NActive=   23 NUniq=   23 SFac= 1.00D+00 NAtFMM=   60 NAOKFM=F Big=F
 Integral buffers will be    131072 words long.
 Raffenetti 2 integral format.
 Two-electron integral symmetry is turned on.
 R6Disp:  Grimme-D3 Dispersion energy=       -0.0174004410 Hartrees.
 Nuclear repulsion after empirical dispersion term =      569.3969956392 Hartrees.
 ------------------------------------------------------------------------------
 Polarizable Continuum Model (PCM)
 =================================
 Model                : PCM.
 Atomic radii         : UFF (Universal Force Field).
 Polarization charges : Total charges.
 Charge compensation  : None.
 Solution method      : On-the-fly selection.
 Cavity type          : Scaled VdW (van der Waals Surface) (Alpha=1.100).
 Cavity algorithm     : GePol (No added spheres)
                        Default sphere list used, NSphG=   23.
                        Lebedev-Laikov grids with approx.  5.0 points / Ang**2.
                        Smoothing algorithm: York/Karplus (Gamma=1.0000).
                        Polarization charges: spherical gaussians, with
                                              point-specific exponents (IZeta= 3).
                        Self-potential: point-specific (ISelfS= 7).
                        Self-field    : sphere-specific E.n sum rule (ISelfD= 2).
 Solvent              : Acetonitrile, Eps=  35.688000 Eps(inf)=   1.806874
 ------------------------------------------------------------------------------
 GePol: Number of generator spheres                  =      23
 GePol: Total number of spheres                      =      23
 GePol: Number of exposed spheres                    =      23 (100.00%)
 GePol: Number of points                             =    1844
 GePol: Average weight of points                     =       0.13
 GePol: Minimum weight of points                     =   0.10D-10
 GePol: Maximum weight of points                     =    0.20577
 GePol: Number of points with low weight             =     117
 GePol: Fraction of low-weight points (<1% of avg)   =       6.34%
 GePol: Cavity surface area                          =    240.276 Ang**2
 GePol: Cavity volume                                =    243.489 Ang**3
 Leave Link  301 at Sun Jun 30 16:44:03 2019, MaxMem=  1073741824 cpu:              13.9 elap:               0.4
 (Enter /project/6004141/group/g16/g16/l302.exe)
 NPDir=0 NMtPBC=     1 NCelOv=     1 NCel=       1 NClECP=     1 NCelD=      1
         NCelK=      1 NCelE2=     1 NClLst=     1 CellRange=     0.0.
 One-electron integrals computed using PRISM.
 One-electron integral symmetry used in STVInt
 NBasis=   225 RedAO= T EigKep=  4.70D-04  NBF=   225
 NBsUse=   225 1.00D-06 EigRej= -1.00D+00 NBFU=   225
 Precomputing XC quadrature grid using
 IXCGrd= 4 IRadAn=           5 IRanWt=          -1 IRanGd=           0 AccXCQ= 0.00D+00.
 Generated NRdTot=       0 NPtTot=           0 NUsed=           0 NTot=          32
 NSgBfM=   224   224   224   224   224 MxSgAt=    23 MxSgA2=    23.
 Leave Link  302 at Sun Jun 30 16:44:04 2019, MaxMem=  1073741824 cpu:              25.4 elap:               0.7
 (Enter /project/6004141/group/g16/g16/l303.exe)
 DipDrv:  MaxL=1.
 Leave Link  303 at Sun Jun 30 16:44:05 2019, MaxMem=  1073741824 cpu:               4.5 elap:               0.2
 (Enter /project/6004141/group/g16/g16/l308.exe)
 Leave Link  308 at Sun Jun 30 16:44:05 2019, MaxMem=  1073741824 cpu:               6.2 elap:               0.2
 (Enter /project/6004141/group/g16/g16/l401.exe)
 Core hamiltonian diagonalized for initial guess.
 JPrj=0 DoOrth=F DoCkMO=T.
 Mixing orbitals, IMix= 1 IMixAn=  0 NRI=1 NE=   41 Coef=  7.07106781D-01  7.07106781D-01
 Mixing orbitals, IMix= 1 IMixAn=  0 NRI=1 NE=   41 Coef= -7.07106781D-01  7.07106781D-01
 Initial guess <Sx>= 0.0000 <Sy>= 0.0000 <Sz>= 0.0000 <S**2>= 1.0000 S= 0.6180
 Leave Link  401 at Sun Jun 30 16:44:06 2019, MaxMem=  1073741824 cpu:               9.3 elap:               0.3
 (Enter /project/6004141/group/g16/g16/l502.exe)
 Integral symmetry usage will be decided dynamically.
 UHF open shell SCF:
 Using DIIS extrapolation, IDIIS=  1040.
 NGot=  1073741824 LenX=  1073629034 LenY=  1073577968
 Requested convergence on RMS density matrix=1.00D-08 within 128 cycles.
 Requested convergence on MAX density matrix=1.00D-06.
 Requested convergence on             energy=1.00D-06.
 No special actions if energy rises.
 Fock matrices will be formed incrementally for  20 cycles.

 Cycle   1  Pass 1  IDiag  1:
 FoFJK:  IHMeth= 1 ICntrl=       0 DoSepK=F KAlg= 0 I1Cent=           0 FoldK=F
 IRaf= 840000000 NMat=       1 IRICut=       1 DoRegI=T DoRafI=F ISym2E= 0 IDoP0=0 IntGTp=1.
 FoFCou: FMM=F IPFlag=           0 FMFlag=      100000 FMFlg1=           0
         NFxFlg=           0 DoJE=F BraDBF=F KetDBF=F FulRan=T
         wScrn=  0.000000 ICntrl=         0 IOpCl=  1 I1Cent=           0 NGrid=           0
         NMat0=    1 NMatS0=      1 NMatT0=    0 NMatD0=    1 NMtDS0=    0 NMtDT0=    0
 Symmetry not used in FoFCou.
 Inv3:  Mode=1 IEnd=    10201008.
 Iteration    1 A*A^-1 deviation from unit magnitude is 3.77D-15 for   1339.
 Iteration    1 A*A^-1 deviation from orthogonality  is 2.09D-15 for   1454    502.
 Iteration    1 A^-1*A deviation from unit magnitude is 3.89D-15 for   1339.
 Iteration    1 A^-1*A deviation from orthogonality  is 4.73D-14 for    961    930.
 E= -318.688592596687    
 DIIS: error= 4.44D-01 at cycle   1 NSaved=   1.
 NSaved= 1 IEnMin= 1 EnMin= -318.688592596687     IErMin= 1 ErrMin= 4.44D-01
 ErrMax= 4.44D-01  0.00D+00 EMaxC= 1.00D-01 BMatC= 3.37D+02 BMatP= 3.37D+02
 IDIUse=3 WtCom= 0.00D+00 WtEn= 1.00D+00
 Coeff-Com:  0.100D+01
 Coeff-En:   0.100D+01
 Coeff:      0.100D+01
 Gap=     0.143 Goal=   None    Shift=    0.000
 Gap=     0.060 Goal=   None    Shift=    0.000
 GapD=    0.060 DampG=0.500 DampE=0.250 DampFc=0.2500 IDamp=-1.
 Damping current iteration by 2.50D-01
 RMSDP=9.35D-02 MaxDP=4.55D+00              OVMax= 1.00D+00

 Cycle   2  Pass 1  IDiag  1:
 RMSU=  1.30D-02    CP:  7.60D-01
 E= -399.759018474567     Delta-E=      -81.070425877880 Rises=F Damp=T
 DIIS: error= 2.55D-01 at cycle   2 NSaved=   2.
 NSaved= 2 IEnMin= 2 EnMin= -399.759018474567     IErMin= 2 ErrMin= 2.55D-01
 ErrMax= 2.55D-01  0.00D+00 EMaxC= 1.00D-01 BMatC= 1.13D+02 BMatP= 3.37D+02
 IDIUse=3 WtCom= 0.00D+00 WtEn= 1.00D+00
 Coeff-Com: -0.122D+01 0.222D+01
 Coeff-En:   0.000D+00 0.100D+01
 Coeff:      0.000D+00 0.100D+01
 Gap=    -0.283 Goal=   None    Shift=    0.000
 Gap=    -0.278 Goal=   None    Shift=    0.000
 RMSDP=1.45D-01 MaxDP=8.04D+00 DE=-8.11D+01 OVMax= 9.99D-01

 Cycle   3  Pass 1  IDiag  1:
 RMSU=  1.37D-01    CP:  2.20D-01  2.25D+00
 E= -425.681485911216     Delta-E=      -25.922467436649 Rises=F Damp=F
 DIIS: error= 1.66D-01 at cycle   3 NSaved=   3.
 NSaved= 3 IEnMin= 3 EnMin= -425.681485911216     IErMin= 3 ErrMin= 1.66D-01
 ErrMax= 1.66D-01  0.00D+00 EMaxC= 1.00D-01 BMatC= 8.14D+01 BMatP= 1.13D+02
 IDIUse=3 WtCom= 0.00D+00 WtEn= 1.00D+00
 EnCoef did   100 forward-backward iterations
 Coeff-Com: -0.103D+01 0.189D+01 0.140D+00
 Coeff-En:   0.327D+00 0.102D-01 0.663D+00
 Coeff:      0.327D+00 0.102D-01 0.663D+00
 Gap=    -0.448 Goal=   None    Shift=    0.000
 Gap=    -0.515 Goal=   None    Shift=    0.000
 RMSDP=1.44D-01 MaxDP=8.20D+00 DE=-2.59D+01 OVMax= 9.95D-01

 Cycle   4  Pass 1  IDiag  1:
 RMSU=  5.52D-02    CP:  1.98D-01  3.99D-01  4.22D-02
 E= -463.431550077594     Delta-E=      -37.750064166378 Rises=F Damp=F
 DIIS: error= 1.37D-01 at cycle   4 NSaved=   4.
 NSaved= 4 IEnMin= 4 EnMin= -463.431550077594     IErMin= 4 ErrMin= 1.37D-01
 ErrMax= 1.37D-01  0.00D+00 EMaxC= 1.00D-01 BMatC= 5.87D+01 BMatP= 8.14D+01
 IDIUse=3 WtCom= 0.00D+00 WtEn= 1.00D+00
 Coeff-Com: -0.834D+00 0.151D+01 0.127D+00 0.196D+00
 Coeff-En:   0.000D+00 0.000D+00 0.344D+00 0.656D+00
 Coeff:      0.000D+00 0.000D+00 0.344D+00 0.656D+00
 Gap=     0.551 Goal=   None    Shift=    0.000
 Gap=     0.592 Goal=   None    Shift=    0.000
 RMSDP=7.40D-02 MaxDP=1.80D+00 DE=-3.78D+01 OVMax= 9.67D-01

 Cycle   5  Pass 1  IDiag  1:
 RMSU=  5.44D-02    CP:  2.50D-01  3.83D-01  7.21D-02  9.81D-02
 E= -388.931166849010     Delta-E=       74.500383228584 Rises=F Damp=F
 DIIS: error= 4.13D-01 at cycle   5 NSaved=   5.
 NSaved= 5 IEnMin= 4 EnMin= -463.431550077594     IErMin= 4 ErrMin= 1.37D-01
 ErrMax= 4.13D-01  0.00D+00 EMaxC= 1.00D-01 BMatC= 1.99D+02 BMatP= 5.87D+01
 IDIUse=2 WtCom= 0.00D+00 WtEn= 1.00D+00
 EnCoef did     6 forward-backward iterations
 Coeff-En:   0.000D+00 0.000D+00 0.253D+00 0.573D+00 0.174D+00
 Coeff:      0.000D+00 0.000D+00 0.253D+00 0.573D+00 0.174D+00
 Gap=     0.158 Goal=   None    Shift=    0.000
 Gap=     0.158 Goal=   None    Shift=    0.000
 RMSDP=5.40D-02 MaxDP=2.32D+00 DE= 7.45D+01 OVMax= 9.98D-01

 Cycle   6  Pass 1  IDiag  1:
 RMSU=  1.83D-02    CP:  8.48D-02  4.06D-01  2.16D-02  7.91D-02  1.10D-01
 E= -492.830894621161     Delta-E=     -103.899727772151 Rises=F Damp=F
 DIIS: error= 8.38D-02 at cycle   6 NSaved=   6.
 NSaved= 6 IEnMin= 6 EnMin= -492.830894621161     IErMin= 6 ErrMin= 8.38D-02
 ErrMax= 8.38D-02  0.00D+00 EMaxC= 1.00D-01 BMatC= 1.20D+01 BMatP= 5.87D+01
 IDIUse=3 WtCom= 1.62D-01 WtEn= 8.38D-01
 Coeff-Com: -0.352D+00 0.643D+00 0.194D-01 0.158D+00-0.183D-01 0.550D+00
 Coeff-En:   0.000D+00 0.000D+00 0.000D+00 0.142D+00 0.000D+00 0.858D+00
 Coeff:     -0.570D-01 0.104D+00 0.313D-02 0.144D+00-0.297D-02 0.808D+00
 Gap=    -0.234 Goal=   None    Shift=    0.000
 Gap=    -0.232 Goal=   None    Shift=    0.000
 RMSDP=1.39D-02 MaxDP=5.50D-01 DE=-1.04D+02 OVMax= 7.90D-01

 Cycle   7  Pass 1  IDiag  1:
 RMSU=  1.24D-02    CP:  8.57D-02  3.33D-01  1.10D-02  1.19D-01  5.60D-02
                    CP:  7.37D-01
 E= -493.105861549705     Delta-E=       -0.274966928544 Rises=F Damp=F
 DIIS: error= 7.84D-02 at cycle   7 NSaved=   7.
 NSaved= 7 IEnMin= 7 EnMin= -493.105861549705     IErMin= 7 ErrMin= 7.84D-02
 ErrMax= 7.84D-02  0.00D+00 EMaxC= 1.00D-01 BMatC= 1.19D+01 BMatP= 1.20D+01
 IDIUse=3 WtCom= 2.16D-01 WtEn= 7.84D-01
 Coeff-Com: -0.137D+00 0.242D+00 0.179D-01 0.274D-01-0.116D-01 0.448D+00
 Coeff-Com:  0.414D+00
 Coeff-En:   0.000D+00 0.000D+00 0.000D+00 0.000D+00 0.000D+00 0.485D+00
 Coeff-En:   0.515D+00
 Coeff:     -0.297D-01 0.523D-01 0.386D-02 0.591D-02-0.251D-02 0.477D+00
 Coeff:      0.493D+00
 Gap=    -0.308 Goal=   None    Shift=    0.000
 Gap=    -0.309 Goal=   None    Shift=    0.000
 RMSDP=8.29D-03 MaxDP=3.48D-01 DE=-2.75D-01 OVMax= 7.97D-01

 Cycle   8  Pass 1  IDiag  1:
 RMSU=  5.95D-03    CP:  7.54D-02  3.95D-01  1.06D-02  9.94D-02  5.78D-02
                    CP:  8.21D-01  5.68D-01
 E= -496.271502516737     Delta-E=       -3.165640967032 Rises=F Damp=F
 DIIS: error= 4.31D-02 at cycle   8 NSaved=   8.
 NSaved= 8 IEnMin= 8 EnMin= -496.271502516737     IErMin= 8 ErrMin= 4.31D-02
 ErrMax= 4.31D-02  0.00D+00 EMaxC= 1.00D-01 BMatC= 2.21D+00 BMatP= 1.19D+01
 IDIUse=3 WtCom= 5.69D-01 WtEn= 4.31D-01
 Coeff-Com: -0.406D-01 0.725D-01-0.842D-02-0.106D-01-0.183D-02 0.265D+00
 Coeff-Com:  0.214D+00 0.510D+00
 Coeff-En:   0.000D+00 0.000D+00 0.000D+00 0.000D+00 0.000D+00 0.817D-01
 Coeff-En:   0.000D+00 0.918D+00
 Coeff:     -0.231D-01 0.413D-01-0.480D-02-0.606D-02-0.104D-02 0.186D+00
 Coeff:      0.122D+00 0.686D+00
 Gap=     0.618 Goal=   None    Shift=    0.000
 Gap=     0.618 Goal=   None    Shift=    0.000
 RMSDP=6.50D-03 MaxDP=3.58D-01 DE=-3.17D+00 OVMax= 9.27D-01

 Cycle   9  Pass 1  IDiag  1:
 RMSU=  5.13D-03    CP:  7.63D-02  3.47D-01  1.09D-02  9.39D-02  6.69D-02
                    CP:  8.45D-01  5.46D-01  3.51D-01
 E= -495.373855152106     Delta-E=        0.897647364631 Rises=F Damp=F
 DIIS: error= 6.79D-02 at cycle   9 NSaved=   9.
 NSaved= 9 IEnMin= 8 EnMin= -496.271502516737     IErMin= 8 ErrMin= 4.31D-02
 ErrMax= 6.79D-02  0.00D+00 EMaxC= 1.00D-01 BMatC= 3.33D+00 BMatP= 2.21D+00
 IDIUse=2 WtCom= 0.00D+00 WtEn= 1.00D+00
 Coeff-En:   0.000D+00 0.000D+00 0.000D+00 0.000D+00 0.000D+00 0.000D+00
 Coeff-En:   0.000D+00 0.700D+00 0.300D+00
 Coeff:      0.000D+00 0.000D+00 0.000D+00 0.000D+00 0.000D+00 0.000D+00
 Coeff:      0.000D+00 0.700D+00 0.300D+00
 Gap=    -0.145 Goal=   None    Shift=    0.000
 Gap=    -0.145 Goal=   None    Shift=    0.000
 RMSDP=5.58D-03 MaxDP=1.98D-01 DE= 8.98D-01 OVMax= 6.87D-01

 Cycle  10  Pass 1  IDiag  1:
 RMSU=  3.42D-03    CP:  7.61D-02  3.75D-01  1.29D-02  9.74D-02  7.03D-02
                    CP:  8.67D-01  3.82D-01  7.98D-01  4.54D-01
 E= -496.580455020506     Delta-E=       -1.206599868400 Rises=F Damp=F
 DIIS: error= 2.81D-02 at cycle  10 NSaved=  10.
 NSaved=10 IEnMin=10 EnMin= -496.580455020506     IErMin=10 ErrMin= 2.81D-02
 ErrMax= 2.81D-02  0.00D+00 EMaxC= 1.00D-01 BMatC= 9.66D-01 BMatP= 2.21D+00
 IDIUse=3 WtCom= 7.19D-01 WtEn= 2.81D-01
 EnCoef did     2 forward-backward iterations
 Coeff-Com: -0.774D-02 0.160D-01-0.212D-02-0.322D-02 0.919D-03-0.949D-02
 Coeff-Com:  0.600D-01 0.334D+00 0.138D+00 0.474D+00
 Coeff-En:   0.000D+00 0.000D+00 0.000D+00 0.000D+00 0.000D+00 0.000D+00
 Coeff-En:   0.000D+00 0.287D+00 0.518D-02 0.708D+00
 Coeff:     -0.556D-02 0.115D-01-0.152D-02-0.231D-02 0.660D-03-0.682D-02
 Coeff:      0.431D-01 0.321D+00 0.101D+00 0.540D+00
 Gap=     0.251 Goal=   None    Shift=    0.000
 Gap=     0.251 Goal=   None    Shift=    0.000
 RMSDP=3.02D-03 MaxDP=1.33D-01 DE=-1.21D+00 OVMax= 1.72D-01

 Cycle  11  Pass 1  IDiag  1:
 RMSU=  1.57D-03    CP:  7.55D-02  3.70D-01  1.02D-02  9.44D-02  6.29D-02
                    CP:  8.47D-01  4.95D-01  8.03D-01  2.48D-01  4.84D-01
 E= -496.788286213052     Delta-E=       -0.207831192545 Rises=F Damp=F
 DIIS: error= 1.11D-02 at cycle  11 NSaved=  11.
 NSaved=11 IEnMin=11 EnMin= -496.788286213052     IErMin=11 ErrMin= 1.11D-02
 ErrMax= 1.11D-02  0.00D+00 EMaxC= 1.00D-01 BMatC= 1.28D-01 BMatP= 9.66D-01
 IDIUse=3 WtCom= 8.89D-01 WtEn= 1.11D-01
 Coeff-Com:  0.145D-03 0.185D-03-0.145D-02 0.156D-02 0.652D-03-0.214D-01
 Coeff-Com:  0.863D-02 0.975D-01 0.382D-01 0.323D+00 0.553D+00
 Coeff-En:   0.000D+00 0.000D+00 0.000D+00 0.000D+00 0.000D+00 0.000D+00
 Coeff-En:   0.000D+00 0.000D+00 0.000D+00 0.689D-01 0.931D+00
 Coeff:      0.129D-03 0.165D-03-0.129D-02 0.139D-02 0.580D-03-0.190D-01
 Coeff:      0.768D-02 0.867D-01 0.340D-01 0.295D+00 0.595D+00
 Gap=     0.185 Goal=   None    Shift=    0.000
 Gap=     0.185 Goal=   None    Shift=    0.000
 RMSDP=1.07D-03 MaxDP=7.12D-02 DE=-2.08D-01 OVMax= 8.19D-02

 Cycle  12  Pass 1  IDiag  1:
 RMSU=  5.64D-04    CP:  7.48D-02  3.72D-01  1.06D-02  9.57D-02  6.41D-02
                    CP:  8.48D-01  4.72D-01  8.26D-01  3.16D-01  6.55D-01
                    CP:  6.77D-01
 E= -496.803099979981     Delta-E=       -0.014813766929 Rises=F Damp=F
 DIIS: error= 7.44D-03 at cycle  12 NSaved=  12.
 NSaved=12 IEnMin=12 EnMin= -496.803099979981     IErMin=12 ErrMin= 7.44D-03
 ErrMax= 7.44D-03  0.00D+00 EMaxC= 1.00D-01 BMatC= 4.99D-02 BMatP= 1.28D-01
 IDIUse=3 WtCom= 9.26D-01 WtEn= 7.44D-02
 Coeff-Com: -0.123D-03-0.141D-03-0.459D-03-0.299D-03-0.200D-03 0.291D-04
 Coeff-Com:  0.459D-03-0.130D-01 0.791D-02 0.230D-01 0.407D+00 0.576D+00
 Coeff-En:   0.000D+00 0.000D+00 0.000D+00 0.000D+00 0.000D+00 0.000D+00
 Coeff-En:   0.000D+00 0.000D+00 0.000D+00 0.000D+00 0.322D+00 0.678D+00
 Coeff:     -0.114D-03-0.131D-03-0.425D-03-0.277D-03-0.185D-03 0.269D-04
 Coeff:      0.425D-03-0.120D-01 0.732D-02 0.213D-01 0.401D+00 0.583D+00
 Gap=     0.194 Goal=   None    Shift=    0.000
 Gap=     0.194 Goal=   None    Shift=    0.000
 RMSDP=5.10D-04 MaxDP=2.82D-02 DE=-1.48D-02 OVMax= 3.67D-02

 Cycle  13  Pass 1  IDiag  1:
 RMSU=  1.70D-04    CP:  7.48D-02  3.71D-01  1.04D-02  9.49D-02  6.36D-02
                    CP:  8.49D-01  4.81D-01  8.02D-01  2.94D-01  5.94D-01
                    CP:  8.65D-01  5.90D-01
 E= -496.812567570912     Delta-E=       -0.009467590932 Rises=F Damp=F
 DIIS: error= 9.87D-04 at cycle  13 NSaved=  13.
 NSaved=13 IEnMin=13 EnMin= -496.812567570912     IErMin=13 ErrMin= 9.87D-04
 ErrMax= 9.87D-04  0.00D+00 EMaxC= 1.00D-01 BMatC= 1.48D-03 BMatP= 4.99D-02
 IDIUse=3 WtCom= 9.90D-01 WtEn= 9.87D-03
 Coeff-Com:  0.113D-03-0.348D-03-0.560D-04-0.957D-04-0.669D-05 0.107D-02
 Coeff-Com: -0.205D-02-0.133D-01 0.346D-02-0.171D-01 0.163D+00 0.315D+00
 Coeff-Com:  0.550D+00
 Coeff-En:   0.000D+00 0.000D+00 0.000D+00 0.000D+00 0.000D+00 0.000D+00
 Coeff-En:   0.000D+00 0.000D+00 0.000D+00 0.000D+00 0.000D+00 0.000D+00
 Coeff-En:   0.100D+01
 Coeff:      0.112D-03-0.344D-03-0.554D-04-0.948D-04-0.662D-05 0.106D-02
 Coeff:     -0.203D-02-0.132D-01 0.342D-02-0.169D-01 0.161D+00 0.312D+00
 Coeff:      0.554D+00
 Gap=     0.176 Goal=   None    Shift=    0.000
 Gap=     0.176 Goal=   None    Shift=    0.000
 RMSDP=9.29D-05 MaxDP=4.63D-03 DE=-9.47D-03 OVMax= 6.31D-03

 Cycle  14  Pass 1  IDiag  1:
 RMSU=  4.79D-05    CP:  7.48D-02  3.71D-01  1.04D-02  9.50D-02  6.36D-02
                    CP:  8.48D-01  4.82D-01  8.05D-01  2.94D-01  5.94D-01
                    CP:  8.70D-01  6.72D-01  6.47D-01
 E= -496.812879990018     Delta-E=       -0.000312419106 Rises=F Damp=F
 DIIS: error= 3.40D-04 at cycle  14 NSaved=  14.
 NSaved=14 IEnMin=14 EnMin= -496.812879990018     IErMin=14 ErrMin= 3.40D-04
 ErrMax= 3.40D-04  0.00D+00 EMaxC= 1.00D-01 BMatC= 1.22D-04 BMatP= 1.48D-03
 IDIUse=3 WtCom= 9.97D-01 WtEn= 3.40D-03
 EnCoef did    17 forward-backward iterations
 Coeff-Com: -0.226D-04 0.404D-04 0.560D-04 0.285D-04 0.138D-04 0.261D-03
 Coeff-Com: -0.331D-03-0.204D-02 0.355D-03-0.119D-02 0.123D-01 0.493D-01
 Coeff-Com:  0.229D+00 0.712D+00
 Coeff-En:   0.000D+00 0.000D+00 0.000D+00 0.000D+00 0.000D+00 0.000D+00
 Coeff-En:   0.000D+00 0.000D+00 0.000D+00 0.000D+00 0.000D+00 0.000D+00
 Coeff-En:   0.523D-03 0.999D+00
 Coeff:     -0.226D-04 0.402D-04 0.558D-04 0.284D-04 0.138D-04 0.260D-03
 Coeff:     -0.330D-03-0.204D-02 0.354D-03-0.118D-02 0.123D-01 0.491D-01
 Coeff:      0.228D+00 0.713D+00
 Gap=     0.176 Goal=   None    Shift=    0.000
 Gap=     0.176 Goal=   None    Shift=    0.000
 RMSDP=2.78D-05 MaxDP=1.06D-03 DE=-3.12D-04 OVMax= 2.17D-03

 Cycle  15  Pass 1  IDiag  1:
 RMSU=  1.23D-05    CP:  7.48D-02  3.71D-01  1.04D-02  9.50D-02  6.36D-02
                    CP:  8.48D-01  4.81D-01  8.04D-01  2.96D-01  5.97D-01
                    CP:  8.67D-01  6.68D-01  7.13D-01  7.48D-01
 E= -496.812911812322     Delta-E=       -0.000031822304 Rises=F Damp=F
 DIIS: error= 6.52D-05 at cycle  15 NSaved=  15.
 NSaved=15 IEnMin=15 EnMin= -496.812911812322     IErMin=15 ErrMin= 6.52D-05
 ErrMax= 6.52D-05  0.00D+00 EMaxC= 1.00D-01 BMatC= 6.95D-06 BMatP= 1.22D-04
 IDIUse=1 WtCom= 1.00D+00 WtEn= 0.00D+00
 Coeff-Com:  0.278D-04-0.505D-04 0.186D-04-0.170D-04-0.462D-05 0.107D-03
 Coeff-Com: -0.225D-04-0.392D-03-0.711D-04 0.306D-03-0.810D-03 0.133D-01
 Coeff-Com:  0.880D-01 0.330D+00 0.570D+00
 Coeff:      0.278D-04-0.505D-04 0.186D-04-0.170D-04-0.462D-05 0.107D-03
 Coeff:     -0.225D-04-0.392D-03-0.711D-04 0.306D-03-0.810D-03 0.133D-01
 Coeff:      0.880D-01 0.330D+00 0.570D+00
 Gap=     0.176 Goal=   None    Shift=    0.000
 Gap=     0.176 Goal=   None    Shift=    0.000
 RMSDP=5.61D-06 MaxDP=3.07D-04 DE=-3.18D-05 OVMax= 3.89D-04

 Cycle  16  Pass 1  IDiag  1:
 RMSU=  4.23D-06    CP:  7.48D-02  3.71D-01  1.04D-02  9.50D-02  6.36D-02
                    CP:  8.48D-01  4.81D-01  8.04D-01  2.96D-01  5.97D-01
                    CP:  8.66D-01  6.70D-01  7.12D-01  7.66D-01  7.70D-01
 E= -496.812913196472     Delta-E=       -0.000001384150 Rises=F Damp=F
 DIIS: error= 2.22D-05 at cycle  16 NSaved=  16.
 NSaved=16 IEnMin=16 EnMin= -496.812913196472     IErMin=16 ErrMin= 2.22D-05
 ErrMax= 2.22D-05  0.00D+00 EMaxC= 1.00D-01 BMatC= 7.51D-07 BMatP= 6.95D-06
 IDIUse=1 WtCom= 1.00D+00 WtEn= 0.00D+00
 Coeff-Com:  0.399D-05-0.108D-04 0.235D-05-0.112D-04-0.617D-05-0.791D-05
 Coeff-Com:  0.363D-04 0.813D-04-0.443D-04 0.632D-03-0.174D-02 0.632D-03
 Coeff-Com:  0.154D-01 0.611D-01 0.256D+00 0.667D+00
 Coeff:      0.399D-05-0.108D-04 0.235D-05-0.112D-04-0.617D-05-0.791D-05
 Coeff:      0.363D-04 0.813D-04-0.443D-04 0.632D-03-0.174D-02 0.632D-03
 Coeff:      0.154D-01 0.611D-01 0.256D+00 0.667D+00
 Gap=     0.176 Goal=   None    Shift=    0.000
 Gap=     0.176 Goal=   None    Shift=    0.000
 RMSDP=2.09D-06 MaxDP=8.94D-05 DE=-1.38D-06 OVMax= 1.66D-04

 Cycle  17  Pass 1  IDiag  1:
 RMSU=  1.20D-06    CP:  7.48D-02  3.71D-01  1.04D-02  9.50D-02  6.36D-02
                    CP:  8.48D-01  4.81D-01  8.04D-01  2.96D-01  5.98D-01
                    CP:  8.65D-01  6.70D-01  7.14D-01  7.67D-01  8.26D-01
                    CP:  8.36D-01
 E= -496.812913375007     Delta-E=       -0.000000178534 Rises=F Damp=F
 DIIS: error= 5.33D-06 at cycle  17 NSaved=  17.
 NSaved=17 IEnMin=17 EnMin= -496.812913375007     IErMin=17 ErrMin= 5.33D-06
 ErrMax= 5.33D-06  0.00D+00 EMaxC= 1.00D-01 BMatC= 5.62D-08 BMatP= 7.51D-07
 IDIUse=1 WtCom= 1.00D+00 WtEn= 0.00D+00
 Coeff-Com: -0.452D-06 0.393D-06 0.109D-05 0.110D-05-0.230D-05-0.597D-05
 Coeff-Com: -0.872D-05 0.578D-04 0.519D-05 0.134D-03-0.557D-03-0.608D-03
 Coeff-Com:  0.667D-03-0.327D-02 0.579D-01 0.275D+00 0.671D+00
 Coeff:     -0.452D-06 0.393D-06 0.109D-05 0.110D-05-0.230D-05-0.597D-05
 Coeff:     -0.872D-05 0.578D-04 0.519D-05 0.134D-03-0.557D-03-0.608D-03
 Coeff:      0.667D-03-0.327D-02 0.579D-01 0.275D+00 0.671D+00
 Gap=     0.176 Goal=   None    Shift=    0.000
 Gap=     0.176 Goal=   None    Shift=    0.000
 RMSDP=5.83D-07 MaxDP=2.39D-05 DE=-1.79D-07 OVMax= 3.99D-05

 Cycle  18  Pass 1  IDiag  1:
 RMSU=  4.29D-07    CP:  7.48D-02  3.71D-01  1.04D-02  9.50D-02  6.36D-02
                    CP:  8.48D-01  4.81D-01  8.04D-01  2.96D-01  5.98D-01
                    CP:  8.65D-01  6.69D-01  7.15D-01  7.64D-01  8.32D-01
                    CP:  8.58D-01  7.93D-01
 E= -496.812913385197     Delta-E=       -0.000000010190 Rises=F Damp=F
 DIIS: error= 4.74D-06 at cycle  18 NSaved=  18.
 NSaved=18 IEnMin=18 EnMin= -496.812913385197     IErMin=18 ErrMin= 4.74D-06
 ErrMax= 4.74D-06  0.00D+00 EMaxC= 1.00D-01 BMatC= 1.22D-08 BMatP= 5.62D-08
 IDIUse=1 WtCom= 1.00D+00 WtEn= 0.00D+00
 Coeff-Com: -0.405D-06 0.983D-06-0.116D-06 0.623D-06-0.122D-06 0.344D-05
 Coeff-Com: -0.354D-05 0.245D-04 0.213D-05-0.264D-04 0.142D-04 0.111D-05
 Coeff-Com: -0.698D-04-0.462D-02 0.380D-02 0.765D-01 0.305D+00 0.620D+00
 Coeff:     -0.405D-06 0.983D-06-0.116D-06 0.623D-06-0.122D-06 0.344D-05
 Coeff:     -0.354D-05 0.245D-04 0.213D-05-0.264D-04 0.142D-04 0.111D-05
 Coeff:     -0.698D-04-0.462D-02 0.380D-02 0.765D-01 0.305D+00 0.620D+00
 Gap=     0.176 Goal=   None    Shift=    0.000
 Gap=     0.176 Goal=   None    Shift=    0.000
 RMSDP=2.40D-07 MaxDP=8.37D-06 DE=-1.02D-08 OVMax= 1.44D-05

 Cycle  19  Pass 1  IDiag  1:
 RMSU=  1.41D-07    CP:  7.48D-02  3.71D-01  1.04D-02  9.50D-02  6.36D-02
                    CP:  8.48D-01  4.81D-01  8.04D-01  2.96D-01  5.97D-01
                    CP:  8.66D-01  6.70D-01  7.15D-01  7.64D-01  8.30D-01
                    CP:  8.62D-01  8.16D-01  8.14D-01
 E= -496.812913387970     Delta-E=       -0.000000002773 Rises=F Damp=F
 DIIS: error= 8.59D-07 at cycle  19 NSaved=  19.
 NSaved=19 IEnMin=19 EnMin= -496.812913387970     IErMin=19 ErrMin= 8.59D-07
 ErrMax= 8.59D-07  0.00D+00 EMaxC= 1.00D-01 BMatC= 4.54D-10 BMatP= 1.22D-08
 IDIUse=1 WtCom= 1.00D+00 WtEn= 0.00D+00
 Coeff-Com: -0.202D-06 0.375D-06-0.186D-06-0.151D-06 0.189D-06 0.459D-07
 Coeff-Com:  0.717D-06 0.872D-05-0.174D-05-0.960D-05 0.390D-05 0.122D-04
 Coeff-Com: -0.130D-03-0.140D-02-0.170D-03 0.225D-01 0.822D-01 0.218D+00
 Coeff-Com:  0.679D+00
 Coeff:     -0.202D-06 0.375D-06-0.186D-06-0.151D-06 0.189D-06 0.459D-07
 Coeff:      0.717D-06 0.872D-05-0.174D-05-0.960D-05 0.390D-05 0.122D-04
 Coeff:     -0.130D-03-0.140D-02-0.170D-03 0.225D-01 0.822D-01 0.218D+00
 Coeff:      0.679D+00
 Gap=     0.176 Goal=   None    Shift=    0.000
 Gap=     0.176 Goal=   None    Shift=    0.000
 RMSDP=6.14D-08 MaxDP=2.72D-06 DE=-2.77D-09 OVMax= 4.91D-06

 Cycle  20  Pass 1  IDiag  1:
 RMSU=  4.75D-08    CP:  7.48D-02  3.71D-01  1.04D-02  9.50D-02  6.36D-02
                    CP:  8.48D-01  4.81D-01  8.04D-01  2.96D-01  5.97D-01
                    CP:  8.65D-01  6.70D-01  7.15D-01  7.64D-01  8.30D-01
                    CP:  8.64D-01  8.18D-01  8.37D-01  8.80D-01
 E= -496.812913388095     Delta-E=       -0.000000000125 Rises=F Damp=F
 DIIS: error= 2.90D-07 at cycle  20 NSaved=  20.
 NSaved=20 IEnMin=20 EnMin= -496.812913388095     IErMin=20 ErrMin= 2.90D-07
 ErrMax= 2.90D-07  0.00D+00 EMaxC= 1.00D-01 BMatC= 6.75D-11 BMatP= 4.54D-10
 IDIUse=1 WtCom= 1.00D+00 WtEn= 0.00D+00
 Coeff-Com:  0.589D-09-0.508D-08-0.140D-07 0.450D-08-0.897D-10 0.500D-07
 Coeff-Com:  0.237D-06-0.186D-05-0.191D-07-0.323D-05 0.125D-05 0.131D-04
 Coeff-Com: -0.537D-04 0.287D-04-0.769D-03-0.127D-02-0.104D-01-0.209D-01
 Coeff-Com:  0.271D+00 0.762D+00
 Coeff:      0.589D-09-0.508D-08-0.140D-07 0.450D-08-0.897D-10 0.500D-07
 Coeff:      0.237D-06-0.186D-05-0.191D-07-0.323D-05 0.125D-05 0.131D-04
 Coeff:     -0.537D-04 0.287D-04-0.769D-03-0.127D-02-0.104D-01-0.209D-01
 Coeff:      0.271D+00 0.762D+00
 Gap=     0.176 Goal=   None    Shift=    0.000
 Gap=     0.176 Goal=   None    Shift=    0.000
 RMSDP=2.68D-08 MaxDP=1.50D-06 DE=-1.25D-10 OVMax= 2.90D-06

 Cycle  21  Pass 1  IDiag  1:
 Restarting incremental Fock formation.
 E= -496.812913388125     Delta-E=       -0.000000000029 Rises=F Damp=F
 DIIS: error= 1.69D-07 at cycle  21 NSaved=  20.
 NSaved=20 IEnMin=20 EnMin= -496.812913388125     IErMin=20 ErrMin= 1.69D-07
 ErrMax= 1.69D-07  0.00D+00 EMaxC= 1.00D-01 BMatC= 8.27D-12 BMatP= 6.75D-11
 IDIUse=1 WtCom= 1.00D+00 WtEn= 0.00D+00
 Coeff-Com: -0.150D-08 0.694D-08 0.108D-07-0.105D-07 0.270D-07 0.683D-07
 Coeff-Com: -0.123D-05 0.108D-06-0.684D-06-0.673D-07 0.176D-05-0.723D-05
 Coeff-Com:  0.120D-03-0.245D-03-0.181D-02-0.835D-02-0.192D-01 0.355D-01
 Coeff-Com:  0.204D+00 0.790D+00
 Coeff:     -0.150D-08 0.694D-08 0.108D-07-0.105D-07 0.270D-07 0.683D-07
 Coeff:     -0.123D-05 0.108D-06-0.684D-06-0.673D-07 0.176D-05-0.723D-05
 Coeff:      0.120D-03-0.245D-03-0.181D-02-0.835D-02-0.192D-01 0.355D-01
 Coeff:      0.204D+00 0.790D+00
 Gap=     0.176 Goal=   None    Shift=    0.000
 Gap=     0.176 Goal=   None    Shift=    0.000
 RMSDP=1.52D-08 MaxDP=8.79D-07 DE=-2.93D-11 OVMax= 2.30D-06

 Cycle  22  Pass 1  IDiag  1:
 RMSU=  1.52D-08    CP:  1.00D+00
 E= -496.812913388134     Delta-E=       -0.000000000010 Rises=F Damp=F
 DIIS: error= 1.13D-07 at cycle  22 NSaved=  20.
 NSaved=20 IEnMin=20 EnMin= -496.812913388134     IErMin=20 ErrMin= 1.13D-07
 ErrMax= 1.13D-07  0.00D+00 EMaxC= 1.00D-01 BMatC= 5.72D-12 BMatP= 8.27D-12
 IDIUse=1 WtCom= 1.00D+00 WtEn= 0.00D+00
 Coeff-Com: -0.237D-08 0.129D-07-0.487D-08-0.761D-07-0.516D-07 0.279D-06
 Coeff-Com: -0.246D-08 0.171D-05-0.133D-05-0.832D-05 0.268D-04 0.912D-04
 Coeff-Com:  0.319D-03-0.623D-03-0.497D-03-0.789D-03-0.140D+00-0.327D+00
 Coeff-Com:  0.584D+00 0.884D+00
 Coeff:     -0.237D-08 0.129D-07-0.487D-08-0.761D-07-0.516D-07 0.279D-06
 Coeff:     -0.246D-08 0.171D-05-0.133D-05-0.832D-05 0.268D-04 0.912D-04
 Coeff:      0.319D-03-0.623D-03-0.497D-03-0.789D-03-0.140D+00-0.327D+00
 Coeff:      0.584D+00 0.884D+00
 Gap=     0.176 Goal=   None    Shift=    0.000
 Gap=     0.176 Goal=   None    Shift=    0.000
 RMSDP=1.76D-08 MaxDP=1.01D-06 DE=-9.66D-12 OVMax= 2.69D-06

 Cycle  23  Pass 1  IDiag  1:
 RMSU=  1.33D-08    CP:  1.00D+00  1.76D+00
 E= -496.812913388142     Delta-E=       -0.000000000008 Rises=F Damp=F
 DIIS: error= 5.88D-08 at cycle  23 NSaved=  20.
 NSaved=20 IEnMin=20 EnMin= -496.812913388142     IErMin=20 ErrMin= 5.88D-08
 ErrMax= 5.88D-08  0.00D+00 EMaxC= 1.00D-01 BMatC= 8.92D-13 BMatP= 5.72D-12
 IDIUse=1 WtCom= 1.00D+00 WtEn= 0.00D+00
 Coeff-Com: -0.878D-09-0.315D-09 0.229D-08-0.918D-07 0.628D-06 0.868D-08
 Coeff-Com:  0.715D-06 0.733D-06-0.118D-05 0.478D-05-0.525D-04 0.739D-04
 Coeff-Com:  0.231D-03 0.240D-02 0.614D-02-0.318D-01-0.991D-01-0.239D+00
 Coeff-Com:  0.756D-01 0.129D+01
 Coeff:     -0.878D-09-0.315D-09 0.229D-08-0.918D-07 0.628D-06 0.868D-08
 Coeff:      0.715D-06 0.733D-06-0.118D-05 0.478D-05-0.525D-04 0.739D-04
 Coeff:      0.231D-03 0.240D-02 0.614D-02-0.318D-01-0.991D-01-0.239D+00
 Coeff:      0.756D-01 0.129D+01
 Gap=     0.176 Goal=   None    Shift=    0.000
 Gap=     0.176 Goal=   None    Shift=    0.000
 RMSDP=1.28D-08 MaxDP=6.57D-07 DE=-7.62D-12 OVMax= 1.80D-06

 Cycle  24  Pass 1  IDiag  1:
 RMSU=  3.50D-09    CP:  1.00D+00  2.46D+00  1.48D+00
 E= -496.812913388142     Delta-E=        0.000000000000 Rises=F Damp=F
 DIIS: error= 9.82D-09 at cycle  24 NSaved=  20.
 NSaved=20 IEnMin=19 EnMin= -496.812913388142     IErMin=20 ErrMin= 9.82D-09
 ErrMax= 9.82D-09  0.00D+00 EMaxC= 1.00D-01 BMatC= 9.63D-14 BMatP= 8.92D-13
 IDIUse=1 WtCom= 1.00D+00 WtEn= 0.00D+00
 Coeff-Com:  0.595D-10 0.286D-08-0.245D-08 0.303D-07-0.357D-08-0.740D-07
 Coeff-Com:  0.152D-06 0.134D-05-0.323D-05-0.174D-04-0.219D-04 0.384D-04
 Coeff-Com:  0.130D-03-0.202D-03 0.122D-01 0.384D-01-0.560D-01-0.983D-01
 Coeff-Com: -0.119D-01 0.112D+01
 Coeff:      0.595D-10 0.286D-08-0.245D-08 0.303D-07-0.357D-08-0.740D-07
 Coeff:      0.152D-06 0.134D-05-0.323D-05-0.174D-04-0.219D-04 0.384D-04
 Coeff:      0.130D-03-0.202D-03 0.122D-01 0.384D-01-0.560D-01-0.983D-01
 Coeff:     -0.119D-01 0.112D+01
 Gap=     0.176 Goal=   None    Shift=    0.000
 Gap=     0.176 Goal=   None    Shift=    0.000
 RMSDP=2.63D-09 MaxDP=1.18D-07 DE= 0.00D+00 OVMax= 3.26D-07

 Error on total polarization charges =  0.00822
 SCF Done:  E(UB3LYP) =  -496.812913388     A.U. after   24 cycles
            NFock= 24  Conv=0.26D-08     -V/T= 2.0096
 <Sx>= 0.0000 <Sy>= 0.0000 <Sz>= 0.0000 <S**2>=-0.0000 S=-0.0000
 <L.S>=  0.00000000000    
 KE= 4.920740279312D+02 PE=-2.293930008047D+03 EE= 7.356460710884D+02
 Annihilation of the first spin contaminant:
 S**2 before annihilation    -0.0000,   after     0.0000
 Leave Link  502 at Sun Jun 30 16:44:25 2019, MaxMem=  1073741824 cpu:             726.6 elap:              18.7
 (Enter /project/6004141/group/g16/g16/l801.exe)
 DoSCS=F DFT=T ScalE2(SS,OS)=  1.000000  1.000000
 ExpMin= 1.61D-01 ExpMax= 5.48D+03 ExpMxC= 8.25D+02 IAcc=3 IRadAn=         5 AccDes= 0.00D+00
 HarFok:  IExCor=  205 AccDes= 0.00D+00 IRadAn=         5 IDoV=-2 UseB2=F ITyADJ=14
 ICtDFT= 12500011 ScaDFX=  1.000000  1.000000  1.000000  1.000000
 Largest valence mixing into a core orbital is  5.79D-05
 Largest core mixing into a valence orbital is  1.43D-05
 Largest valence mixing into a core orbital is  5.79D-05
 Largest core mixing into a valence orbital is  1.43D-05
 Range of M.O.s used for correlation:    12   225
 NBasis=   225 NAE=    41 NBE=    41 NFC=    11 NFV=     0
 NROrb=    214 NOA=    30 NOB=    30 NVA=   184 NVB=   184

 **** Warning!!: The largest alpha MO coefficient is  0.10966625D+02


 **** Warning!!: The largest beta MO coefficient is  0.10966625D+02

 Leave Link  801 at Sun Jun 30 16:44:26 2019, MaxMem=  1073741824 cpu:               9.7 elap:               0.3
 (Enter /project/6004141/group/g16/g16/l914.exe)
 UHF ground state
 Two-electron integrals replicated using symmetry.
 MDV=  1073741824 DFT=T DoStab=F Mixed=T DoRPA=T DoScal=F NonHer=T
 NEqPCM:  Using non-equilibrium solvation (IEInf=1, Eps=  35.6880, EpsInf=   1.8069)
 Inv3:  Mode=1 IEnd=    10201008.
 Iteration    1 A*A^-1 deviation from unit magnitude is 2.89D-15 for    380.
 Iteration    1 A*A^-1 deviation from orthogonality  is 1.89D-15 for   1660    728.
 Iteration    1 A^-1*A deviation from unit magnitude is 3.11D-15 for    615.
 Iteration    1 A^-1*A deviation from orthogonality  is 2.44D-15 for   1689    240.
 Making orbital integer symmetry assigments:
 Orbital symmetries:
 Alpha Orbitals:
       Occupied  (A) (A) (A) (A) (A) (A) (A) (A) (A) (A) (A) (A)
                 (A) (A) (A) (A) (A) (A) (A) (A) (A) (A) (A) (A)
                 (A) (A) (A) (A) (A) (A) (A) (A) (A) (A) (A) (A)
                 (A) (A) (A) (A) (A)
       Virtual   (A) (A) (A) (A) (A) (A) (A) (A) (A) (A) (A) (A)
                 (A) (A) (A) (A) (A) (A) (A) (A) (A) (A) (A) (A)
                 (A) (A) (A) (A) (A) (A) (A) (A) (A) (A) (A) (A)
                 (A) (A) (A) (A) (A) (A) (A) (A) (A) (A) (A) (A)
                 (A) (A) (A) (A) (A) (A) (A) (A) (A) (A) (A) (A)
                 (A) (A) (A) (A) (A) (A) (A) (A) (A) (A) (A) (A)
                 (A) (A) (A) (A) (A) (A) (A) (A) (A) (A) (A) (A)
                 (A) (A) (A) (A) (A) (A) (A) (A) (A) (A) (A) (A)
                 (A) (A) (A) (A) (A) (A) (A) (A) (A) (A) (A) (A)
                 (A) (A) (A) (A) (A) (A) (A) (A) (A) (A) (A) (A)
                 (A) (A) (A) (A) (A) (A) (A) (A) (A) (A) (A) (A)
                 (A) (A) (A) (A) (A) (A) (A) (A) (A) (A) (A) (A)
                 (A) (A) (A) (A) (A) (A) (A) (A) (A) (A) (A) (A)
                 (A) (A) (A) (A) (A) (A) (A) (A) (A) (A) (A) (A)
                 (A) (A) (A) (A) (A) (A) (A) (A) (A) (A) (A) (A)
                 (A) (A) (A) (A)
 Beta  Orbitals:
       Occupied  (A) (A) (A) (A) (A) (A) (A) (A) (A) (A) (A) (A)
                 (A) (A) (A) (A) (A) (A) (A) (A) (A) (A) (A) (A)
                 (A) (A) (A) (A) (A) (A) (A) (A) (A) (A) (A) (A)
                 (A) (A) (A) (A) (A)
       Virtual   (A) (A) (A) (A) (A) (A) (A) (A) (A) (A) (A) (A)
                 (A) (A) (A) (A) (A) (A) (A) (A) (A) (A) (A) (A)
                 (A) (A) (A) (A) (A) (A) (A) (A) (A) (A) (A) (A)
                 (A) (A) (A) (A) (A) (A) (A) (A) (A) (A) (A) (A)
                 (A) (A) (A) (A) (A) (A) (A) (A) (A) (A) (A) (A)
                 (A) (A) (A) (A) (A) (A) (A) (A) (A) (A) (A) (A)
                 (A) (A) (A) (A) (A) (A) (A) (A) (A) (A) (A) (A)
                 (A) (A) (A) (A) (A) (A) (A) (A) (A) (A) (A) (A)
                 (A) (A) (A) (A) (A) (A) (A) (A) (A) (A) (A) (A)
                 (A) (A) (A) (A) (A) (A) (A) (A) (A) (A) (A) (A)
                 (A) (A) (A) (A) (A) (A) (A) (A) (A) (A) (A) (A)
                 (A) (A) (A) (A) (A) (A) (A) (A) (A) (A) (A) (A)
                 (A) (A) (A) (A) (A) (A) (A) (A) (A) (A) (A) (A)
                 (A) (A) (A) (A) (A) (A) (A) (A) (A) (A) (A) (A)
                 (A) (A) (A) (A) (A) (A) (A) (A) (A) (A) (A) (A)
                 (A) (A) (A) (A)
   400 initial guesses have been made.
 Convergence on wavefunction:    0.001000000000000
 Davidson Disk Diagonalization:  ConvIn= 1.00D-03 SkipCon=T Conv= 1.00D-03.
 Max sub-space:  6000 roots to seek:   400 dimension of matrix:        11040
 Iteration     1 Dimension   400 NMult     0 NNew    400
 CISAX will form    80 AO SS matrices at one time.
 NMat=    80 NSing=    80 JSym2X= 0.
 FoFJK:  IHMeth= 1 ICntrl=       0 DoSepK=F KAlg= 0 I1Cent=           0 FoldK=F
 IRaf= 840000000 NMat=     160 IRICut=     200 DoRegI=T DoRafI=T ISym2E= 0 IDoP0=0 IntGTp=1.
 NMat=    80 NSing=    80 JSym2X= 0.
 NMat=    80 NSing=    80 JSym2X= 0.
 NMat=    80 NSing=    80 JSym2X= 0.
 NMat=    80 NSing=    80 JSym2X= 0.
 New state      1 was old state     10
 New state      2 was old state      5
 New state      3 was old state      8
 New state      4 was old state      6
 New state      5 was old state      1
 New state      6 was old state      2
 New state      7 was old state      3
 New state      8 was old state      4
 New state      9 was old state     16
 New state     10 was old state      7
 New state     11 was old state     20
 New state     12 was old state      9
 New state     13 was old state     27
 New state     14 was old state     11
 New state     15 was old state     12
 New state     16 was old state     14
 New state     17 was old state     13
 New state     18 was old state     19
 New state     19 was old state     17
 New state     20 was old state     25
 New state     21 was old state     29
 New state     22 was old state     31
 New state     23 was old state     30
 New state     24 was old state     26
 New state     25 was old state     33
 New state     26 was old state     34
 New state     27 was old state     32
 New state     28 was old state     21
 New state     29 was old state     22
 New state     30 was old state     37
 New state     31 was old state     23
 New state     32 was old state     24
 New state     33 was old state     36
 New state     34 was old state     40
 New state     35 was old state     15
 New state     36 was old state     62
 New state     37 was old state     45
 New state     38 was old state     28
 New state     39 was old state     41
 New state     40 was old state     39
 New state     41 was old state     55
 New state     42 was old state     61
 New state     43 was old state     42
 New state     44 was old state     46
 New state     45 was old state     63
 New state     46 was old state     43
 New state     47 was old state     57
 New state     48 was old state     68
 New state     49 was old state     38
 New state     50 was old state     58
 New state     52 was old state     49
 New state     53 was old state     56
 New state     54 was old state     64
 New state     55 was old state     53
 New state     56 was old state     67
 New state     57 was old state     50
 New state     58 was old state     52
 New state     59 was old state     54
 New state     60 was old state     92
 New state     61 was old state     71
 New state     62 was old state     60
 New state     63 was old state     48
 New state     64 was old state     47
 New state     65 was old state     98
 New state     66 was old state     72
 New state     67 was old state     35
 New state     68 was old state     59
 New state     69 was old state     80
 New state     70 was old state     66
 New state     71 was old state     65
 New state     72 was old state     79
 New state     73 was old state     69
 New state     74 was old state     44
 New state     75 was old state     96
 New state     76 was old state     73
 New state     77 was old state     74
 New state     78 was old state     93
 New state     79 was old state    110
 New state     80 was old state     95
 New state     81 was old state     78
 New state     82 was old state    104
 New state     83 was old state     77
 New state     84 was old state     70
 New state     85 was old state     94
 New state     86 was old state     91
 New state     87 was old state     83
 New state     88 was old state    115
 New state     89 was old state     75
 New state     90 was old state     76
 New state     91 was old state     89
 New state     92 was old state     84
 New state     93 was old state     90
 New state     94 was old state    150
 New state     95 was old state     88
 New state     96 was old state    112
 New state     97 was old state     87
 New state     98 was old state     97
 New state     99 was old state    103
 New state    100 was old state    102
 Excitation Energies [eV] at current iteration:
 Root      1 :     3.447926016959489
 Root      2 :     3.485567004378862
 Root      3 :     3.898520153293188
 Root      4 :     3.954881055855612
 Root      5 :     4.169078252483485
 Root      6 :     4.180364069223824
 Root      7 :     4.455003083170226
 Root      8 :     4.494240960764738
 Root      9 :     4.565109801234667
 Root     10 :     4.779901356158445
 Root     11 :     5.200893520206272
 Root     12 :     5.490527708519354
 Root     13 :     5.589761737387660
 Root     14 :     5.775627009887369
 Root     15 :     5.776420393714713
 Root     16 :     5.909801157392175
 Root     17 :     5.921831512061984
 Root     18 :     6.156918175359432
 Root     19 :     6.158831592026930
 Root     20 :     6.438011253595318
 Root     21 :     6.522317287229014
 Root     22 :     6.547252762154732
 Root     23 :     6.551532305739936
 Root     24 :     6.581973085135274
 Root     25 :     6.621009604850594
 Root     26 :     6.809643966393796
 Root     27 :     6.829111213614829
 Root     28 :     6.915319377232481
 Root     29 :     6.921425548256273
 Root     30 :     6.998097455706939
 Root     31 :     7.001654862834653
 Root     32 :     7.225683890847741
 Root     33 :     7.231854354904083
 Root     34 :     7.279096280781193
 Root     35 :     7.308508031316633
 Root     36 :     7.534410866319250
 Root     37 :     7.538785999348160
 Root     38 :     7.599900095290066
 Root     39 :     7.636870653626002
 Root     40 :     7.705064165458944
 Root     41 :     7.728949209399654
 Root     42 :     7.763399733123145
 Root     43 :     7.832214081780229
 Root     44 :     7.880441726440317
 Root     45 :     7.925060198802309
 Root     46 :     7.945170933335419
 Root     47 :     8.036964610588244
 Root     48 :     8.113132707206887
 Root     49 :     8.141007445877552
 Root     50 :     8.209958974503905
 Root     51 :     8.335610172137981
 Root     52 :     8.378516962848066
 Root     53 :     8.384461732842746
 Root     54 :     8.434512809273338
 Root     55 :     8.465525710275100
 Root     56 :     8.473973018234378
 Root     57 :     8.519755644551006
 Root     58 :     8.553007172540525
 Root     59 :     8.575547962475582
 Root     60 :     8.634406454081073
 Root     61 :     8.650831911054834
 Root     62 :     8.668150042114533
 Root     63 :     8.678162130330435
 Root     64 :     8.750179295459549
 Root     65 :     8.810708847183747
 Root     66 :     8.811372614506253
 Root     67 :     8.914887252177298
 Root     68 :     8.934335095463696
 Root     69 :     8.962239580676261
 Root     70 :     8.966457597179133
 Root     71 :     8.975991033255379
 Root     72 :     8.995785205854048
 Root     73 :     9.013682169014226
 Root     74 :     9.049273319577258
 Root     75 :     9.068890445177459
 Root     76 :     9.093296989918166
 Root     77 :     9.122416300340799
 Root     78 :     9.168596798056322
 Root     79 :     9.185563873870025
 Root     80 :     9.218536678944686
 Root     81 :     9.225195541003005
 Root     82 :     9.254019846035209
 Root     83 :     9.265600275551163
 Root     84 :     9.286219305183803
 Root     85 :     9.295943041660353
 Root     86 :     9.309450597209807
 Root     87 :     9.313693314776572
 Root     88 :     9.361269918783869
 Root     89 :     9.401908247899598
 Root     90 :     9.405122577184098
 Root     91 :     9.421870485763984
 Root     92 :     9.432833310137237
 Root     93 :     9.450504504282716
 Root     94 :     9.492719368547952
 Root     95 :     9.534209325756850
 Root     96 :     9.584588525053183
 Root     97 :     9.598373050011828
 Root     98 :     9.604842117887525
 Root     99 :     9.640356141153534
 Root    100 :     9.645223497606457
 Root    101 :     9.684523090984474
 Root    102 :     9.703816121268179
 Root    103 :     9.705953465658116
 Root    104 :     9.729274003571295
 Root    105 :     9.736115048515620
 Root    106 :     9.754549221948412
 Root    107 :     9.763360869127899
 Root    108 :     9.792569252694463
 Root    109 :     9.793528807003682
 Root    110 :     9.802054590127309
 Root    111 :     9.816633647880517
 Root    112 :     9.828307882784458
 Root    113 :     9.862661480451546
 Root    114 :     9.873791797424854
 Root    115 :     9.890612604417843
 Root    116 :     9.909287275962491
 Root    117 :     9.920750958978601
 Root    118 :     9.922658292674873
 Root    119 :     9.953495228836122
 Root    120 :     9.991423399632152
 Root    121 :    10.024490082923954
 Root    122 :    10.035763041523037
 Root    123 :    10.112742014860732
 Root    124 :    10.129557457282679
 Root    125 :    10.144528223680162
 Root    126 :    10.170792241730320
 Root    127 :    10.177183023780088
 Root    128 :    10.189487254404391
 Root    129 :    10.211252445382959
 Root    130 :    10.240513068935908
 Root    131 :    10.244613478383773
 Root    132 :    10.253274831934815
 Root    133 :    10.278238850116185
 Root    134 :    10.294381814630357
 Root    135 :    10.311953038285877
 Root    136 :    10.331452831910168
 Root    137 :    10.356382744679744
 Root    138 :    10.360053838971442
 Root    139 :    10.363996547100104
 Root    140 :    10.374135519485215
 Root    141 :    10.376081605844160
 Root    142 :    10.390531854222338
 Root    143 :    10.393589379051480
 Root    144 :    10.402507597154178
 Root    145 :    10.422630266375332
 Root    146 :    10.457737509343200
 Root    147 :    10.465359457212253
 Root    148 :    10.479846713559798
 Root    149 :    10.508212253792138
 Root    150 :    10.554546627841265
 Root    151 :    10.573832881395859
 Root    152 :    10.578089146775664
 Root    153 :    10.584693271802678
 Root    154 :    10.631050030051568
 Root    155 :    10.648658218551509
 Root    156 :    10.654402924735614
 Root    157 :    10.671105145650568
 Root    158 :    10.676990618737525
 Root    159 :    10.679143825918253
 Root    160 :    10.681335697690105
 Root    161 :    10.699352287252339
 Root    162 :    10.727178819401397
 Root    163 :    10.730170462688202
 Root    164 :    10.743299820262919
 Root    165 :    10.753044868245009
 Root    166 :    10.756490146307582
 Root    167 :    10.762327818796859
 Root    168 :    10.784522436171589
 Root    169 :    10.801114397252171
 Root    170 :    10.808869327402256
 Root    171 :    10.856344337544678
 Root    172 :    10.869594213377606
 Root    173 :    10.894132748400711
 Root    174 :    10.939424416383194
 Root    175 :    10.951525438641944
 Root    176 :    10.973311788022910
 Root    177 :    10.981634373040272
 Root    178 :    10.982634018340374
 Root    179 :    10.995047608200851
 Root    180 :    11.012360691297317
 Root    181 :    11.017935696295739
 Root    182 :    11.021502866438173
 Root    183 :    11.029791702224070
 Root    184 :    11.038516250757436
 Root    185 :    11.043746571618298
 Root    186 :    11.094563799470032
 Root    187 :    11.097048913763356
 Root    188 :    11.104532326758996
 Root    189 :    11.111274250118186
 Root    190 :    11.134704196252594
 Root    191 :    11.148738466025165
 Root    192 :    11.151346781560761
 Root    193 :    11.160663123553382
 Root    194 :    11.167016592870025
 Root    195 :    11.175984940715528
 Root    196 :    11.204909311065906
 Root    197 :    11.208503987118863
 Root    198 :    11.215352352692207
 Root    199 :    11.234832491231350
 Root    200 :    11.236875940919360
 Root    201 :    11.240682412500037
 Root    202 :    11.255980740803723
 Root    203 :    11.264194614609586
 Root    204 :    11.280536136776854
 Root    205 :    11.289752507963948
 Root    206 :    11.294081664055945
 Root    207 :    11.315040772514360
 Root    208 :    11.341821604833061
 Root    209 :    11.349721222879062
 Root    210 :    11.358370313099853
 Root    211 :    11.382359809355474
 Root    212 :    11.389995191074073
 Root    213 :    11.394747413729187
 Root    214 :    11.399437329154425
 Root    215 :    11.434004530521589
 Root    216 :    11.450465855296770
 Root    217 :    11.488416022136368
 Root    218 :    11.495351943044799
 Root    219 :    11.503447886575113
 Root    220 :    11.517041030118699
 Root    221 :    11.527440760988227
 Root    222 :    11.553162312504410
 Root    223 :    11.583262315753466
 Root    224 :    11.614603792934934
 Root    225 :    11.616329927726344
 Root    226 :    11.697581571228580
 Root    227 :    11.705349452379709
 Root    228 :    11.720039056992011
 Root    229 :    11.733943759781992
 Root    230 :    11.740033387591088
 Root    231 :    11.760420742838969
 Root    232 :    11.774997323843845
 Root    233 :    11.776718745251417
 Root    234 :    11.787328144017577
 Root    235 :    11.797458710268504
 Root    236 :    11.808068306974748
 Root    237 :    11.808597746577940
 Root    238 :    11.830529703910360
 Root    239 :    11.848737685444389
 Root    240 :    11.899346649079634
 Root    241 :    11.939841534249544
 Root    242 :    11.948670511155171
 Root    243 :    11.960876074606798
 Root    244 :    11.988962573483665
 Root    245 :    12.028223353877257
 Root    246 :    12.033418722885440
 Root    247 :    12.034323693497068
 Root    248 :    12.056099220506486
 Root    249 :    12.068696994828306
 Root    250 :    12.069948546356729
 Root    251 :    12.086366620677355
 Root    252 :    12.090423459376012
 Root    253 :    12.100784514437631
 Root    254 :    12.112063884872812
 Root    255 :    12.116442167226026
 Root    256 :    12.118024982413299
 Root    257 :    12.141840727630663
 Root    258 :    12.142872404766530
 Root    259 :    12.148153360929991
 Root    260 :    12.181196115107838
 Root    261 :    12.181374695349204
 Root    262 :    12.188820906150404
 Root    263 :    12.195734801624161
 Root    264 :    12.215402067613612
 Root    265 :    12.235066628813209
 Root    266 :    12.256745853327912
 Root    267 :    12.266030590297559
 Root    268 :    12.272328559291729
 Root    269 :    12.300635083131439
 Root    270 :    12.305045595525927
 Root    271 :    12.313776802077573
 Root    272 :    12.330400761584299
 Root    273 :    12.339796565357533
 Root    274 :    12.358885936819213
 Root    275 :    12.364337479703023
 Root    276 :    12.365660879573978
 Root    277 :    12.381807419987393
 Root    278 :    12.407919564182967
 Root    279 :    12.428453604099936
 Root    280 :    12.430907095591776
 Root    281 :    12.438116089631126
 Root    282 :    12.442863435065188
 Root    283 :    12.468644096455700
 Root    284 :    12.491659283342978
 Root    285 :    12.501752042984053
 Root    286 :    12.515030051085239
 Root    287 :    12.524332843488738
 Root    288 :    12.583074741792643
 Root    289 :    12.587832588804696
 Root    290 :    12.613464686133671
 Root    291 :    12.624239965664648
 Root    292 :    12.631133713488687
 Root    293 :    12.647276884359069
 Root    294 :    12.682727328764319
 Root    295 :    12.682995803298422
 Root    296 :    12.696115274419800
 Root    297 :    12.710933678954312
 Root    298 :    12.734396988861688
 Root    299 :    12.740689291064443
 Root    300 :    12.749315029753209
 Root    301 :    12.763706082940120
 Root    302 :    12.793025257037293
 Root    303 :    12.801410118199378
 Root    304 :    12.808646381780170
 Root    305 :    12.835493597876662
 Root    306 :    12.851589217579452
 Root    307 :    12.857642887390345
 Root    308 :    12.903318300972490
 Root    309 :    12.908314935199572
 Root    310 :    12.909647049169925
 Root    311 :    12.914960364617116
 Root    312 :    12.931126653394317
 Root    313 :    12.948549057469442
 Root    314 :    12.964979439936267
 Root    315 :    12.993068084246474
 Root    316 :    13.004640393158613
 Root    317 :    13.014250790932294
 Root    318 :    13.017608256411300
 Root    319 :    13.035372476440340
 Root    320 :    13.056136191174296
 Root    321 :    13.056985448003919
 Root    322 :    13.074889501003438
 Root    323 :    13.097760189199379
 Root    324 :    13.109627137879858
 Root    325 :    13.126653291951889
 Root    326 :    13.139277136805458
 Root    327 :    13.148119664462627
 Root    328 :    13.154836853511730
 Root    329 :    13.164334679624135
 Root    330 :    13.217733294639322
 Root    331 :    13.238689712950972
 Root    332 :    13.264801567108655
 Root    333 :    13.298993793543966
 Root    334 :    13.299152749644087
 Root    335 :    13.313992813599752
 Root    336 :    13.319492141805581
 Root    337 :    13.349115832339720
 Root    338 :    13.361802729674336
 Root    339 :    13.377584083773923
 Root    340 :    13.404739186535044
 Root    341 :    13.411206815116877
 Root    342 :    13.413279394727695
 Root    343 :    13.422814142415994
 Root    344 :    13.442867062047675
 Root    345 :    13.445619783401190
 Root    346 :    13.458526989860484
 Root    347 :    13.466874397777811
 Root    348 :    13.480175206580835
 Root    349 :    13.492041804388652
 Root    350 :    13.503002227411859
 Root    351 :    13.512682430569471
 Root    352 :    13.525966187324750
 Root    353 :    13.526125009639333
 Root    354 :    13.546832875087116
 Root    355 :    13.556985459750868
 Root    356 :    13.570846852889471
 Root    357 :    13.579935160865324
 Root    358 :    13.606142181497560
 Root    359 :    13.622164515740929
 Root    360 :    13.625706252410243
 Root    361 :    13.641312499881487
 Root    362 :    13.649911981713620
 Root    363 :    13.656556088467921
 Root    364 :    13.664107285805242
 Root    365 :    13.700504771386820
 Root    366 :    13.703829263616617
 Root    367 :    13.718533680528557
 Root    368 :    13.722236711605719
 Root    369 :    13.731314651413213
 Root    370 :    13.749256600629856
 Root    371 :    13.767475598266408
 Root    372 :    13.795203244314921
 Root    373 :    13.808308659941000
 Root    374 :    13.833234711368524
 Root    375 :    13.845943460185586
 Root    376 :    13.861282775644128
 Root    377 :    13.878123891247579
 Root    378 :    13.904015099250016
 Root    379 :    13.930199664664130
 Root    380 :    13.968186171713477
 Root    381 :    13.994449441565322
 Root    382 :    13.999184446254395
 Root    383 :    14.007648801907107
 Root    384 :    14.011902323281856
 Root    385 :    14.027853085884093
 Root    386 :    14.038897328383609
 Root    387 :    14.072210342057165
 Root    388 :    14.088381496002082
 Root    389 :    14.111746551202604
 Root    390 :    14.123330652337598
 Root    391 :    14.181619440661828
 Root    392 :    14.201579065217290
 Root    393 :    14.233533179527024
 Root    394 :    14.239490813679105
 Root    395 :    14.278588799250262
 Root    396 :    14.311287080846139
 Root    397 :    14.314098388384448
 Root    398 :    14.338537904200708
 Root    399 :    14.590326968767572
 Root    400 :    15.022367347660674
 Iteration     2 Dimension   600 NMult   400 NNew    200
 CISAX will form    80 AO SS matrices at one time.
 NMat=    80 NSing=    80 JSym2X= 0.
 NMat=    80 NSing=    80 JSym2X= 0.
 NMat=    40 NSing=    40 JSym2X= 0.
 New state      1 was old state      2
 Root      1 not converged, maximum delta is    0.115101346461714
 New state      2 was old state      1
 Root      2 not converged, maximum delta is    0.102014182934475
 Root      3 not converged, maximum delta is    0.012395425021766
 Root      4 not converged, maximum delta is    0.013549625461200
 Root      5 not converged, maximum delta is    0.019221980370658
 Root      6 not converged, maximum delta is    0.013613097141027
 Root      7 not converged, maximum delta is    0.255477899639336
 Root      8 not converged, maximum delta is    0.024374271906104
 Root      9 not converged, maximum delta is    0.269399265885525
 Root     10 not converged, maximum delta is    0.033259392060943
 New state     11 was old state     12
 Root     11 not converged, maximum delta is    0.041565929184002
 New state     12 was old state     11
 Root     12 not converged, maximum delta is    0.024155446609359
 Root     13 not converged, maximum delta is    0.026627240376177
 Root     14 not converged, maximum delta is    0.009315892678371
 Root     15 not converged, maximum delta is    0.008634344870446
 Root     16 not converged, maximum delta is    0.012257191440421
 Root     17 not converged, maximum delta is    0.019127203037087
 New state     18 was old state     19
 Root     18 not converged, maximum delta is    0.082358278792308
 New state     19 was old state     18
 Root     19 not converged, maximum delta is    0.016110089610837
 New state     20 was old state     21
 Root     20 not converged, maximum delta is    0.111102886295903
 New state     21 was old state     20
 Root     21 not converged, maximum delta is    0.023972266967466
 New state     22 was old state     23
 Root     22 not converged, maximum delta is    0.134723410551839
 New state     23 was old state     22
 Root     23 not converged, maximum delta is    0.098846629123126
 Root     24 not converged, maximum delta is    0.016035304660066
 Root     25 not converged, maximum delta is    0.019600865343635
 New state     26 was old state     35
 Root     26 not converged, maximum delta is    0.298979409798188
 New state     27 was old state     26
 Root     27 not converged, maximum delta is    0.054269651462779
 New state     28 was old state     27
 Root     28 not converged, maximum delta is    0.059857577415479
 New state     29 was old state     28
 Root     29 not converged, maximum delta is    0.162862950391456
 New state     30 was old state     29
 Root     30 not converged, maximum delta is    0.064616380607054
 New state     31 was old state     30
 Root     31 not converged, maximum delta is    0.205613586223342
 New state     32 was old state     31
 Root     32 not converged, maximum delta is    0.055588015526368
 New state     33 was old state     34
 Root     33 not converged, maximum delta is    0.376480134067586
 New state     34 was old state     32
 Root     34 not converged, maximum delta is    0.229301163822286
 New state     35 was old state     33
 Root     35 not converged, maximum delta is    0.394112205119741
 New state     36 was old state     38
 Root     36 not converged, maximum delta is    0.094668519931955
 New state     37 was old state     36
 Root     37 not converged, maximum delta is    0.045043240314697
 New state     38 was old state     37
 Root     38 not converged, maximum delta is    0.031463606861406
 Root     39 not converged, maximum delta is    0.047820613952774
 Root     40 not converged, maximum delta is    0.050251514901054
 Root     41 not converged, maximum delta is    0.022555762265177
 Root     42 not converged, maximum delta is    0.040491237178482
 New state     43 was old state     53
 Root     43 not converged, maximum delta is    0.251084464683641
 New state     44 was old state     43
 Root     44 not converged, maximum delta is    0.142982654575908
 Root     45 not converged, maximum delta is    0.039230425187944
 New state     46 was old state     44
 Root     46 not converged, maximum delta is    0.141603759421249
 New state     47 was old state     46
 Root     47 not converged, maximum delta is    0.125211513599855
 New state     48 was old state     49
 Root     48 not converged, maximum delta is    0.317899601552637
 New state     49 was old state     47
 Root     49 not converged, maximum delta is    0.041519504765443
 New state     50 was old state     67
 Root     50 not converged, maximum delta is    0.392967890485965
 New state     51 was old state     48
 Root     51 not converged, maximum delta is    0.018074723891090
 New state     52 was old state     50
 Root     52 not converged, maximum delta is    0.029460598147630
 New state     53 was old state     51
 Root     53 not converged, maximum delta is    0.014593300559888
 New state     54 was old state     56
 Root     54 not converged, maximum delta is    0.420942537375059
 New state     55 was old state     52
 Root     55 not converged, maximum delta is    0.015244324777553
 New state     56 was old state     54
 Root     56 not converged, maximum delta is    0.383418367863817
 New state     57 was old state     55
 Root     57 not converged, maximum delta is    0.019452407629950
 Root     58 not converged, maximum delta is    0.306631125895997
 New state     59 was old state     57
 Root     59 not converged, maximum delta is    0.257706027679719
 New state     60 was old state     59
 Root     60 not converged, maximum delta is    0.130644274528977
 New state     61 was old state     60
 Root     61 not converged, maximum delta is    0.040453008188567
 Root     62 not converged, maximum delta is    0.122298668775156
 New state     63 was old state     61
 Root     63 not converged, maximum delta is    0.037522636038955
 New state     64 was old state     63
 Root     64 not converged, maximum delta is    0.127779411299787
 Root     65 not converged, maximum delta is    0.146072573239218
 New state     66 was old state     64
 Root     66 not converged, maximum delta is    0.314277356166188
 New state     67 was old state     72
 Root     67 not converged, maximum delta is    0.267435846675256
 New state     68 was old state     66
 Root     68 not converged, maximum delta is    0.010999808197309
 New state     69 was old state     68
 Root     69 not converged, maximum delta is    0.065130645775525
 New state     70 was old state     71
 Root     70 not converged, maximum delta is    0.177680625403910
 New state     71 was old state     69
 Root     71 not converged, maximum delta is    0.099002734492539
 New state     72 was old state     70
 Root     72 not converged, maximum delta is    0.312505090446925
 Root     73 not converged, maximum delta is    0.293868502180546
 New state     74 was old state     75
 Root     74 not converged, maximum delta is    0.256253810003923
 New state     75 was old state     74
 Root     75 not converged, maximum delta is    0.132585774253056
 New state     76 was old state     79
 Root     76 not converged, maximum delta is    0.306248829720419
 New state     77 was old state     76
 Root     77 not converged, maximum delta is    0.063892699128250
 New state     78 was old state     77
 Root     78 not converged, maximum delta is    0.222905647170183
 New state     79 was old state     78
 Root     79 not converged, maximum delta is    0.045132486576802
 Root     80 not converged, maximum delta is    0.051485049412709
 Root     81 not converged, maximum delta is    0.035508199128710
 Root     82 not converged, maximum delta is    0.043626381371911
 Root     83 not converged, maximum delta is    0.070667087180600
 Root     84 not converged, maximum delta is    0.089306096907744
 Root     85 not converged, maximum delta is    0.081939996522160
 Root     86 not converged, maximum delta is    0.090630954349912
 Root     87 not converged, maximum delta is    0.094490407622386
 Root     88 not converged, maximum delta is    0.148135242311267
 New state     89 was old state     94
[...]
      4   0.000000D+00  0.319735D-01  0.000000D+00 -0.511814D-01  0.000000D+00
      5   0.000000D+00  0.279391D-01  0.000000D+00 -0.718878D-01  0.000000D+00
      6   0.000000D+00  0.289116D-02  0.000000D+00 -0.383162D-02  0.000000D+00
      7   0.000000D+00 -0.144139D-02  0.000000D+00  0.134760D-01  0.000000D+00
      8   0.000000D+00  0.315155D-01  0.000000D+00  0.775416D-01  0.108784D-05
      9   0.000000D+00 -0.444804D+00  0.000000D+00 -0.725097D-01 -0.107528D-05
     10   0.000000D+00 -0.802086D-01  0.000000D+00  0.125576D+00  0.172134D-05
     11   0.000000D+00 -0.179102D+00  0.000000D+00  0.556257D+00  0.753865D-05
     12   0.000000D+00 -0.794197D-02  0.000000D+00  0.486326D-01  0.000000D+00
     13   0.000000D+00 -0.260167D-01  0.000000D+00 -0.487398D-02  0.000000D+00
     14   0.000000D+00 -0.284915D-01  0.000000D+00  0.143751D+00  0.197263D-05
     15   0.000000D+00  0.645039D-01  0.000000D+00 -0.240275D-01  0.000000D+00
     16   0.000000D+00  0.689195D-02  0.000000D+00  0.187483D-01  0.000000D+00
                36            37            38            39            40 
      1  -0.496542D+03 -0.496540D+03 -0.496539D+03 -0.496535D+03 -0.496532D+03
      2   0.536926D+00  0.000000D+00  0.000000D+00  0.000000D+00  0.674264D-01
      3  -0.870103D-02  0.000000D+00  0.000000D+00  0.000000D+00 -0.832336D-01
      4  -0.597854D-01  0.000000D+00  0.000000D+00  0.000000D+00  0.526048D-01
      5  -0.154825D+00  0.000000D+00  0.000000D+00  0.000000D+00 -0.410388D-01
      6  -0.392791D-02  0.000000D+00  0.000000D+00  0.000000D+00  0.198719D-01
      7   0.163630D-01  0.000000D+00  0.000000D+00  0.000000D+00 -0.271221D-01
      8   0.871449D-01  0.000000D+00  0.000000D+00  0.000000D+00 -0.711819D+00
      9   0.121890D+00  0.000000D+00  0.000000D+00  0.000000D+00 -0.227016D+00
     10   0.366074D+00  0.000000D+00  0.000000D+00  0.000000D+00 -0.349953D+00
     11   0.244869D+00  0.000000D+00  0.000000D+00  0.000000D+00 -0.495347D+00
     12   0.272043D+00  0.000000D+00  0.000000D+00  0.000000D+00  0.476702D-01
     13   0.209550D-01  0.000000D+00  0.000000D+00  0.000000D+00 -0.744982D-01
     14   0.484623D+00  0.000000D+00  0.000000D+00  0.000000D+00 -0.167460D+00
     15   0.100123D-01  0.000000D+00  0.000000D+00  0.000000D+00 -0.381834D+00
     16  -0.712365D-01  0.000000D+00  0.000000D+00  0.000000D+00  0.307744D+00
                41            42            43            44            45 
      1  -0.496531D+03 -0.496531D+03 -0.496531D+03 -0.496526D+03 -0.496525D+03
      2   0.178006D-05  0.293631D+00  0.000000D+00 -0.915065D-02  0.000000D+00
      3  -0.714712D-05 -0.126014D+01  0.000000D+00  0.294018D-01  0.000000D+00
      4   0.000000D+00 -0.164651D+00  0.000000D+00  0.164763D-01  0.000000D+00
      5   0.000000D+00 -0.786176D-01  0.000000D+00  0.499011D-02  0.000000D+00
      6   0.197245D-05  0.348036D+00  0.000000D+00 -0.841231D-02  0.000000D+00
      7   0.000000D+00  0.460820D-01  0.000000D+00  0.757495D-02  0.000000D+00
      8   0.000000D+00 -0.429856D-01  0.000000D+00  0.250874D+00  0.000000D+00
      9   0.133010D-05  0.221866D+00  0.000000D+00 -0.370693D-01  0.000000D+00
     10  -0.949604D-05 -0.170661D+01 -0.111628D-05 -0.154696D-01  0.000000D+00
     11   0.411198D-05  0.675902D+00  0.000000D+00 -0.372064D-01  0.000000D+00
     12  -0.122063D-05 -0.220372D+00  0.000000D+00 -0.288355D-01  0.000000D+00
     13   0.000000D+00  0.101123D-01  0.000000D+00 -0.159063D-01  0.000000D+00
     14  -0.100505D-04 -0.180023D+01 -0.118459D-05  0.490736D-01  0.000000D+00
     15  -0.112419D-05 -0.213233D+00  0.000000D+00  0.599649D-01  0.000000D+00
     16   0.000000D+00  0.628771D-01  0.000000D+00  0.130515D+00  0.000000D+00
                46            47            48            49            50 
      1  -0.496525D+03 -0.496523D+03 -0.496522D+03 -0.496521D+03 -0.496520D+03
      2  -0.212039D-01  0.182252D+00 -0.759189D+00  0.000000D+00  0.320878D+00
      3   0.126037D-01  0.542503D-01  0.117327D+00  0.000000D+00  0.924579D+00
      4  -0.121726D+00 -0.189589D-01  0.138204D+00  0.000000D+00 -0.140367D-01
      5   0.398447D-02 -0.623451D-01  0.222598D+00  0.000000D+00 -0.898951D-01
      6  -0.217221D-02  0.840985D-02 -0.364300D-01  0.000000D+00 -0.257009D+00
      7   0.227815D-01 -0.101222D-03 -0.393947D-01  0.000000D+00  0.762421D-02
      8   0.244714D-01  0.190571D+00 -0.985684D-01  0.000000D+00 -0.287923D+00
      9   0.128007D+00 -0.697002D+00  0.385330D-02  0.000000D+00  0.212899D+00
     10   0.147202D-01  0.818781D+00 -0.189677D+00  0.000000D+00  0.964767D-01
     11  -0.401970D-01 -0.704264D+00 -0.233531D+01  0.172850D-05  0.232290D+01
     12  -0.512084D-02 -0.628810D-01  0.302249D+00  0.000000D+00 -0.382187D+00
     13   0.410111D-02 -0.134812D+00 -0.166382D-01  0.000000D+00  0.307013D-02
     14   0.137365D-01  0.510058D+00 -0.401767D+00  0.000000D+00  0.133417D+00
     15  -0.972559D-01 -0.190400D+00  0.334939D+00  0.000000D+00 -0.148337D+00
     16   0.845000D-02 -0.537144D-01  0.114951D+00  0.000000D+00  0.125613D+00
                51            52            53            54            55 
      1  -0.496518D+03 -0.496513D+03 -0.496508D+03 -0.496506D+03 -0.496506D+03
      2   0.000000D+00 -0.581715D-04  0.000000D+00 -0.185516D+00  0.000000D+00
      3   0.000000D+00 -0.459184D-02  0.000000D+00  0.330930D+00  0.000000D+00
      4   0.000000D+00  0.912073D-02  0.000000D+00 -0.124485D+00  0.000000D+00
      5   0.000000D+00  0.640955D-03  0.000000D+00  0.521766D-01  0.000000D+00
      6   0.000000D+00  0.119421D-02  0.000000D+00 -0.137393D+00  0.000000D+00
      7   0.000000D+00  0.873837D-03  0.000000D+00  0.586998D-01  0.000000D+00
      8   0.000000D+00 -0.169041D+00  0.000000D+00  0.149925D+00  0.000000D+00
      9   0.000000D+00 -0.937128D-01  0.000000D+00 -0.650917D+00  0.000000D+00
     10   0.000000D+00  0.333537D-01  0.000000D+00 -0.110277D+01  0.000000D+00
     11   0.000000D+00 -0.325749D-02  0.000000D+00  0.542981D+00  0.000000D+00
     12   0.000000D+00  0.293807D-02  0.000000D+00  0.223134D+00  0.000000D+00
     13   0.000000D+00 -0.530662D-02  0.000000D+00  0.950112D-01  0.000000D+00
     14   0.000000D+00  0.727125D-02  0.000000D+00 -0.110777D+01  0.000000D+00
     15   0.000000D+00  0.493441D-02  0.000000D+00  0.392523D+00  0.000000D+00
     16   0.000000D+00 -0.798170D-02  0.000000D+00 -0.398398D-01  0.000000D+00
                56            57            58            59            60 
      1  -0.496505D+03 -0.496503D+03 -0.496501D+03 -0.496500D+03 -0.496499D+03
      2   0.578121D-01  0.000000D+00  0.396243D+00  0.171272D+00  0.115459D+00
      3  -0.760477D-01  0.000000D+00  0.266136D+00  0.106543D+00  0.547068D-01
      4   0.498304D-01  0.000000D+00 -0.140948D-01 -0.215132D-01  0.142518D-01
      5  -0.157767D-01  0.000000D+00 -0.126823D+00 -0.576443D-01 -0.479029D-01
      6   0.358576D-01  0.000000D+00 -0.930665D-01 -0.381598D-01 -0.218348D-01
      7  -0.265025D-01  0.000000D+00  0.693651D-02  0.104770D-01  0.102136D-02
      8   0.262107D+00  0.000000D+00 -0.983760D-01  0.297880D+00 -0.161985D+00
      9   0.497298D+00  0.000000D+00 -0.188731D+00  0.111355D+00  0.213881D+00
     10   0.284212D+00 -0.133781D-05 -0.605450D+00 -0.322193D+00 -0.139525D+00
     11  -0.147241D+00  0.000000D+00 -0.525707D+00 -0.406435D+00 -0.604815D+00
     12  -0.100989D+00  0.000000D+00  0.107341D-01  0.908214D-02  0.750606D-01
     13   0.359488D-01  0.000000D+00 -0.822819D-01 -0.282897D-01 -0.106573D+00
     14   0.346537D+00  0.000000D+00 -0.822529D-01 -0.437920D-01 -0.763648D-01
     15  -0.180585D+00  0.000000D+00  0.121344D+00 -0.354641D-01 -0.141827D+00
     16   0.126491D+00  0.000000D+00 -0.190146D-01  0.105083D+00 -0.368779D-01
                61            62            63            64            65 
      1  -0.496498D+03 -0.496497D+03 -0.496496D+03 -0.496495D+03 -0.496492D+03
      2   0.000000D+00 -0.285004D+00  0.000000D+00  0.000000D+00  0.000000D+00
      3   0.000000D+00 -0.839337D-01  0.000000D+00  0.000000D+00  0.000000D+00
      4   0.000000D+00 -0.136039D+00  0.000000D+00  0.000000D+00  0.000000D+00
      5   0.000000D+00  0.117185D+00  0.000000D+00  0.000000D+00  0.000000D+00
      6   0.000000D+00  0.331524D-01  0.000000D+00  0.000000D+00  0.000000D+00
      7   0.000000D+00  0.586925D-01  0.000000D+00  0.000000D+00  0.000000D+00
      8   0.000000D+00 -0.292208D+00  0.000000D+00  0.000000D+00  0.000000D+00
      9   0.000000D+00 -0.681755D+00  0.000000D+00  0.000000D+00  0.000000D+00
     10   0.000000D+00  0.349377D+00  0.000000D+00  0.000000D+00  0.000000D+00
     11   0.000000D+00  0.136369D+01  0.000000D+00  0.000000D+00  0.000000D+00
     12   0.000000D+00 -0.131128D+00  0.000000D+00  0.000000D+00  0.000000D+00
     13   0.000000D+00  0.168582D+00  0.000000D+00  0.000000D+00  0.000000D+00
     14   0.000000D+00  0.926300D-01  0.000000D+00  0.000000D+00  0.000000D+00
     15   0.000000D+00  0.289419D+00  0.000000D+00  0.000000D+00  0.000000D+00
     16   0.000000D+00 -0.415669D-01  0.000000D+00  0.000000D+00  0.000000D+00
                66            67            68            69            70 
      1  -0.496492D+03 -0.496492D+03 -0.496490D+03 -0.496485D+03 -0.496484D+03
      2  -0.105805D-01 -0.376093D-01 -0.610612D-02  0.000000D+00  0.000000D+00
      3   0.290224D+00 -0.220273D+00  0.780408D-03  0.000000D+00  0.000000D+00
      4   0.623843D-01  0.247169D-01 -0.144436D-01  0.000000D+00  0.000000D+00
      5   0.129908D-01  0.286394D-03  0.179603D-02  0.000000D+00  0.000000D+00
      6  -0.879970D-01  0.630720D-01 -0.233797D-03  0.000000D+00  0.000000D+00
      7  -0.258609D-01 -0.135230D-01  0.346601D-02  0.000000D+00  0.000000D+00
      8  -0.109584D+00 -0.149282D+00 -0.107957D+01  0.000000D+00  0.000000D+00
      9   0.159601D-01  0.809770D-01 -0.101382D+00  0.000000D+00  0.000000D+00
     10   0.229711D+00 -0.314991D+00  0.189117D+00  0.000000D+00  0.000000D+00
     11  -0.239546D+00  0.343471D+00  0.896514D-02  0.000000D+00  0.000000D+00
     12   0.176881D+00 -0.127730D+00  0.317395D-01  0.000000D+00  0.000000D+00
     13  -0.134908D-01 -0.166380D-01 -0.408154D-01  0.000000D+00  0.000000D+00
     14   0.646330D+00 -0.609887D+00 -0.230895D-01  0.000000D+00  0.000000D+00
     15  -0.197645D-01 -0.254694D+00  0.178911D-01  0.000000D+00  0.000000D+00
     16   0.643252D-02  0.128153D+00 -0.159025D+00  0.000000D+00  0.000000D+00
                71            72            73            74            75 
      1  -0.496484D+03 -0.496483D+03 -0.496483D+03 -0.496482D+03 -0.496481D+03
      2   0.000000D+00  0.995656D-01  0.000000D+00  0.000000D+00  0.326811D-01
      3   0.000000D+00  0.688218D-01  0.000000D+00  0.000000D+00  0.430130D-01
      4   0.000000D+00 -0.413781D-01  0.000000D+00  0.000000D+00 -0.345288D-01
      5   0.000000D+00 -0.374654D-01  0.000000D+00  0.000000D+00 -0.157859D-01
      6   0.000000D+00 -0.161232D-01  0.000000D+00  0.000000D+00 -0.101706D-01
      7   0.000000D+00  0.799895D-02  0.000000D+00  0.000000D+00  0.819365D-02
      8   0.000000D+00  0.705019D-01  0.000000D+00  0.000000D+00 -0.107138D+00
      9   0.000000D+00 -0.374729D-01  0.000000D+00  0.000000D+00 -0.310992D+00
     10   0.000000D+00 -0.385492D-01  0.000000D+00  0.000000D+00 -0.206628D-01
     11   0.000000D+00 -0.188392D-01  0.000000D+00  0.000000D+00  0.402330D-01
     12   0.000000D+00  0.640243D-01  0.000000D+00  0.000000D+00  0.662585D-01
     13   0.000000D+00  0.168267D-01  0.000000D+00  0.000000D+00 -0.615545D-01
     14   0.000000D+00  0.353970D-01  0.000000D+00  0.000000D+00 -0.306452D-01
     15   0.000000D+00 -0.704215D-01  0.000000D+00  0.000000D+00  0.155222D-01
     16   0.000000D+00 -0.224833D-01  0.000000D+00  0.000000D+00 -0.738285D-01
                76            77            78            79            80 
      1  -0.496480D+03 -0.496479D+03 -0.496479D+03 -0.496478D+03 -0.496477D+03
      2   0.000000D+00 -0.169541D-01  0.000000D+00  0.000000D+00  0.000000D+00
      3   0.000000D+00 -0.463302D-01  0.000000D+00  0.000000D+00  0.000000D+00
      4   0.000000D+00 -0.709622D-03  0.000000D+00  0.000000D+00  0.000000D+00
      5   0.000000D+00  0.108632D-01  0.000000D+00  0.000000D+00  0.000000D+00
      6   0.000000D+00  0.143551D-01  0.000000D+00  0.000000D+00  0.000000D+00
      7   0.000000D+00  0.120826D-02  0.000000D+00  0.000000D+00  0.000000D+00
      8   0.000000D+00 -0.217534D+00  0.403307D-05  0.000000D+00  0.000000D+00
      9   0.000000D+00  0.359792D+00 -0.707070D-05  0.000000D+00  0.000000D+00
     10   0.000000D+00  0.111034D+00 -0.213079D-05  0.000000D+00  0.000000D+00
     11   0.000000D+00 -0.623343D-01  0.000000D+00  0.000000D+00  0.000000D+00
     12   0.000000D+00 -0.313664D-01  0.000000D+00  0.000000D+00  0.000000D+00
     13   0.000000D+00  0.585408D-01 -0.116638D-05  0.000000D+00  0.000000D+00
     14   0.000000D+00  0.191371D-01  0.000000D+00  0.000000D+00  0.000000D+00
     15   0.000000D+00 -0.410664D-01  0.000000D+00  0.000000D+00  0.000000D+00
     16   0.000000D+00 -0.605634D-01  0.102455D-05  0.000000D+00  0.000000D+00
                81            82            83            84            85 
      1  -0.496476D+03 -0.496475D+03 -0.496474D+03 -0.496473D+03 -0.496472D+03
      2  -0.711832D-01  0.000000D+00  0.000000D+00 -0.223250D+00  0.109451D-01
      3  -0.418673D-01  0.000000D+00  0.000000D+00 -0.647826D-01 -0.479240D-03
      4  -0.175396D+00  0.000000D+00  0.000000D+00  0.450560D-01  0.106701D-01
      5   0.316943D-01  0.000000D+00  0.000000D+00  0.688889D-01 -0.351620D-02
      6   0.278529D-01  0.000000D+00  0.000000D+00  0.205384D-01 -0.194244D-03
      7   0.739660D-01  0.000000D+00  0.000000D+00 -0.154159D-01 -0.688516D-03
      8  -0.327735D+00  0.000000D+00  0.000000D+00  0.199178D+00 -0.451901D+00
      9  -0.816228D+00  0.000000D+00 -0.152412D-05 -0.400698D+00 -0.163858D+00
     10   0.321512D+00  0.000000D+00  0.000000D+00  0.295831D-01  0.660315D-01
     11   0.179408D+00  0.000000D+00 -0.126614D-05 -0.430766D+00  0.533314D-01
     12  -0.856255D-01  0.000000D+00  0.000000D+00 -0.272841D+00  0.367762D-01
     13   0.173912D+00  0.000000D+00  0.000000D+00 -0.826337D-02 -0.266350D-01
     14   0.242995D+00  0.000000D+00  0.000000D+00 -0.116066D+00 -0.751717D-02
     15   0.537468D+00  0.000000D+00  0.000000D+00 -0.468476D-01  0.492949D-01
     16   0.530470D-01  0.000000D+00  0.000000D+00 -0.933679D-01 -0.772123D-01
                86            87            88            89            90 
      1  -0.496472D+03 -0.496472D+03 -0.496471D+03 -0.496470D+03 -0.496469D+03
      2   0.470692D-01  0.000000D+00  0.000000D+00 -0.113035D+00  0.000000D+00
      3   0.400154D-03  0.000000D+00  0.000000D+00  0.455884D-01  0.000000D+00
      4   0.995747D-01  0.000000D+00  0.000000D+00  0.155283D-01  0.000000D+00
      5  -0.154026D-01  0.000000D+00  0.000000D+00  0.274051D-01  0.000000D+00
      6  -0.796329D-03  0.000000D+00  0.000000D+00 -0.195888D-01  0.000000D+00
      7  -0.315103D-01  0.000000D+00  0.000000D+00 -0.398766D-02  0.000000D+00
      8   0.890676D-01  0.000000D+00  0.000000D+00 -0.669175D-02  0.000000D+00
      9  -0.527151D+00  0.000000D+00  0.000000D+00 -0.540312D-01  0.000000D+00
     10  -0.746708D-01  0.000000D+00  0.000000D+00 -0.132821D+00  0.000000D+00
     11   0.755187D-01 -0.158136D-05  0.000000D+00 -0.440601D-01  0.000000D+00
     12   0.555377D-01  0.000000D+00  0.000000D+00 -0.210896D-01  0.000000D+00
     13   0.253912D-01  0.000000D+00  0.000000D+00 -0.352196D-01  0.000000D+00
     14  -0.190866D-01  0.000000D+00  0.000000D+00  0.441549D+00  0.000000D+00
     15   0.462484D-01  0.000000D+00  0.000000D+00  0.341634D-01  0.000000D+00
     16  -0.487298D-01  0.000000D+00  0.000000D+00 -0.839485D-01  0.000000D+00
                91            92            93            94            95 
      1  -0.496468D+03 -0.496467D+03 -0.496467D+03 -0.496466D+03 -0.496464D+03
      2  -0.187760D+00  0.194232D+00  0.342081D-05 -0.139887D-02  0.197165D-01
      3   0.175246D+00 -0.162567D+00 -0.275287D-05 -0.441210D-02 -0.209602D+00
      4   0.313678D-01  0.313213D-01  0.000000D+00 -0.162675D-01  0.181331D+00
      5   0.663908D-01 -0.661450D-01 -0.115001D-05 -0.556535D-03  0.582509D-02
      6  -0.647094D-01  0.602155D-01  0.102014D-05  0.239533D-02  0.728117D-01
      7  -0.277081D-02 -0.173332D-01  0.000000D+00 -0.207834D-02 -0.637156D-01
      8   0.118430D+00  0.103279D+00  0.336258D-05 -0.554253D+00 -0.469373D+00
      9  -0.229815D+00  0.196272D+00  0.320532D-05  0.541879D+00  0.104471D+01
     10  -0.543464D-01  0.278836D-01  0.000000D+00  0.159899D+00  0.786147D+00
     11   0.775503D+00 -0.691161D+00 -0.114381D-04 -0.189539D-01  0.537717D+00
     12  -0.999892D-01  0.124389D+00  0.231568D-05  0.170317D-01  0.133510D+00
     13  -0.107687D-01 -0.131250D-01  0.000000D+00  0.167503D-01 -0.234993D-01
     14  -0.336842D+00  0.333899D+00  0.578607D-05 -0.401761D-02  0.373240D+00
     15  -0.444664D-01 -0.334145D-01 -0.105899D-05 -0.870254D-01 -0.345640D+00
     16   0.394692D-01 -0.293170D-01  0.000000D+00 -0.555899D-01  0.243935D+00
                96            97            98            99           100 
      1  -0.496463D+03 -0.496462D+03 -0.496462D+03 -0.496461D+03 -0.496460D+03
      2   0.299795D-01  0.191784D+00  0.000000D+00  0.000000D+00  0.000000D+00
      3  -0.187162D-01 -0.811274D-01  0.000000D+00  0.000000D+00  0.000000D+00
      4   0.607365D-01  0.280001D-01  0.000000D+00  0.000000D+00  0.000000D+00
      5  -0.782405D-02 -0.585406D-01  0.000000D+00  0.000000D+00  0.000000D+00
      6   0.633407D-02  0.113256D-01  0.000000D+00  0.000000D+00  0.000000D+00
      7  -0.143814D-01 -0.607938D-03  0.000000D+00  0.000000D+00  0.000000D+00
      8   0.126172D+00  0.323990D+00 -0.138042D-05  0.000000D+00  0.000000D+00
      9  -0.258111D+00  0.255736D+00  0.000000D+00  0.000000D+00  0.000000D+00
     10  -0.295141D-02  0.225732D+00 -0.100081D-05  0.000000D+00  0.000000D+00
     11   0.725679D-01 -0.600141D+00  0.114351D-05  0.119666D-05  0.000000D+00
     12   0.688278D-02  0.392451D-01  0.000000D+00  0.000000D+00  0.000000D+00
     13  -0.271458D-01 -0.274060D-01  0.000000D+00  0.000000D+00  0.000000D+00
     14   0.326288D-01  0.101778D+00  0.000000D+00  0.000000D+00  0.000000D+00
     15   0.135838D+00  0.170762D+00  0.000000D+00  0.000000D+00  0.000000D+00
     16   0.993109D-01 -0.156022D+00  0.000000D+00  0.000000D+00  0.000000D+00
 1\1\GINC-BLG9118\SP\UB3LYP TD-FC\6-31G(d,p)\C8H12N2O1\RZK\30-Jun-2019\
 0\\#p td=(nstates=100) ub3lyp/6-31g(d,p) scrf=(iefpcm,solvent=acetonit
 rile) guess=(core,mix) empiricaldispersion=gd3\\Title Card Required\\0
 ,1\C,0,0.568326,0.210816,-0.404695\H,0,4.90274,-0.957863,-0.402\O,0,1.
 259404,-0.785877,-0.613115\N,0,3.818887,-0.333442,1.14533\H,0,3.500957
 ,0.593234,1.422347\N,0,4.218046,-0.221155,-0.245149\H,0,3.413694,-0.45
 009,-0.831653\H,0,2.989393,-0.926021,1.209005\C,0,1.188036,1.592164,-0
 .386071\H,0,0.715121,2.235994,-1.134627\H,0,1.036166,2.065539,0.589738
 \H,0,2.255536,1.520265,-0.592445\C,0,-0.898822,0.07122,-0.161174\C,0,-
 1.461944,-1.216508,-0.176239\C,0,-1.727815,1.178365,0.083471\C,0,-2.82
 3394,-1.394418,0.047758\H,0,-0.812423,-2.064189,-0.3654\C,0,-3.092445,
 0.998613,0.308223\H,0,-1.316817,2.181601,0.100673\C,0,-3.641595,-0.285
 698,0.290616\H,0,-3.249722,-2.392727,0.034242\H,0,-3.726118,1.859493,0
 .496723\H,0,-4.704364,-0.423359,0.465721\\Version=ES64L-G16RevA.03\Sta
 te=1-A\HF=-496.8129134\S2=0.\S2-1=0.\S2A=0.\RMSD=2.627e-09\PG=C01 [X(C
 8H12N2O1)]\\@


 The number of Unix installations has grown to 10,
  with more expected.
                  -- The Unix Programmer's Manual,
                     2nd Edition, June, 1972.
 Job cpu time:       0 days  2 hours 19 minutes  5.6 seconds.
 Elapsed time:       0 days  0 hours  3 minutes 30.9 seconds.
 File lengths (MBytes):  RWF=   2893 Int=      0 D2E=      0 Chk=    191 Scr=      2
 Normal termination of Gaussian 16 at Sun Jun 30 16:47:37 2019.
