 Entering Gaussian System, Link 0=g16
 Initial command:
 /project/6004141/group/g16/g16/l1.exe "/scratch/rzk/Gau-276720.inp" -scrdir="/scratch/rzk/"
 Entering Link 1 = /project/6004141/group/g16/g16/l1.exe PID=    276721.
  
 Copyright (c) 1988,1990,1992,1993,1995,1998,2003,2009,2016,
            Gaussian, Inc.  All Rights Reserved.
  
 This is part of the Gaussian(R) 16 program.  It is based on
 the Gaussian(R) 09 system (copyright 2009, Gaussian, Inc.),
 the Gaussian(R) 03 system (copyright 2003, Gaussian, Inc.),
 the Gaussian(R) 98 system (copyright 1998, Gaussian, Inc.),
 the Gaussian(R) 94 system (copyright 1995, Gaussian, Inc.),
 the Gaussian 92(TM) system (copyright 1992, Gaussian, Inc.),
 the Gaussian 90(TM) system (copyright 1990, Gaussian, Inc.),
 the Gaussian 88(TM) system (copyright 1988, Gaussian, Inc.),
 the Gaussian 86(TM) system (copyright 1986, Carnegie Mellon
 University), and the Gaussian 82(TM) system (copyright 1983,
 Carnegie Mellon University). Gaussian is a federally registered
 trademark of Gaussian, Inc.
  
 This software contains proprietary and confidential information,
 including trade secrets, belonging to Gaussian, Inc.
  
 This software is provided under written license and may be
 used, copied, transmitted, or stored only in accord with that
 written license.
  
 The following legend is applicable only to US Government
 contracts under FAR:
  
                    RESTRICTED RIGHTS LEGEND
  
 Use, reproduction and disclosure by the US Government is
 subject to restrictions as set forth in subparagraphs (a)
 and (c) of the Commercial Computer Software - Restricted
 Rights clause in FAR 52.227-19.
  
 Gaussian, Inc.
 340 Quinnipiac St., Bldg. 40, Wallingford CT 06492
  
  
 ---------------------------------------------------------------
 Warning -- This program may not be used in any manner that
 competes with the business of Gaussian, Inc. or will provide
 assistance to any competitor of Gaussian, Inc.  The licensee
 of this program is prohibited from giving any competitor of
 Gaussian, Inc. access to this program.  By using this program,
 the user acknowledges that Gaussian, Inc. is engaged in the
 business of creating and licensing software in the field of
 computational chemistry and represents and warrants to the
 licensee that it is not a competitor of Gaussian, Inc. and that
 it will not use this program in any manner prohibited above.
 ---------------------------------------------------------------
  

 Cite this work as:
 Gaussian 16, Revision A.03,
 M. J. Frisch, G. W. Trucks, H. B. Schlegel, G. E. Scuseria, 
 M. A. Robb, J. R. Cheeseman, G. Scalmani, V. Barone, 
 G. A. Petersson, H. Nakatsuji, X. Li, M. Caricato, A. V. Marenich, 
 J. Bloino, B. G. Janesko, R. Gomperts, B. Mennucci, H. P. Hratchian, 
 J. V. Ortiz, A. F. Izmaylov, J. L. Sonnenberg, D. Williams-Young, 
 F. Ding, F. Lipparini, F. Egidi, J. Goings, B. Peng, A. Petrone, 
 T. Henderson, D. Ranasinghe, V. G. Zakrzewski, J. Gao, N. Rega, 
 G. Zheng, W. Liang, M. Hada, M. Ehara, K. Toyota, R. Fukuda, 
 J. Hasegawa, M. Ishida, T. Nakajima, Y. Honda, O. Kitao, H. Nakai, 
 T. Vreven, K. Throssell, J. A. Montgomery, Jr., J. E. Peralta, 
 F. Ogliaro, M. J. Bearpark, J. J. Heyd, E. N. Brothers, K. N. Kudin, 
 V. N. Staroverov, T. A. Keith, R. Kobayashi, J. Normand, 
 K. Raghavachari, A. P. Rendell, J. C. Burant, S. S. Iyengar, 
 J. Tomasi, M. Cossi, J. M. Millam, M. Klene, C. Adamo, R. Cammi, 
 J. W. Ochterski, R. L. Martin, K. Morokuma, O. Farkas, 
 J. B. Foresman, and D. J. Fox, Gaussian, Inc., Wallingford CT, 2016.
 
 ******************************************
 Gaussian 16:  ES64L-G16RevA.03 25-Dec-2016
                10-Jun-2019 
 ******************************************
 ----------------------------------------------------------------------
 #p opt ub3lyp/6-31g(d,p) scrf=(iefpcm,solvent=acetonitrile) empiricald
 ispersion=gd3
 ----------------------------------------------------------------------
 1/18=20,19=15,26=3,38=1/1,3;
 2/9=110,12=2,17=6,18=5,40=1/2;
 3/5=1,6=6,7=101,11=2,25=1,30=1,70=2201,71=1,72=2,74=-5,116=2,124=31/1,2,3;
 4//1;
 5/5=2,38=5,53=2/2;
 6/7=2,8=2,9=2,10=2,28=1/1;
 7//1,2,3,16;
 1/18=20,19=15,26=3/3(2);
 2/9=110/2;
 99//99;
 2/9=110/2;
 3/5=1,6=6,7=101,11=2,25=1,30=1,70=2205,71=1,72=2,74=-5,116=2,124=31/1,2,3;
 4/5=5,16=3,69=1/1;
 5/5=2,38=5,53=2/2;
 7//1,2,3,16;
 1/18=20,19=15,26=3/3(-5);
 2/9=110/2;
 6/7=2,8=2,9=2,10=2,19=2,28=1/1;
 99/9=1/99;
 Leave Link    1 at Mon Jun 10 11:11:26 2019, MaxMem=           0 cpu:               0.0 elap:               0.2
 (Enter /project/6004141/group/g16/g16/l101.exe)
 -------------------
 Title Card Required
 -------------------
 Symbolic Z-matrix:
 Charge =  0 Multiplicity = 2
 N                    -1.04758  -1.92697   2.65285 
 H                    -0.71426  -2.86978   2.65285 
 H                    -0.71424  -1.45557   1.83636 
 N                    -0.5809   -1.26701   3.79595 
 H                    -0.91273  -0.32367   3.79503 
 
 Add atom      1 valence  3 ND=      2 dihedral       2      1      3      4
 ITRead=  0  0  0  0  0
 MicOpt= -1 -1 -1 -1 -1
 NAtoms=      5 NQM=        5 NQMF=       0 NMMI=      0 NMMIF=      0
                NMic=       0 NMicF=      0.
                    Isotopes and Nuclear Properties:
 (Nuclear quadrupole moments (NQMom) in fm**2, nuclear magnetic moments (NMagM)
  in nuclear magnetons)

  Atom         1           2           3           4           5
 IAtWgt=          14           1           1          14           1
 AtmWgt=  14.0030740   1.0078250   1.0078250  14.0030740   1.0078250
 NucSpn=           2           1           1           2           1
 AtZEff=  -0.0000000  -0.0000000  -0.0000000  -0.0000000  -0.0000000
 NQMom=    2.0440000   0.0000000   0.0000000   2.0440000   0.0000000
 NMagM=    0.4037610   2.7928460   2.7928460   0.4037610   2.7928460
 AtZNuc=   7.0000000   1.0000000   1.0000000   7.0000000   1.0000000
 Leave Link  101 at Mon Jun 10 11:11:27 2019, MaxMem=   104857600 cpu:               0.2 elap:               0.2
 (Enter /project/6004141/group/g16/g16/l103.exe)

 GradGradGradGradGradGradGradGradGradGradGradGradGradGradGradGradGradGrad
 Berny optimization.
 Initialization pass.
                           ----------------------------
                           !    Initial Parameters    !
                           ! (Angstroms and Degrees)  !
 --------------------------                            --------------------------
 ! Name  Definition              Value          Derivative Info.                !
 --------------------------------------------------------------------------------
 ! R1    R(1,2)                  1.0            estimate D2E/DX2                !
 ! R2    R(1,3)                  1.0            estimate D2E/DX2                !
 ! R3    R(1,4)                  1.4            estimate D2E/DX2                !
 ! R4    R(4,5)                  1.0            estimate D2E/DX2                !
 ! A1    A(2,1,3)              109.4712         estimate D2E/DX2                !
 ! A2    A(2,1,4)              109.4712         estimate D2E/DX2                !
 ! A3    A(3,1,4)              109.4713         estimate D2E/DX2                !
 ! A4    A(1,4,5)              109.4712         estimate D2E/DX2                !
 ! D1    D(2,1,3,4)           -120.0            estimate D2E/DX2                !
 ! D2    D(2,1,4,5)            179.8889         estimate D2E/DX2                !
 ! D3    D(3,1,4,5)             59.8889         estimate D2E/DX2                !
 --------------------------------------------------------------------------------
 Trust Radius=3.00D-01 FncErr=1.00D-07 GrdErr=1.00D-06 EigMax=2.50D+02 EigMin=1.00D-04
 Number of steps in this run=     21 maximum allowed number of steps=    100.
 GradGradGradGradGradGradGradGradGradGradGradGradGradGradGradGradGradGrad

 Leave Link  103 at Mon Jun 10 11:11:27 2019, MaxMem=   104857600 cpu:               0.0 elap:               0.0
 (Enter /project/6004141/group/g16/g16/l202.exe)
                          Input orientation:                          
 ---------------------------------------------------------------------
 Center     Atomic      Atomic             Coordinates (Angstroms)
 Number     Number       Type             X           Y           Z
 ---------------------------------------------------------------------
      1          7           0       -1.047578   -1.926971    2.652852
      2          1           0       -0.714256   -2.869784    2.652852
      3          1           0       -0.714239   -1.455570    1.836356
      4          7           0       -0.580903   -1.267010    3.795948
      5          1           0       -0.912731   -0.323671    3.795034
 ---------------------------------------------------------------------
                    Distance matrix (angstroms):
                    1          2          3          4          5
     1  N    0.000000
     2  H    1.000000   0.000000
     3  H    1.000000   1.632993   0.000000
     4  N    1.400000   1.973153   1.973153   0.000000
     5  H    1.973153   2.797617   2.270907   1.000000   0.000000
 Stoichiometry    H3N2(2)
 Framework group  C1[X(H3N2)]
 Deg. of freedom     9
 Full point group                 C1      NOp   1
 Largest Abelian subgroup         C1      NOp   1
 Largest concise Abelian subgroup C1      NOp   1
                         Standard orientation:                         
 ---------------------------------------------------------------------
 Center     Atomic      Atomic             Coordinates (Angstroms)
 Number     Number       Type             X           Y           Z
 ---------------------------------------------------------------------
      1          7           0        0.629106    0.044756   -0.117920
      2          1           0        1.119049   -0.783897    0.152803
      3          1           0        0.935512    0.812175    0.445270
      4          7           0       -0.746062   -0.146357    0.062048
      5          1           0       -1.235870    0.682931   -0.206966
 ---------------------------------------------------------------------
 Rotational constants (GHZ):         204.2639809          28.7716903          26.4453687
 Leave Link  202 at Mon Jun 10 11:11:27 2019, MaxMem=   104857600 cpu:               0.0 elap:               0.0
 (Enter /project/6004141/group/g16/g16/l301.exe)
 Standard basis: 6-31G(d,p) (6D, 7F)
 Ernie: Thresh=  0.10000D-02 Tol=  0.10000D-05 Strict=F.
 There are    45 symmetry adapted cartesian basis functions of A   symmetry.
 There are    45 symmetry adapted basis functions of A   symmetry.
    45 basis functions,    77 primitive gaussians,    45 cartesian basis functions
     9 alpha electrons        8 beta electrons
       nuclear repulsion energy        36.0121157281 Hartrees.
 IExCor=  402 DFT=T Ex+Corr=B3LYP ExCW=0 ScaHFX=  0.200000
 ScaDFX=  0.800000  0.720000  1.000000  0.810000 ScalE2=  1.000000  1.000000
 IRadAn=      5 IRanWt=     -1 IRanGd=            0 ICorTp=0 IEmpDi=131
 NAtoms=    5 NActive=    5 NUniq=    5 SFac= 1.00D+00 NAtFMM=   60 NAOKFM=F Big=F
 Integral buffers will be    131072 words long.
 Raffenetti 2 integral format.
 Two-electron integral symmetry is turned on.
 R6Disp:  Grimme-D3 Dispersion energy=       -0.0004252508 Hartrees.
 Nuclear repulsion after empirical dispersion term =       36.0116904772 Hartrees.
 ------------------------------------------------------------------------------
 Polarizable Continuum Model (PCM)
 =================================
 Model                : PCM.
 Atomic radii         : UFF (Universal Force Field).
 Polarization charges : Total charges.
 Charge compensation  : None.
 Solution method      : On-the-fly selection.
 Cavity type          : Scaled VdW (van der Waals Surface) (Alpha=1.100).
 Cavity algorithm     : GePol (No added spheres)
                        Default sphere list used, NSphG=    5.
                        Lebedev-Laikov grids with approx.  5.0 points / Ang**2.
                        Smoothing algorithm: York/Karplus (Gamma=1.0000).
                        Polarization charges: spherical gaussians, with
                                              point-specific exponents (IZeta= 3).
                        Self-potential: point-specific (ISelfS= 7).
                        Self-field    : sphere-specific E.n sum rule (ISelfD= 2).
 1st derivatives      : Analytical E(r).r(x)/FMM algorithm (CHGder, D1EAlg=3).
                        Cavity 1st derivative terms included.
 Solvent              : Acetonitrile, Eps=  35.688000 Eps(inf)=   1.806874
 ------------------------------------------------------------------------------
 Spheres list:
 ISph  on   Nord     Re0    Alpha      Xe            Ye            Ze
    1   N      1    1.8300  1.100      0.629106      0.044756     -0.117920
    2   H      2    1.4430  1.100      1.119049     -0.783897      0.152803
    3   H      3    1.4430  1.100      0.935512      0.812175      0.445270
    4   N      4    1.8300  1.100     -0.746062     -0.146357      0.062048
    5   H      5    1.4430  1.100     -1.235870      0.682931     -0.206966
 ------------------------------------------------------------------------------
 GePol: Number of generator spheres                  =       5
 GePol: Total number of spheres                      =       5
 GePol: Number of exposed spheres                    =       5 (100.00%)
 GePol: Number of points                             =     562
 GePol: Average weight of points                     =       0.14
 GePol: Minimum weight of points                     =   0.17D-05
 GePol: Maximum weight of points                     =    0.20212
 GePol: Number of points with low weight             =      15
 GePol: Fraction of low-weight points (<1% of avg)   =       2.67%
 GePol: Cavity surface area                          =     79.200 Ang**2
 GePol: Cavity volume                                =     60.665 Ang**3
 Leave Link  301 at Mon Jun 10 11:11:29 2019, MaxMem=   104857600 cpu:               0.1 elap:               0.4
 (Enter /project/6004141/group/g16/g16/l302.exe)
 NPDir=0 NMtPBC=     1 NCelOv=     1 NCel=       1 NClECP=     1 NCelD=      1
         NCelK=      1 NCelE2=     1 NClLst=     1 CellRange=     0.0.
 One-electron integrals computed using PRISM.
 One-electron integral symmetry used in STVInt
 NBasis=    45 RedAO= T EigKep=  9.60D-03  NBF=    45
 NBsUse=    45 1.00D-06 EigRej= -1.00D+00 NBFU=    45
 Precomputing XC quadrature grid using
 IXCGrd= 4 IRadAn=           5 IRanWt=          -1 IRanGd=           0 AccXCQ= 0.00D+00.
 Generated NRdTot=       0 NPtTot=           0 NUsed=           0 NTot=          32
 NSgBfM=    45    45    45    45    45 MxSgAt=     5 MxSgA2=     5.
 Leave Link  302 at Mon Jun 10 11:11:30 2019, MaxMem=   104857600 cpu:               0.1 elap:               0.3
 (Enter /project/6004141/group/g16/g16/l303.exe)
 DipDrv:  MaxL=1.
 Leave Link  303 at Mon Jun 10 11:11:30 2019, MaxMem=   104857600 cpu:               0.1 elap:               0.1
 (Enter /project/6004141/group/g16/g16/l401.exe)
 ExpMin= 1.61D-01 ExpMax= 4.17D+03 ExpMxC= 6.27D+02 IAcc=3 IRadAn=         5 AccDes= 0.00D+00
 Harris functional with IExCor=  402 and IRadAn=       5 diagonalized for initial guess.
 HarFok:  IExCor=  402 AccDes= 0.00D+00 IRadAn=         5 IDoV= 1 UseB2=F ITyADJ=14
 ICtDFT=  3500011 ScaDFX=  1.000000  1.000000  1.000000  1.000000
 FoFCou: FMM=F IPFlag=           0 FMFlag=      100000 FMFlg1=           0
         NFxFlg=           0 DoJE=T BraDBF=F KetDBF=T FulRan=T
         wScrn=  0.000000 ICntrl=       500 IOpCl=  0 I1Cent=   200000004 NGrid=           0
         NMat0=    1 NMatS0=      1 NMatT0=    0 NMatD0=    1 NMtDS0=    0 NMtDT0=    0
 Petite list used in FoFCou.
 Harris En= -111.197773484115    
 JPrj=0 DoOrth=F DoCkMO=F.
 Initial guess <Sx>= 0.0000 <Sy>= 0.0000 <Sz>= 0.5000 <S**2>= 0.7500 S= 0.5000
 Leave Link  401 at Mon Jun 10 11:11:32 2019, MaxMem=   104857600 cpu:               0.4 elap:               0.8
 (Enter /project/6004141/group/g16/g16/l502.exe)
 Keep R1 and R2 ints in memory in canonical form, NReq=2529038.
 FoFCou: FMM=F IPFlag=           0 FMFlag=           0 FMFlg1=           0
         NFxFlg=           0 DoJE=F BraDBF=F KetDBF=F FulRan=T
         wScrn=  0.000000 ICntrl=       600 IOpCl=  0 I1Cent=           0 NGrid=           0
         NMat0=    1 NMatS0=   1035 NMatT0=    0 NMatD0=    1 NMtDS0=    0 NMtDT0=    0
 Symmetry not used in FoFCou.
 Two-electron integral symmetry not used.
 UHF open shell SCF:
 Using DIIS extrapolation, IDIIS=  1040.
 NGot=   104857600 LenX=   103780371 LenY=   103777905
 Requested convergence on RMS density matrix=1.00D-08 within 128 cycles.
 Requested convergence on MAX density matrix=1.00D-06.
 Requested convergence on             energy=1.00D-06.
 No special actions if energy rises.

 Cycle   1  Pass 1  IDiag  1:
 Inv3:  Mode=1 IEnd=      947532.
 Iteration    1 A*A^-1 deviation from unit magnitude is 2.44D-15 for    403.
 Iteration    1 A*A^-1 deviation from orthogonality  is 1.24D-15 for    283    173.
 Iteration    1 A^-1*A deviation from unit magnitude is 2.44D-15 for    403.
 Iteration    1 A^-1*A deviation from orthogonality  is 1.44D-15 for    362     39.
 E= -111.195750306465    
 DIIS: error= 2.49D-02 at cycle   1 NSaved=   1.
 NSaved= 1 IEnMin= 1 EnMin= -111.195750306465     IErMin= 1 ErrMin= 2.49D-02
 ErrMax= 2.49D-02  0.00D+00 EMaxC= 1.00D-01 BMatC= 1.59D-01 BMatP= 1.59D-01
 IDIUse=3 WtCom= 7.51D-01 WtEn= 2.49D-01
 Coeff-Com:  0.100D+01
 Coeff-En:   0.100D+01
 Coeff:      0.100D+01
 Gap=     0.244 Goal=   None    Shift=    0.000
 Gap=     0.196 Goal=   None    Shift=    0.000
 GapD=    0.196 DampG=1.000 DampE=0.500 DampFc=0.5000 IDamp=-1.
 Damping current iteration by 5.00D-01
 RMSDP=7.41D-03 MaxDP=9.38D-02              OVMax= 1.13D-01

 Cycle   2  Pass 1  IDiag  1:
 E= -111.213437269694     Delta-E=       -0.017686963229 Rises=F Damp=T
 DIIS: error= 5.84D-03 at cycle   2 NSaved=   2.
 NSaved= 2 IEnMin= 2 EnMin= -111.213437269694     IErMin= 2 ErrMin= 5.84D-03
 ErrMax= 5.84D-03  0.00D+00 EMaxC= 1.00D-01 BMatC= 1.05D-02 BMatP= 1.59D-01
 IDIUse=3 WtCom= 9.42D-01 WtEn= 5.84D-02
 Coeff-Com: -0.903D-03 0.100D+01
 Coeff-En:   0.000D+00 0.100D+01
 Coeff:     -0.851D-03 0.100D+01
 Gap=     0.302 Goal=   None    Shift=    0.000
 Gap=     0.196 Goal=   None    Shift=    0.000
 RMSDP=1.15D-03 MaxDP=1.78D-02 DE=-1.77D-02 OVMax= 5.07D-02

 Cycle   3  Pass 1  IDiag  1:
 E= -111.232636572228     Delta-E=       -0.019199302535 Rises=F Damp=F
 DIIS: error= 2.04D-03 at cycle   3 NSaved=   3.
 NSaved= 3 IEnMin= 3 EnMin= -111.232636572228     IErMin= 3 ErrMin= 2.04D-03
 ErrMax= 2.04D-03  0.00D+00 EMaxC= 1.00D-01 BMatC= 1.19D-03 BMatP= 1.05D-02
 IDIUse=3 WtCom= 9.80D-01 WtEn= 2.04D-02
 Coeff-Com: -0.393D-01 0.200D+00 0.839D+00
 Coeff-En:   0.000D+00 0.000D+00 0.100D+01
 Coeff:     -0.385D-01 0.196D+00 0.843D+00
 Gap=     0.301 Goal=   None    Shift=    0.000
 Gap=     0.198 Goal=   None    Shift=    0.000
 RMSDP=4.51D-04 MaxDP=6.03D-03 DE=-1.92D-02 OVMax= 1.53D-02

 Cycle   4  Pass 1  IDiag  1:
 E= -111.232945017703     Delta-E=       -0.000308445474 Rises=F Damp=F
 DIIS: error= 9.61D-04 at cycle   4 NSaved=   4.
 NSaved= 4 IEnMin= 4 EnMin= -111.232945017703     IErMin= 4 ErrMin= 9.61D-04
 ErrMax= 9.61D-04  0.00D+00 EMaxC= 1.00D-01 BMatC= 2.71D-04 BMatP= 1.19D-03
 IDIUse=3 WtCom= 9.90D-01 WtEn= 9.61D-03
 Coeff-Com: -0.117D-01 0.142D-01 0.314D+00 0.683D+00
 Coeff-En:   0.000D+00 0.000D+00 0.000D+00 0.100D+01
 Coeff:     -0.116D-01 0.141D-01 0.311D+00 0.686D+00
 Gap=     0.303 Goal=   None    Shift=    0.000
 Gap=     0.199 Goal=   None    Shift=    0.000
 RMSDP=1.89D-04 MaxDP=3.35D-03 DE=-3.08D-04 OVMax= 3.32D-03

 Cycle   5  Pass 1  IDiag  1:
 E= -111.232987538881     Delta-E=       -0.000042521178 Rises=F Damp=F
 DIIS: error= 7.88D-04 at cycle   5 NSaved=   5.
 NSaved= 5 IEnMin= 5 EnMin= -111.232987538881     IErMin= 5 ErrMin= 7.88D-04
 ErrMax= 7.88D-04  0.00D+00 EMaxC= 1.00D-01 BMatC= 9.90D-05 BMatP= 2.71D-04
 IDIUse=3 WtCom= 9.92D-01 WtEn= 7.88D-03
 Coeff-Com: -0.362D-03-0.210D-01 0.580D-01 0.394D+00 0.569D+00
 Coeff-En:   0.000D+00 0.000D+00 0.000D+00 0.173D+00 0.827D+00
 Coeff:     -0.360D-03-0.208D-01 0.575D-01 0.393D+00 0.571D+00
 Gap=     0.303 Goal=   None    Shift=    0.000
 Gap=     0.199 Goal=   None    Shift=    0.000
 RMSDP=1.12D-04 MaxDP=2.46D-03 DE=-4.25D-05 OVMax= 4.41D-03

 Cycle   6  Pass 1  IDiag  1:
 E= -111.233014287142     Delta-E=       -0.000026748261 Rises=F Damp=F
 DIIS: error= 2.36D-04 at cycle   6 NSaved=   6.
 NSaved= 6 IEnMin= 6 EnMin= -111.233014287142     IErMin= 6 ErrMin= 2.36D-04
 ErrMax= 2.36D-04  0.00D+00 EMaxC= 1.00D-01 BMatC= 1.25D-05 BMatP= 9.90D-05
 IDIUse=3 WtCom= 9.98D-01 WtEn= 2.36D-03
 Coeff-Com:  0.136D-02-0.151D-02-0.541D-01-0.197D+00 0.130D+00 0.112D+01
 Coeff-En:   0.000D+00 0.000D+00 0.000D+00 0.000D+00 0.000D+00 0.100D+01
 Coeff:      0.135D-02-0.150D-02-0.540D-01-0.197D+00 0.130D+00 0.112D+01
 Gap=     0.303 Goal=   None    Shift=    0.000
 Gap=     0.200 Goal=   None    Shift=    0.000
 RMSDP=6.24D-05 MaxDP=8.36D-04 DE=-2.67D-05 OVMax= 2.18D-03

 Cycle   7  Pass 1  IDiag  1:
 E= -111.233019006142     Delta-E=       -0.000004719001 Rises=F Damp=F
 DIIS: error= 3.17D-05 at cycle   7 NSaved=   7.
 NSaved= 7 IEnMin= 7 EnMin= -111.233019006142     IErMin= 7 ErrMin= 3.17D-05
 ErrMax= 3.17D-05  0.00D+00 EMaxC= 1.00D-01 BMatC= 2.67D-07 BMatP= 1.25D-05
 IDIUse=1 WtCom= 1.00D+00 WtEn= 0.00D+00
 Coeff-Com: -0.200D-03 0.155D-02 0.710D-02-0.171D-02-0.296D-01-0.195D+00
 Coeff-Com:  0.122D+01
 Coeff:     -0.200D-03 0.155D-02 0.710D-02-0.171D-02-0.296D-01-0.195D+00
 Coeff:      0.122D+01
 Gap=     0.303 Goal=   None    Shift=    0.000
 Gap=     0.200 Goal=   None    Shift=    0.000
 RMSDP=1.72D-05 MaxDP=2.11D-04 DE=-4.72D-06 OVMax= 8.07D-04

 Cycle   8  Pass 1  IDiag  1:
 E= -111.233019240658     Delta-E=       -0.000000234516 Rises=F Damp=F
 DIIS: error= 1.15D-05 at cycle   8 NSaved=   8.
 NSaved= 8 IEnMin= 8 EnMin= -111.233019240658     IErMin= 8 ErrMin= 1.15D-05
 ErrMax= 1.15D-05  0.00D+00 EMaxC= 1.00D-01 BMatC= 1.73D-08 BMatP= 2.67D-07
 IDIUse=1 WtCom= 1.00D+00 WtEn= 0.00D+00
 Coeff-Com: -0.125D-03 0.661D-04 0.591D-02 0.202D-01-0.100D-01-0.107D+00
 Coeff-Com: -0.430D-01 0.113D+01
 Coeff:     -0.125D-03 0.661D-04 0.591D-02 0.202D-01-0.100D-01-0.107D+00
 Coeff:     -0.430D-01 0.113D+01
 Gap=     0.303 Goal=   None    Shift=    0.000
 Gap=     0.200 Goal=   None    Shift=    0.000
 RMSDP=6.01D-06 MaxDP=8.39D-05 DE=-2.35D-07 OVMax= 2.94D-04

 Cycle   9  Pass 1  IDiag  1:
 E= -111.233019264527     Delta-E=       -0.000000023869 Rises=F Damp=F
 DIIS: error= 3.55D-06 at cycle   9 NSaved=   9.
 NSaved= 9 IEnMin= 9 EnMin= -111.233019264527     IErMin= 9 ErrMin= 3.55D-06
 ErrMax= 3.55D-06  0.00D+00 EMaxC= 1.00D-01 BMatC= 1.39D-09 BMatP= 1.73D-08
 IDIUse=1 WtCom= 1.00D+00 WtEn= 0.00D+00
 Coeff-Com:  0.250D-04-0.131D-03-0.125D-02-0.251D-02 0.370D-02 0.283D-01
 Coeff-Com: -0.944D-01-0.149D+00 0.121D+01
 Coeff:      0.250D-04-0.131D-03-0.125D-02-0.251D-02 0.370D-02 0.283D-01
 Coeff:     -0.944D-01-0.149D+00 0.121D+01
 Gap=     0.303 Goal=   None    Shift=    0.000
 Gap=     0.200 Goal=   None    Shift=    0.000
 RMSDP=2.07D-06 MaxDP=3.15D-05 DE=-2.39D-08 OVMax= 1.02D-04

 Cycle  10  Pass 1  IDiag  1:
 E= -111.233019266915     Delta-E=       -0.000000002388 Rises=F Damp=F
 DIIS: error= 8.68D-07 at cycle  10 NSaved=  10.
 NSaved=10 IEnMin=10 EnMin= -111.233019266915     IErMin=10 ErrMin= 8.68D-07
 ErrMax= 8.68D-07  0.00D+00 EMaxC= 1.00D-01 BMatC= 1.55D-10 BMatP= 1.39D-09
 IDIUse=1 WtCom= 1.00D+00 WtEn= 0.00D+00
 Coeff-Com:  0.110D-04-0.140D-04-0.647D-03-0.217D-02 0.145D-02 0.123D-01
 Coeff-Com: -0.460D-02-0.130D+00 0.124D+00 0.100D+01
 Coeff:      0.110D-04-0.140D-04-0.647D-03-0.217D-02 0.145D-02 0.123D-01
 Coeff:     -0.460D-02-0.130D+00 0.124D+00 0.100D+01
 Gap=     0.303 Goal=   None    Shift=    0.000
 Gap=     0.200 Goal=   None    Shift=    0.000
 RMSDP=5.26D-07 MaxDP=8.06D-06 DE=-2.39D-09 OVMax= 2.50D-05

 Cycle  11  Pass 1  IDiag  1:
 E= -111.233019267069     Delta-E=       -0.000000000154 Rises=F Damp=F
 DIIS: error= 1.97D-07 at cycle  11 NSaved=  11.
 NSaved=11 IEnMin=11 EnMin= -111.233019267069     IErMin=11 ErrMin= 1.97D-07
 ErrMax= 1.97D-07  0.00D+00 EMaxC= 1.00D-01 BMatC= 5.84D-12 BMatP= 1.55D-10
 IDIUse=1 WtCom= 1.00D+00 WtEn= 0.00D+00
 Coeff-Com: -0.319D-05 0.107D-04 0.162D-03 0.397D-03-0.372D-03-0.324D-02
 Coeff-Com:  0.650D-02 0.275D-01-0.856D-01-0.145D+00 0.120D+01
 Coeff:     -0.319D-05 0.107D-04 0.162D-03 0.397D-03-0.372D-03-0.324D-02
 Coeff:      0.650D-02 0.275D-01-0.856D-01-0.145D+00 0.120D+01
 Gap=     0.303 Goal=   None    Shift=    0.000
 Gap=     0.200 Goal=   None    Shift=    0.000
 RMSDP=1.06D-07 MaxDP=1.47D-06 DE=-1.54D-10 OVMax= 4.50D-06

 Cycle  12  Pass 1  IDiag  1:
 E= -111.233019267076     Delta-E=       -0.000000000007 Rises=F Damp=F
 DIIS: error= 4.84D-08 at cycle  12 NSaved=  12.
 NSaved=12 IEnMin=12 EnMin= -111.233019267076     IErMin=12 ErrMin= 4.84D-08
 ErrMax= 4.84D-08  0.00D+00 EMaxC= 1.00D-01 BMatC= 6.04D-13 BMatP= 5.84D-12
 IDIUse=1 WtCom= 1.00D+00 WtEn= 0.00D+00
 Coeff-Com: -0.250D-06-0.548D-06 0.217D-04 0.774D-04-0.234D-04-0.384D-03
 Coeff-Com: -0.781D-03 0.453D-02 0.149D-02-0.519D-01-0.137D+00 0.118D+01
 Coeff:     -0.250D-06-0.548D-06 0.217D-04 0.774D-04-0.234D-04-0.384D-03
 Coeff:     -0.781D-03 0.453D-02 0.149D-02-0.519D-01-0.137D+00 0.118D+01
 Gap=     0.303 Goal=   None    Shift=    0.000
 Gap=     0.200 Goal=   None    Shift=    0.000
 RMSDP=3.28D-08 MaxDP=4.91D-07 DE=-6.91D-12 OVMax= 1.55D-06

 Cycle  13  Pass 1  IDiag  1:
 E= -111.233019267076     Delta-E=       -0.000000000001 Rises=F Damp=F
 DIIS: error= 7.45D-09 at cycle  13 NSaved=  13.
 NSaved=13 IEnMin=13 EnMin= -111.233019267076     IErMin=13 ErrMin= 7.45D-09
 ErrMax= 7.45D-09  0.00D+00 EMaxC= 1.00D-01 BMatC= 1.48D-14 BMatP= 6.04D-13
 IDIUse=1 WtCom= 1.00D+00 WtEn= 0.00D+00
 Coeff-Com:  0.156D-06-0.501D-06-0.654D-05-0.178D-04 0.189D-04 0.128D-03
 Coeff-Com: -0.259D-03-0.109D-02 0.461D-02 0.671D-02-0.491D-01 0.365D-02
 Coeff-Com:  0.104D+01
 Coeff:      0.156D-06-0.501D-06-0.654D-05-0.178D-04 0.189D-04 0.128D-03
 Coeff:     -0.259D-03-0.109D-02 0.461D-02 0.671D-02-0.491D-01 0.365D-02
 Coeff:      0.104D+01
 Gap=     0.303 Goal=   None    Shift=    0.000
 Gap=     0.200 Goal=   None    Shift=    0.000
 RMSDP=3.21D-09 MaxDP=3.16D-08 DE=-5.40D-13 OVMax= 5.45D-08

 Error on total polarization charges =  0.00310
 SCF Done:  E(UB3LYP) =  -111.233019267     A.U. after   13 cycles
            NFock= 13  Conv=0.32D-08     -V/T= 2.0087
 <Sx>= 0.0000 <Sy>= 0.0000 <Sz>= 0.5000 <S**2>= 0.7529 S= 0.5015
 <L.S>=  0.00000000000    
 KE= 1.102720806959D+02 PE=-3.319082338790D+02 EE= 7.439144343877D+01
 Annihilation of the first spin contaminant:
 S**2 before annihilation     0.7529,   after     0.7500
 Leave Link  502 at Mon Jun 10 11:11:40 2019, MaxMem=   104857600 cpu:               7.6 elap:               7.7
 (Enter /project/6004141/group/g16/g16/l601.exe)
 Copying SCF densities to generalized density rwf, IOpCl= 1 IROHF=0.

 **********************************************************************

            Population analysis using the SCF density.

 **********************************************************************

 Orbital symmetries:
 Alpha Orbitals:
       Occupied  (A) (A) (A) (A) (A) (A) (A) (A) (A)
       Virtual   (A) (A) (A) (A) (A) (A) (A) (A) (A) (A) (A) (A)
                 (A) (A) (A) (A) (A) (A) (A) (A) (A) (A) (A) (A)
                 (A) (A) (A) (A) (A) (A) (A) (A) (A) (A) (A) (A)
 Beta  Orbitals:
       Occupied  (A) (A) (A) (A) (A) (A) (A) (A)
       Virtual   (A) (A) (A) (A) (A) (A) (A) (A) (A) (A) (A) (A)
                 (A) (A) (A) (A) (A) (A) (A) (A) (A) (A) (A) (A)
                 (A) (A) (A) (A) (A) (A) (A) (A) (A) (A) (A) (A)
                 (A)
 The electronic state is 2-A.
 Alpha  occ. eigenvalues --  -14.37249 -14.34682  -0.96664  -0.74104  -0.52741
 Alpha  occ. eigenvalues --   -0.46776  -0.39068  -0.27839  -0.21064
 Alpha virt. eigenvalues --    0.09255   0.12432   0.16591   0.23668   0.64417
 Alpha virt. eigenvalues --    0.66408   0.68206   0.68935   0.71335   0.79719
 Alpha virt. eigenvalues --    0.84770   0.89724   0.90928   0.99319   1.20443
 Alpha virt. eigenvalues --    1.36266   1.44036   1.53581   1.80236   1.87111
 Alpha virt. eigenvalues --    2.05961   2.18036   2.19936   2.24405   2.32109
 Alpha virt. eigenvalues --    2.44878   2.57294   2.65531   2.71421   2.88735
 Alpha virt. eigenvalues --    2.97672   3.29479   3.34711   3.48734   3.61743
 Alpha virt. eigenvalues --    3.97381
  Beta  occ. eigenvalues --  -14.36757 -14.33101  -0.94630  -0.71122  -0.51940
  Beta  occ. eigenvalues --   -0.45856  -0.33806  -0.25315
  Beta virt. eigenvalues --   -0.05350   0.09657   0.13284   0.17090   0.25086
  Beta virt. eigenvalues --    0.65613   0.68089   0.69062   0.70422   0.76148
  Beta virt. eigenvalues --    0.81173   0.85674   0.90353   0.92104   1.00635
  Beta virt. eigenvalues --    1.21794   1.38401   1.45484   1.57503   1.81767
  Beta virt. eigenvalues --    1.88995   2.08317   2.19007   2.22328   2.26282
  Beta virt. eigenvalues --    2.32619   2.46196   2.59094   2.66701   2.73136
  Beta virt. eigenvalues --    2.89545   2.98277   3.30087   3.35722   3.49590
  Beta virt. eigenvalues --    3.63783   3.98849
          Condensed to atoms (all electrons):
               1          2          3          4          5
     1  N    6.573246   0.351684   0.339016   0.209430  -0.040662
     2  H    0.351684   0.426548  -0.035692  -0.044430   0.006158
     3  H    0.339016  -0.035692   0.449777  -0.033522  -0.008221
     4  N    0.209430  -0.044430  -0.033522   6.988563   0.296776
     5  H   -0.040662   0.006158  -0.008221   0.296776   0.480791
          Atomic-Atomic Spin Densities.
               1          2          3          4          5
     1  N    0.332780  -0.001764  -0.001453  -0.132687   0.001110
     2  H   -0.001764  -0.005669   0.002273  -0.000970  -0.000108
     3  H   -0.001453   0.002273   0.029229  -0.012838   0.001176
     4  N   -0.132687  -0.000970  -0.012838   0.963882  -0.005379
     5  H    0.001110  -0.000108   0.001176  -0.005379  -0.018945
 Mulliken charges and spin densities:
               1          2
     1  N   -0.432714   0.197987
     2  H    0.295732  -0.006237
     3  H    0.288642   0.018388
     4  N   -0.416817   0.812008
     5  H    0.265157  -0.022145
 Sum of Mulliken charges =  -0.00000   1.00000
 Mulliken charges and spin densities with hydrogens summed into heavy atoms:
               1          2
     1  N    0.151660   0.210138
     4  N   -0.151660   0.789862
 Electronic spatial extent (au):  <R**2>=             71.7733
 Charge=              0.0000 electrons
 Dipole moment (field-independent basis, Debye):
    X=              1.7149    Y=              1.5780    Z=              0.9295  Tot=              2.5090
 Quadrupole moment (field-independent basis, Debye-Ang):
   XX=            -11.2809   YY=            -11.2043   ZZ=            -13.4612
   XY=             -2.5731   XZ=              1.9775   YZ=              0.4569
 Traceless Quadrupole moment (field-independent basis, Debye-Ang):
   XX=              0.7013   YY=              0.7778   ZZ=             -1.4791
   XY=             -2.5731   XZ=              1.9775   YZ=              0.4569
 Octapole moment (field-independent basis, Debye-Ang**2):
  XXX=              2.8750  YYY=              1.7977  ZZZ=              0.9619  XYY=              2.3818
  XXY=              2.1341  XXZ=              0.8831  XZZ=              0.3605  YZZ=              0.5991
  YYZ=              0.6718  XYZ=              0.5922
 Hexadecapole moment (field-independent basis, Debye-Ang**3):
 XXXX=            -50.9547 YYYY=            -16.0957 ZZZZ=            -13.4590 XXXY=             -5.1237
 XXXZ=              3.0429 YYYX=             -2.7671 YYYZ=              0.4981 ZZZX=              1.6471
 ZZZY=              0.4973 XXYY=            -10.1579 XXZZ=            -11.8106 YYZZ=             -4.9157
 XXYZ=              0.1988 YYXZ=              1.3251 ZZXY=             -0.4933
 N-N= 3.601169047724D+01 E-N=-3.319082339007D+02  KE= 1.102720806959D+02
                          Isotropic Fermi Contact Couplings
        Atom                 a.u.       MegaHertz       Gauss      10(-4) cm-1
     1  N(14)              0.09368      30.26812      10.80042      10.09636
     2  H(1)              -0.00243     -10.86866      -3.87821      -3.62539
     3  H(1)               0.01692      75.61509      26.98134      25.22248
     4  N(14)              0.11288      36.47317      13.01454      12.16614
     5  H(1)              -0.00880     -39.35491     -14.04281     -13.12739
 --------------------------------------------------------
       Center         ----  Spin Dipole Couplings  ----
                      3XX-RR        3YY-RR        3ZZ-RR
 --------------------------------------------------------
     1   Atom       -0.239846     -0.281209      0.521055
     2   Atom        0.002427      0.009668     -0.012095
     3   Atom       -0.006500      0.022303     -0.015802
     4   Atom       -0.890819     -0.763874      1.654693
     5   Atom       -0.038535      0.052766     -0.014231
 --------------------------------------------------------
                        XY            XZ            YZ
 --------------------------------------------------------
     1   Atom        0.013298     -0.165058     -0.086635
     2   Atom       -0.030878      0.003713     -0.011801
     3   Atom        0.028662      0.009417      0.017452
     4   Atom       -0.022574     -0.022290      0.555494
     5   Atom       -0.082446      0.019472     -0.014287
 --------------------------------------------------------


 ---------------------------------------------------------------------------------
              Anisotropic Spin Dipole Couplings in Principal Axis System
 ---------------------------------------------------------------------------------

       Atom             a.u.   MegaHertz   Gauss  10(-4) cm-1        Axes

              Baa    -0.2915   -11.241    -4.011    -3.750  0.2287  0.9620  0.1490
     1 N(14)  Bbb    -0.2729   -10.525    -3.756    -3.511  0.9524 -0.2528  0.1704
              Bcc     0.5644    21.767     7.767     7.261 -0.2016 -0.1030  0.9740
 
              Baa    -0.0270   -14.420    -5.146    -4.810  0.6518  0.6654  0.3638
     2 H(1)   Bbb    -0.0126    -6.718    -2.397    -2.241 -0.4124 -0.0916  0.9064
              Bcc     0.0396    21.138     7.543     7.051 -0.6365  0.7408 -0.2147
 
              Baa    -0.0246   -13.151    -4.693    -4.387  0.7209 -0.5807  0.3783
     3 H(1)   Bbb    -0.0216   -11.548    -4.121    -3.852 -0.4842 -0.0315  0.8744
              Bcc     0.0463    24.699     8.813     8.239  0.4959  0.8135  0.3038
 
              Baa    -0.9057   -34.933   -12.465   -11.652  0.7627  0.6334 -0.1308
     4 N(14)  Bbb    -0.8707   -33.581   -11.982   -11.201 -0.6467  0.7437 -0.1693
              Bcc     1.7764    68.513    24.447    22.854 -0.0100  0.2137  0.9768
 
              Baa    -0.0884   -47.162   -16.828   -15.731  0.8617  0.4900 -0.1319
     5 H(1)   Bbb    -0.0171    -9.121    -3.255    -3.043  0.0214  0.2245  0.9742
              Bcc     0.1055    56.283    20.083    18.774 -0.5069  0.8423 -0.1830
 

 ---------------------------------------------------------------------------------

 No NMR shielding tensors so no spin-rotation constants.
 Leave Link  601 at Mon Jun 10 11:11:40 2019, MaxMem=   104857600 cpu:               0.1 elap:               0.2
 (Enter /project/6004141/group/g16/g16/l701.exe)
 ... and contract with generalized density number  0.
 Compute integral first derivatives.
 R6Disp: Adding Grimme-D3 dispersion energy 1st derivatives to the gradient.
 D1PCM: PCM CHGder 1st derivatives, ID1Alg=3 FixD1E=F DoIter=F DoCFld=F I1PDM=0.
 GePol: Maximum number of non-zero 1st derivatives   =     238
 Leave Link  701 at Mon Jun 10 11:11:41 2019, MaxMem=   104857600 cpu:               0.5 elap:               0.5
 (Enter /project/6004141/group/g16/g16/l702.exe)
 L702 exits ... SP integral derivatives will be done elsewhere.
 Leave Link  702 at Mon Jun 10 11:11:41 2019, MaxMem=   104857600 cpu:               0.0 elap:               0.0
 (Enter /project/6004141/group/g16/g16/l703.exe)
 Integral derivatives from FoFJK, PRISM(SPDF).
 Compute integral first derivatives, UseDBF=F ICtDFT=           0.
 Calling FoFJK, ICntrl=      2127 FMM=F ISym2X=0 I1Cent= 0 IOpClX= 1 NMat=1 NMatS=1 NMatT=0.
 FoFJK:  IHMeth= 1 ICntrl=    2127 DoSepK=F KAlg= 0 I1Cent=           0 FoldK=F
 IRaf=         0 NMat=       1 IRICut=       1 DoRegI=T DoRafI=F ISym2E= 0 IDoP0=0 IntGTp=1.
 FoFCou: FMM=F IPFlag=           0 FMFlag=      100000 FMFlg1=         800
         NFxFlg=           0 DoJE=F BraDBF=F KetDBF=F FulRan=T
         wScrn=  0.000000 ICntrl=      2127 IOpCl=  1 I1Cent=           0 NGrid=           0
         NMat0=    1 NMatS0=      1 NMatT0=    0 NMatD0=    1 NMtDS0=    0 NMtDT0=    0
 Symmetry not used in FoFCou.
 Leave Link  703 at Mon Jun 10 11:11:43 2019, MaxMem=   104857600 cpu:               0.9 elap:               1.0
 (Enter /project/6004141/group/g16/g16/l716.exe)
 Dipole        = 6.74712758D-01 6.20848294D-01 3.65703272D-01
 ***** Axes restored to original set *****
 -------------------------------------------------------------------
 Center     Atomic                   Forces (Hartrees/Bohr)
 Number     Number              X              Y              Z
 -------------------------------------------------------------------
      1        7           0.006366389    0.029569375    0.030204597
      2        1           0.006854059   -0.013061599    0.001492874
      3        1          -0.004461514    0.006900760   -0.021972741
      4        7          -0.002172527   -0.046300337    0.005336358
      5        1          -0.006586407    0.022891800   -0.015061088
 -------------------------------------------------------------------
 Cartesian Forces:  Max     0.046300337 RMS     0.019267425
 Leave Link  716 at Mon Jun 10 11:11:43 2019, MaxMem=   104857600 cpu:               0.0 elap:               0.0
 (Enter /project/6004141/group/g16/g16/l103.exe)

 GradGradGradGradGradGradGradGradGradGradGradGradGradGradGradGradGradGrad
 Berny optimization.
 FormGI is forming the generalized inverse of G from B-inverse, IUseBI=4.
 Internal  Forces:  Max     0.023797898 RMS     0.015799473
 Search for a local minimum.
 Step number   1 out of a maximum of   21
 All quantities printed in internal units (Hartrees-Bohrs-Radians)
 RMS Force = .15799D-01 SwitMx=.10000D-02 MixMth= 1
 Mixed Optimization -- RFO/linear search
 Second derivative matrix not updated -- first step.
 The second derivative matrix:
                          R1        R2        R3        R4        A1
           R1           0.47688
           R2           0.00000   0.47688
           R3           0.00000   0.00000   0.45621
           R4           0.00000   0.00000   0.00000   0.47688
           A1           0.00000   0.00000   0.00000   0.00000   0.16000
           A2           0.00000   0.00000   0.00000   0.00000   0.00000
           A3           0.00000   0.00000   0.00000   0.00000   0.00000
           A4           0.00000   0.00000   0.00000   0.00000   0.00000
           D1           0.00000   0.00000   0.00000   0.00000   0.00000
           D2           0.00000   0.00000   0.00000   0.00000   0.00000
           D3           0.00000   0.00000   0.00000   0.00000   0.00000
                          A2        A3        A4        D1        D2
           A2           0.16000
           A3           0.00000   0.16000
           A4           0.00000   0.00000   0.16000
           D1           0.00000   0.00000   0.00000   0.01028
           D2           0.00000   0.00000   0.00000   0.00000   0.01295
           D3           0.00000   0.00000   0.00000   0.00000   0.00000
                          D3
           D3           0.01295
 ITU=  0
     Eigenvalues ---    0.01295   0.04717   0.13069   0.16000   0.16000
     Eigenvalues ---    0.45621   0.47688   0.47688   0.47688
 RFO step:  Lambda=-1.39727964D-02 EMin= 1.29480489D-02
 Linear search not attempted -- first point.
 Iteration  1 RMS(Cart)=  0.08650274 RMS(Int)=  0.04819968
 Iteration  2 RMS(Cart)=  0.03791436 RMS(Int)=  0.00274850
 Iteration  3 RMS(Cart)=  0.00185978 RMS(Int)=  0.00186799
 Iteration  4 RMS(Cart)=  0.00000407 RMS(Int)=  0.00186799
 Iteration  5 RMS(Cart)=  0.00000000 RMS(Int)=  0.00186799
 ITry= 1 IFail=0 DXMaxC= 1.98D-01 DCOld= 1.00D+10 DXMaxT= 3.00D-01 DXLimC= 3.00D+00 Rises=F
 Variable       Old X    -DE/DX   Delta X   Delta X   Delta X     New X
                                 (Linear)    (Quad)   (Total)
    R1        1.88973   0.01460   0.00000   0.02975   0.02975   1.91947
    R2        1.88973   0.01970   0.00000   0.04014   0.04014   1.92987
    R3        2.64562  -0.02190   0.00000  -0.04657  -0.04657   2.59904
    R4        1.88973   0.02380   0.00000   0.04848   0.04848   1.93821
    A1        1.91063   0.00052   0.00000   0.02656   0.02424   1.93487
    A2        1.91063  -0.00703   0.00000  -0.02064  -0.02477   1.88586
    A3        1.91063   0.01858   0.00000   0.12121   0.11890   2.02953
    A4        1.91063  -0.02333   0.00000  -0.13408  -0.13408   1.77655
    D1       -2.09439  -0.00309   0.00000  -0.06521  -0.06843  -2.16282
    D2        3.13965  -0.00390   0.00000  -0.24111  -0.24142   2.89824
    D3        1.04526  -0.01161   0.00000  -0.33522  -0.33491   0.71035
         Item               Value     Threshold  Converged?
 Maximum Force            0.023798     0.000450     NO 
 RMS     Force            0.015799     0.000300     NO 
 Maximum Displacement     0.198260     0.001800     NO 
 RMS     Displacement     0.113897     0.001200     NO 
 Predicted change in Energy=-8.521936D-03
 Lowest energy point so far.  Saving SCF results.
 GradGradGradGradGradGradGradGradGradGradGradGradGradGradGradGradGradGrad

 Leave Link  103 at Mon Jun 10 11:11:43 2019, MaxMem=   104857600 cpu:               0.0 elap:               0.0
 (Enter /project/6004141/group/g16/g16/l202.exe)
                          Input orientation:                          
 ---------------------------------------------------------------------
 Center     Atomic      Atomic             Coordinates (Angstroms)
 Number     Number       Type             X           Y           Z
 ---------------------------------------------------------------------
      1          7           0       -1.029636   -1.908890    2.678701
      2          1           0       -0.668741   -2.858233    2.663397
      3          1           0       -0.765066   -1.405556    1.830412
      4          7           0       -0.658720   -1.331099    3.870413
      5          1           0       -0.847543   -0.339227    3.690120
 ---------------------------------------------------------------------
                    Distance matrix (angstroms):
                    1          2          3          4          5
     1  N    0.000000
     2  H    1.015742   0.000000
     3  H    1.021243   1.677324   0.000000
     4  N    1.375354   1.946568   2.044128   0.000000
     5  H    1.876158   2.726082   2.145314   1.025656   0.000000
 Stoichiometry    H3N2(2)
 Framework group  C1[X(H3N2)]
 Deg. of freedom     9
 Full point group                 C1      NOp   1
 RotChk:  IX=0 Diff= 1.29D-01
 Largest Abelian subgroup         C1      NOp   1
 Largest concise Abelian subgroup C1      NOp   1
                         Standard orientation:                         
 ---------------------------------------------------------------------
 Center     Atomic      Atomic             Coordinates (Angstroms)
 Number     Number       Type             X           Y           Z
 ---------------------------------------------------------------------
      1          7           0        0.608025    0.028485   -0.106828
      2          1           0        1.072156   -0.816608    0.212751
      3          1           0        1.006295    0.854362    0.342888
      4          7           0       -0.748094   -0.149374    0.037774
      5          1           0       -1.097968    0.808463   -0.072259
 ---------------------------------------------------------------------
 Rotational constants (GHZ):         192.3163209          30.1319704          26.9210420
 Leave Link  202 at Mon Jun 10 11:11:43 2019, MaxMem=   104857600 cpu:               0.0 elap:               0.0
 (Enter /project/6004141/group/g16/g16/l301.exe)
 Standard basis: 6-31G(d,p) (6D, 7F)
 Ernie: Thresh=  0.10000D-02 Tol=  0.10000D-05 Strict=F.
 There are    45 symmetry adapted cartesian basis functions of A   symmetry.
 There are    45 symmetry adapted basis functions of A   symmetry.
    45 basis functions,    77 primitive gaussians,    45 cartesian basis functions
     9 alpha electrons        8 beta electrons
       nuclear repulsion energy        36.1844411403 Hartrees.
 IExCor=  402 DFT=T Ex+Corr=B3LYP ExCW=0 ScaHFX=  0.200000
 ScaDFX=  0.800000  0.720000  1.000000  0.810000 ScalE2=  1.000000  1.000000
 IRadAn=      5 IRanWt=     -1 IRanGd=            0 ICorTp=0 IEmpDi=131
 NAtoms=    5 NActive=    5 NUniq=    5 SFac= 1.00D+00 NAtFMM=   60 NAOKFM=F Big=F
 Integral buffers will be    131072 words long.
 Raffenetti 2 integral format.
 Two-electron integral symmetry is turned on.
 R6Disp:  Grimme-D3 Dispersion energy=       -0.0004001310 Hartrees.
 Nuclear repulsion after empirical dispersion term =       36.1840410092 Hartrees.
 ------------------------------------------------------------------------------
 Polarizable Continuum Model (PCM)
 =================================
 Model                : PCM.
 Atomic radii         : UFF (Universal Force Field).
 Polarization charges : Total charges.
 Charge compensation  : None.
 Solution method      : On-the-fly selection.
 Cavity type          : Scaled VdW (van der Waals Surface) (Alpha=1.100).
 Cavity algorithm     : GePol (No added spheres)
                        Default sphere list used, NSphG=    5.
                        Lebedev-Laikov grids with approx.  5.0 points / Ang**2.
                        Smoothing algorithm: York/Karplus (Gamma=1.0000).
                        Polarization charges: spherical gaussians, with
                                              point-specific exponents (IZeta= 3).
                        Self-potential: point-specific (ISelfS= 7).
                        Self-field    : sphere-specific E.n sum rule (ISelfD= 2).
 1st derivatives      : Analytical E(r).r(x)/FMM algorithm (CHGder, D1EAlg=3).
                        Cavity 1st derivative terms included.
 Solvent              : Acetonitrile, Eps=  35.688000 Eps(inf)=   1.806874
 ------------------------------------------------------------------------------
 Spheres list:
 ISph  on   Nord     Re0    Alpha      Xe            Ye            Ze
    1   N      1    1.8300  1.100      0.608025      0.028485     -0.106828
    2   H      2    1.4430  1.100      1.072156     -0.816608      0.212751
    3   H      3    1.4430  1.100      1.006295      0.854362      0.342888
    4   N      4    1.8300  1.100     -0.748094     -0.149374      0.037774
    5   H      5    1.4430  1.100     -1.097968      0.808463     -0.072259
 ------------------------------------------------------------------------------
 GePol: Number of generator spheres                  =       5
 GePol: Total number of spheres                      =       5
 GePol: Number of exposed spheres                    =       5 (100.00%)
 GePol: Number of points                             =     557
 GePol: Average weight of points                     =       0.14
 GePol: Minimum weight of points                     =   0.13D-04
 GePol: Maximum weight of points                     =    0.20212
 GePol: Number of points with low weight             =      18
 GePol: Fraction of low-weight points (<1% of avg)   =       3.23%
 GePol: Cavity surface area                          =     79.124 Ang**2
 GePol: Cavity volume                                =     60.718 Ang**3
 Leave Link  301 at Mon Jun 10 11:11:43 2019, MaxMem=   104857600 cpu:               0.0 elap:               0.1
 (Enter /project/6004141/group/g16/g16/l302.exe)
 NPDir=0 NMtPBC=     1 NCelOv=     1 NCel=       1 NClECP=     1 NCelD=      1
         NCelK=      1 NCelE2=     1 NClLst=     1 CellRange=     0.0.
 One-electron integrals computed using PRISM.
 One-electron integral symmetry used in STVInt
 NBasis=    45 RedAO= T EigKep=  8.98D-03  NBF=    45
 NBsUse=    45 1.00D-06 EigRej= -1.00D+00 NBFU=    45
 Precomputing XC quadrature grid using
 IXCGrd= 4 IRadAn=           5 IRanWt=          -1 IRanGd=           0 AccXCQ= 0.00D+00.
 Generated NRdTot=       0 NPtTot=           0 NUsed=           0 NTot=          32
 NSgBfM=    45    45    45    45    45 MxSgAt=     5 MxSgA2=     5.
 Leave Link  302 at Mon Jun 10 11:11:43 2019, MaxMem=   104857600 cpu:               0.1 elap:               0.1
 (Enter /project/6004141/group/g16/g16/l303.exe)
 DipDrv:  MaxL=1.
 Leave Link  303 at Mon Jun 10 11:11:43 2019, MaxMem=   104857600 cpu:               0.0 elap:               0.0
 (Enter /project/6004141/group/g16/g16/l401.exe)
 Initial guess from the checkpoint file:  "/scratch/rzk/Gau-276721.chk"
 B after Tr=    -0.000000    0.000000    0.000000
         Rot=    0.999866    0.002048   -0.001544    0.016154 Ang=   1.87 deg.
 Guess basis will be translated and rotated to current coordinates.
 JPrj=2 DoOrth=T DoCkMO=T.
 Initial guess <Sx>= 0.0000 <Sy>= 0.0000 <Sz>= 0.5000 <S**2>= 0.7529 S= 0.5015
 Generating alternative initial guess.
 ExpMin= 1.61D-01 ExpMax= 4.17D+03 ExpMxC= 6.27D+02 IAcc=2 IRadAn=         4 AccDes= 0.00D+00
 Harris functional with IExCor=  402 and IRadAn=       4 diagonalized for initial guess.
 HarFok:  IExCor=  402 AccDes= 0.00D+00 IRadAn=         4 IDoV= 1 UseB2=F ITyADJ=14
 ICtDFT=  3500011 ScaDFX=  1.000000  1.000000  1.000000  1.000000
 FoFCou: FMM=F IPFlag=           0 FMFlag=      100000 FMFlg1=           0
         NFxFlg=           0 DoJE=T BraDBF=F KetDBF=T FulRan=T
         wScrn=  0.000000 ICntrl=       500 IOpCl=  0 I1Cent=   200000004 NGrid=           0
         NMat0=    1 NMatS0=      1 NMatT0=    0 NMatD0=    1 NMtDS0=    0 NMtDT0=    0
 Petite list used in FoFCou.
 Harris En= -111.202962974393    
 Leave Link  401 at Mon Jun 10 11:11:44 2019, MaxMem=   104857600 cpu:               0.3 elap:               0.3
 (Enter /project/6004141/group/g16/g16/l502.exe)
 Keep R1 and R2 ints in memory in canonical form, NReq=2528725.
 FoFCou: FMM=F IPFlag=           0 FMFlag=           0 FMFlg1=           0
         NFxFlg=           0 DoJE=F BraDBF=F KetDBF=F FulRan=T
         wScrn=  0.000000 ICntrl=       600 IOpCl=  0 I1Cent=           0 NGrid=           0
         NMat0=    1 NMatS0=   1035 NMatT0=    0 NMatD0=    1 NMtDS0=    0 NMtDT0=    0
 Symmetry not used in FoFCou.
 Two-electron integral symmetry not used.
 UHF open shell SCF:
 Using DIIS extrapolation, IDIIS=  1040.
 NGot=   104857600 LenX=   103780371 LenY=   103777905
 Requested convergence on RMS density matrix=1.00D-08 within 128 cycles.
 Requested convergence on MAX density matrix=1.00D-06.
 Requested convergence on             energy=1.00D-06.
 No special actions if energy rises.

 Cycle   1  Pass 1  IDiag  1:
 Inv3:  Mode=1 IEnd=      930747.
 Iteration    1 A*A^-1 deviation from unit magnitude is 3.55D-15 for    192.
 Iteration    1 A*A^-1 deviation from orthogonality  is 1.12D-15 for    238    170.
 Iteration    1 A^-1*A deviation from unit magnitude is 3.55D-15 for    192.
 Iteration    1 A^-1*A deviation from orthogonality  is 1.98D-15 for    255     62.
 E= -111.232139009100    
 DIIS: error= 7.72D-03 at cycle   1 NSaved=   1.
 NSaved= 1 IEnMin= 1 EnMin= -111.232139009100     IErMin= 1 ErrMin= 7.72D-03
 ErrMax= 7.72D-03  0.00D+00 EMaxC= 1.00D-01 BMatC= 1.80D-02 BMatP= 1.80D-02
 IDIUse=3 WtCom= 9.23D-01 WtEn= 7.72D-02
 Coeff-Com:  0.100D+01
 Coeff-En:   0.100D+01
 Coeff:      0.100D+01
 Gap=     2.094 Goal=   None    Shift=    0.000
 Gap=     2.164 Goal=   None    Shift=    0.000
 GapD=    2.094 DampG=2.000 DampE=1.000 DampFc=2.0000 IDamp=-1.
 RMSDP=2.79D-03 MaxDP=3.35D-02              OVMax= 5.47D-02

 Cycle   2  Pass 1  IDiag  1:
 E= -111.239719173479     Delta-E=       -0.007580164379 Rises=F Damp=F
 DIIS: error= 1.42D-03 at cycle   2 NSaved=   2.
 NSaved= 2 IEnMin= 2 EnMin= -111.239719173479     IErMin= 2 ErrMin= 1.42D-03
 ErrMax= 1.42D-03  0.00D+00 EMaxC= 1.00D-01 BMatC= 7.47D-04 BMatP= 1.80D-02
 IDIUse=3 WtCom= 9.86D-01 WtEn= 1.42D-02
 Coeff-Com: -0.357D-01 0.104D+01
 Coeff-En:   0.000D+00 0.100D+01
 Coeff:     -0.352D-01 0.104D+01
 Gap=     0.278 Goal=   None    Shift=    0.000
 Gap=     0.234 Goal=   None    Shift=    0.000
 RMSDP=6.52D-04 MaxDP=7.36D-03 DE=-7.58D-03 OVMax= 1.46D-02

 Cycle   3  Pass 1  IDiag  1:
 E= -111.239865289656     Delta-E=       -0.000146116177 Rises=F Damp=F
 DIIS: error= 1.83D-03 at cycle   3 NSaved=   3.
 NSaved= 3 IEnMin= 3 EnMin= -111.239865289656     IErMin= 2 ErrMin= 1.42D-03
 ErrMax= 1.83D-03  0.00D+00 EMaxC= 1.00D-01 BMatC= 1.01D-03 BMatP= 7.47D-04
 IDIUse=3 WtCom= 1.90D-01 WtEn= 8.10D-01
 Coeff-Com: -0.475D-01 0.585D+00 0.462D+00
 Coeff-En:   0.000D+00 0.213D+00 0.787D+00
 Coeff:     -0.900D-02 0.284D+00 0.725D+00
 Gap=     0.277 Goal=   None    Shift=    0.000
 Gap=     0.235 Goal=   None    Shift=    0.000
 RMSDP=4.61D-04 MaxDP=9.42D-03 DE=-1.46D-04 OVMax= 1.28D-02

 Cycle   4  Pass 1  IDiag  1:
 E= -111.239915630250     Delta-E=       -0.000050340595 Rises=F Damp=F
 DIIS: error= 1.78D-03 at cycle   4 NSaved=   4.
 NSaved= 4 IEnMin= 4 EnMin= -111.239915630250     IErMin= 2 ErrMin= 1.42D-03
 ErrMax= 1.78D-03  0.00D+00 EMaxC= 1.00D-01 BMatC= 9.41D-04 BMatP= 7.47D-04
 IDIUse=3 WtCom= 1.92D-01 WtEn= 8.08D-01
 Coeff-Com: -0.910D-02-0.714D-02 0.498D+00 0.518D+00
 Coeff-En:   0.000D+00 0.000D+00 0.448D+00 0.552D+00
 Coeff:     -0.175D-02-0.137D-02 0.457D+00 0.546D+00
 Gap=     0.277 Goal=   None    Shift=    0.000
 Gap=     0.235 Goal=   None    Shift=    0.000
 RMSDP=2.55D-04 MaxDP=4.04D-03 DE=-5.03D-05 OVMax= 7.68D-03

 Cycle   5  Pass 1  IDiag  1:
 E= -111.240103287217     Delta-E=       -0.000187656966 Rises=F Damp=F
 DIIS: error= 3.47D-04 at cycle   5 NSaved=   5.
 NSaved= 5 IEnMin= 5 EnMin= -111.240103287217     IErMin= 5 ErrMin= 3.47D-04
 ErrMax= 3.47D-04  0.00D+00 EMaxC= 1.00D-01 BMatC= 2.93D-05 BMatP= 7.47D-04
 IDIUse=3 WtCom= 9.97D-01 WtEn= 3.47D-03
 Coeff-Com:  0.589D-02-0.142D+00 0.135D+00 0.314D+00 0.688D+00
 Coeff-En:   0.000D+00 0.000D+00 0.000D+00 0.000D+00 0.100D+01
 Coeff:      0.587D-02-0.142D+00 0.134D+00 0.313D+00 0.689D+00
 Gap=     0.277 Goal=   None    Shift=    0.000
 Gap=     0.235 Goal=   None    Shift=    0.000
 RMSDP=8.56D-05 MaxDP=1.07D-03 DE=-1.88D-04 OVMax= 3.75D-03

 Cycle   6  Pass 1  IDiag  1:
 E= -111.240113094882     Delta-E=       -0.000009807666 Rises=F Damp=F
 DIIS: error= 6.14D-05 at cycle   6 NSaved=   6.
 NSaved= 6 IEnMin= 6 EnMin= -111.240113094882     IErMin= 6 ErrMin= 6.14D-05
 ErrMax= 6.14D-05  0.00D+00 EMaxC= 1.00D-01 BMatC= 1.30D-06 BMatP= 2.93D-05
 IDIUse=1 WtCom= 1.00D+00 WtEn= 0.00D+00
 Coeff-Com:  0.302D-02-0.400D-01-0.348D-01 0.159D-02 0.194D+00 0.876D+00
 Coeff:      0.302D-02-0.400D-01-0.348D-01 0.159D-02 0.194D+00 0.876D+00
 Gap=     0.277 Goal=   None    Shift=    0.000
 Gap=     0.235 Goal=   None    Shift=    0.000
 RMSDP=2.59D-05 MaxDP=3.94D-04 DE=-9.81D-06 OVMax= 1.20D-03

 Cycle   7  Pass 1  IDiag  1:
 E= -111.240113764555     Delta-E=       -0.000000669673 Rises=F Damp=F
 DIIS: error= 1.59D-05 at cycle   7 NSaved=   7.
 NSaved= 7 IEnMin= 7 EnMin= -111.240113764555     IErMin= 7 ErrMin= 1.59D-05
 ErrMax= 1.59D-05  0.00D+00 EMaxC= 1.00D-01 BMatC= 4.81D-08 BMatP= 1.30D-06
 IDIUse=1 WtCom= 1.00D+00 WtEn= 0.00D+00
 Coeff-Com: -0.928D-03 0.181D-01-0.718D-02-0.303D-01-0.812D-01-0.793D-01
 Coeff-Com:  0.118D+01
 Coeff:     -0.928D-03 0.181D-01-0.718D-02-0.303D-01-0.812D-01-0.793D-01
 Coeff:      0.118D+01
 Gap=     0.277 Goal=   None    Shift=    0.000
 Gap=     0.235 Goal=   None    Shift=    0.000
 RMSDP=9.24D-06 MaxDP=1.18D-04 DE=-6.70D-07 OVMax= 3.99D-04

 Cycle   8  Pass 1  IDiag  1:
 E= -111.240113818264     Delta-E=       -0.000000053708 Rises=F Damp=F
 DIIS: error= 3.22D-06 at cycle   8 NSaved=   8.
 NSaved= 8 IEnMin= 8 EnMin= -111.240113818264     IErMin= 8 ErrMin= 3.22D-06
 ErrMax= 3.22D-06  0.00D+00 EMaxC= 1.00D-01 BMatC= 2.67D-09 BMatP= 4.81D-08
 IDIUse=1 WtCom= 1.00D+00 WtEn= 0.00D+00
 Coeff-Com: -0.130D-03 0.126D-02 0.269D-02 0.178D-02-0.736D-02-0.594D-01
 Coeff-Com: -0.793D-01 0.114D+01
 Coeff:     -0.130D-03 0.126D-02 0.269D-02 0.178D-02-0.736D-02-0.594D-01
 Coeff:     -0.793D-01 0.114D+01
 Gap=     0.277 Goal=   None    Shift=    0.000
 Gap=     0.235 Goal=   None    Shift=    0.000
 RMSDP=2.33D-06 MaxDP=2.58D-05 DE=-5.37D-08 OVMax= 8.55D-05

 Cycle   9  Pass 1  IDiag  1:
 E= -111.240113820754     Delta-E=       -0.000000002490 Rises=F Damp=F
 DIIS: error= 4.99D-07 at cycle   9 NSaved=   9.
 NSaved= 9 IEnMin= 9 EnMin= -111.240113820754     IErMin= 9 ErrMin= 4.99D-07
 ErrMax= 4.99D-07  0.00D+00 EMaxC= 1.00D-01 BMatC= 7.43D-11 BMatP= 2.67D-09
 IDIUse=1 WtCom= 1.00D+00 WtEn= 0.00D+00
 Coeff-Com:  0.233D-04-0.640D-03 0.740D-03 0.159D-02 0.283D-02-0.318D-02
 Coeff-Com: -0.562D-01 0.139D+00 0.916D+00
 Coeff:      0.233D-04-0.640D-03 0.740D-03 0.159D-02 0.283D-02-0.318D-02
 Coeff:     -0.562D-01 0.139D+00 0.916D+00
 Gap=     0.277 Goal=   None    Shift=    0.000
 Gap=     0.235 Goal=   None    Shift=    0.000
 RMSDP=1.85D-07 MaxDP=2.34D-06 DE=-2.49D-09 OVMax= 3.79D-06

 Cycle  10  Pass 1  IDiag  1:
 E= -111.240113820787     Delta-E=       -0.000000000033 Rises=F Damp=F
 DIIS: error= 1.06D-07 at cycle  10 NSaved=  10.
 NSaved=10 IEnMin=10 EnMin= -111.240113820787     IErMin=10 ErrMin= 1.06D-07
 ErrMax= 1.06D-07  0.00D+00 EMaxC= 1.00D-01 BMatC= 2.54D-12 BMatP= 7.43D-11
 IDIUse=1 WtCom= 1.00D+00 WtEn= 0.00D+00
 Coeff-Com:  0.283D-05-0.130D-04-0.113D-03-0.137D-03 0.300D-04 0.180D-02
 Coeff-Com:  0.417D-02-0.412D-01-0.532D-01 0.109D+01
 Coeff:      0.283D-05-0.130D-04-0.113D-03-0.137D-03 0.300D-04 0.180D-02
 Coeff:      0.417D-02-0.412D-01-0.532D-01 0.109D+01
 Gap=     0.277 Goal=   None    Shift=    0.000
 Gap=     0.235 Goal=   None    Shift=    0.000
 RMSDP=4.42D-08 MaxDP=3.84D-07 DE=-3.31D-11 OVMax= 8.80D-07

 Cycle  11  Pass 1  IDiag  1:
 E= -111.240113820788     Delta-E=       -0.000000000002 Rises=F Damp=F
 DIIS: error= 4.06D-08 at cycle  11 NSaved=  11.
 NSaved=11 IEnMin=11 EnMin= -111.240113820788     IErMin=11 ErrMin= 4.06D-08
 ErrMax= 4.06D-08  0.00D+00 EMaxC= 1.00D-01 BMatC= 2.34D-13 BMatP= 2.54D-12
 IDIUse=1 WtCom= 1.00D+00 WtEn= 0.00D+00
 Coeff-Com: -0.131D-05 0.357D-04-0.323D-04-0.789D-04-0.136D-03 0.810D-04
 Coeff-Com:  0.310D-02-0.505D-02-0.513D-01-0.311D-01 0.108D+01
 Coeff:     -0.131D-05 0.357D-04-0.323D-04-0.789D-04-0.136D-03 0.810D-04
 Coeff:      0.310D-02-0.505D-02-0.513D-01-0.311D-01 0.108D+01
 Gap=     0.277 Goal=   None    Shift=    0.000
 Gap=     0.235 Goal=   None    Shift=    0.000
 RMSDP=1.40D-08 MaxDP=1.42D-07 DE=-1.72D-12 OVMax= 3.45D-07

 Cycle  12  Pass 1  IDiag  1:
 E= -111.240113820788     Delta-E=        0.000000000000 Rises=F Damp=F
 DIIS: error= 7.73D-09 at cycle  12 NSaved=  12.
 NSaved=12 IEnMin=11 EnMin= -111.240113820788     IErMin=12 ErrMin= 7.73D-09
 ErrMax= 7.73D-09  0.00D+00 EMaxC= 1.00D-01 BMatC= 1.68D-14 BMatP= 2.34D-13
 IDIUse=1 WtCom= 1.00D+00 WtEn= 0.00D+00
 Coeff-Com: -0.350D-06 0.442D-05 0.324D-05-0.297D-06-0.132D-04-0.131D-03
 Coeff-Com:  0.176D-04 0.225D-02-0.256D-02-0.806D-01 0.892D-01 0.992D+00
 Coeff:     -0.350D-06 0.442D-05 0.324D-05-0.297D-06-0.132D-04-0.131D-03
 Coeff:      0.176D-04 0.225D-02-0.256D-02-0.806D-01 0.892D-01 0.992D+00
 Gap=     0.277 Goal=   None    Shift=    0.000
 Gap=     0.235 Goal=   None    Shift=    0.000
 RMSDP=3.09D-09 MaxDP=3.15D-08 DE= 9.95D-14 OVMax= 6.77D-08

 Error on total polarization charges =  0.00321
 SCF Done:  E(UB3LYP) =  -111.240113821     A.U. after   12 cycles
            NFock= 12  Conv=0.31D-08     -V/T= 2.0092
 <Sx>= 0.0000 <Sy>= 0.0000 <Sz>= 0.5000 <S**2>= 0.7531 S= 0.5015
 <L.S>=  0.00000000000    
 KE= 1.102278903987D+02 PE=-3.322295220650D+02 EE= 7.457747683626D+01
 Annihilation of the first spin contaminant:
 S**2 before annihilation     0.7531,   after     0.7500
 Leave Link  502 at Mon Jun 10 11:11:49 2019, MaxMem=   104857600 cpu:               5.7 elap:               5.7
 (Enter /project/6004141/group/g16/g16/l701.exe)
 ... and contract with generalized density number  0.
 Compute integral first derivatives.
 R6Disp: Adding Grimme-D3 dispersion energy 1st derivatives to the gradient.
 D1PCM: PCM CHGder 1st derivatives, ID1Alg=3 FixD1E=F DoIter=F DoCFld=F I1PDM=0.
 GePol: Maximum number of non-zero 1st derivatives   =     228
 Leave Link  701 at Mon Jun 10 11:11:50 2019, MaxMem=   104857600 cpu:               0.4 elap:               0.4
 (Enter /project/6004141/group/g16/g16/l702.exe)
 L702 exits ... SP integral derivatives will be done elsewhere.
 Leave Link  702 at Mon Jun 10 11:11:50 2019, MaxMem=   104857600 cpu:               0.0 elap:               0.0
 (Enter /project/6004141/group/g16/g16/l703.exe)
 Integral derivatives from FoFJK, PRISM(SPDF).
 Compute integral first derivatives, UseDBF=F ICtDFT=           0.
 Calling FoFJK, ICntrl=      2127 FMM=F ISym2X=0 I1Cent= 0 IOpClX= 1 NMat=1 NMatS=1 NMatT=0.
 FoFJK:  IHMeth= 1 ICntrl=    2127 DoSepK=F KAlg= 0 I1Cent=           0 FoldK=F
 IRaf=         0 NMat=       1 IRICut=       1 DoRegI=T DoRafI=F ISym2E= 0 IDoP0=0 IntGTp=1.
 FoFCou: FMM=F IPFlag=           0 FMFlag=      100000 FMFlg1=         800
         NFxFlg=           0 DoJE=F BraDBF=F KetDBF=F FulRan=T
         wScrn=  0.000000 ICntrl=      2127 IOpCl=  1 I1Cent=           0 NGrid=           0
         NMat0=    1 NMatS0=      1 NMatT0=    0 NMatD0=    1 NMtDS0=    0 NMtDT0=    0
 Symmetry not used in FoFCou.
 Leave Link  703 at Mon Jun 10 11:11:51 2019, MaxMem=   104857600 cpu:               0.8 elap:               0.8
 (Enter /project/6004141/group/g16/g16/l716.exe)
 Dipole        = 8.27783154D-01 6.82248810D-01 4.26464802D-01
 ***** Axes restored to original set *****
 -------------------------------------------------------------------
 Center     Atomic                   Forces (Hartrees/Bohr)
 Number     Number              X              Y              Z
 -------------------------------------------------------------------
      1        7           0.012791336   -0.004843469    0.010151226
      2        1          -0.003221454   -0.001856855   -0.005355407
      3        1          -0.003587099   -0.000182093   -0.000420907
      4        7          -0.009119217    0.001943192   -0.009561939
      5        1           0.003136434    0.004939225    0.005187027
 -------------------------------------------------------------------
 Cartesian Forces:  Max     0.012791336 RMS     0.006246139
 Leave Link  716 at Mon Jun 10 11:11:51 2019, MaxMem=   104857600 cpu:               0.0 elap:               0.0
 (Enter /project/6004141/group/g16/g16/l103.exe)

 GradGradGradGradGradGradGradGradGradGradGradGradGradGradGradGradGradGrad
 Berny optimization.
 Using GEDIIS/GDIIS optimizer.
 FormGI is forming the generalized inverse of G from B-inverse, IUseBI=4.
 Internal  Forces:  Max     0.013348893 RMS     0.005051488
 Search for a local minimum.
 Step number   2 out of a maximum of   21
 All quantities printed in internal units (Hartrees-Bohrs-Radians)
 RMS Force = .50515D-02 SwitMx=.10000D-02 MixMth= 1
 Mixed Optimization -- RFO/linear search
 Update second derivatives using D2CorX and points    1    2
 DE= -7.09D-03 DEPred=-8.52D-03 R= 8.33D-01
 TightC=F SS=  1.41D+00  RLast= 4.64D-01 DXNew= 5.0454D-01 1.3925D+00
 Trust test= 8.33D-01 RLast= 4.64D-01 DXMaxT set to 5.05D-01
 The second derivative matrix:
                          R1        R2        R3        R4        A1
           R1           0.47210
           R2          -0.00491   0.47252
           R3           0.00862   0.00948   0.44127
           R4          -0.00995  -0.01115   0.01705   0.45749
           A1          -0.00246  -0.00303   0.00396  -0.00442   0.15911
           A2          -0.00732  -0.01129   0.00964  -0.00997  -0.00095
           A3          -0.00698  -0.00741   0.01235  -0.01418  -0.00341
           A4          -0.00813  -0.01504   0.00833  -0.00757   0.00081
           D1           0.00410   0.00589  -0.00580   0.00618   0.00085
           D2           0.00070   0.00057  -0.00141   0.00168   0.00048
           D3          -0.00309  -0.00516   0.00370  -0.00366  -0.00011
                          A2        A3        A4        D1        D2
           A2           0.16993
           A3          -0.00930   0.14991
           A4           0.02506  -0.00941   0.21273
           D1          -0.00315   0.00536  -0.00976   0.01098
           D2           0.00193   0.00108   0.00271  -0.00098   0.01288
           D3           0.00638  -0.00378   0.01447  -0.00231   0.00090
                          D3
           D3           0.01680
 ITU=  1  0
 Use linear search instead of GDIIS.
     Eigenvalues ---    0.01475   0.03474   0.13912   0.15465   0.22277
     Eigenvalues ---    0.42525   0.46574   0.47688   0.47905
 RFO step:  Lambda=-2.75762937D-03 EMin= 1.47487759D-02
 Quartic linear search produced a step of -0.01256.
 Iteration  1 RMS(Cart)=  0.05350087 RMS(Int)=  0.00439122
 Iteration  2 RMS(Cart)=  0.00412631 RMS(Int)=  0.00187526
 Iteration  3 RMS(Cart)=  0.00002084 RMS(Int)=  0.00187518
 Iteration  4 RMS(Cart)=  0.00000000 RMS(Int)=  0.00187518
 ITry= 1 IFail=0 DXMaxC= 1.03D-01 DCOld= 1.00D+10 DXMaxT= 5.05D-01 DXLimC= 3.00D+00 Rises=F
 Variable       Old X    -DE/DX   Delta X   Delta X   Delta X     New X
                                 (Linear)    (Quad)   (Total)
    R1        1.91947   0.00067  -0.00037   0.00523   0.00486   1.92433
    R2        1.92987  -0.00066  -0.00050   0.00387   0.00336   1.93323
    R3        2.59904  -0.00252   0.00058  -0.01139  -0.01081   2.58823
    R4        1.93821   0.00329  -0.00061   0.01298   0.01237   1.95058
    A1        1.93487  -0.00211  -0.00030   0.01648   0.01247   1.94734
    A2        1.88586   0.00567   0.00031   0.06973   0.06696   1.95282
    A3        2.02953   0.00047  -0.00149   0.04147   0.03732   2.06685
    A4        1.77655   0.01335   0.00168   0.06239   0.06408   1.84063
    D1       -2.16282  -0.00632   0.00086  -0.14220  -0.14193  -2.30476
    D2        2.89824  -0.00047   0.00303  -0.08247  -0.07743   2.82081
    D3        0.71035  -0.00273   0.00421  -0.19407  -0.19187   0.51848
         Item               Value     Threshold  Converged?
 Maximum Force            0.013349     0.000450     NO 
 RMS     Force            0.005051     0.000300     NO 
 Maximum Displacement     0.102990     0.001800     NO 
 RMS     Displacement     0.053718     0.001200     NO 
 Predicted change in Energy=-1.525512D-03
 Lowest energy point so far.  Saving SCF results.
 GradGradGradGradGradGradGradGradGradGradGradGradGradGradGradGradGradGrad

 Leave Link  103 at Mon Jun 10 11:11:51 2019, MaxMem=   104857600 cpu:               0.0 elap:               0.0
 (Enter /project/6004141/group/g16/g16/l202.exe)
                          Input orientation:                          
 ---------------------------------------------------------------------
 Center     Atomic      Atomic             Coordinates (Angstroms)
 Number     Number       Type             X           Y           Z
 ---------------------------------------------------------------------
      1          7           0       -1.000423   -1.921940    2.681783
      2          1           0       -0.653646   -2.878630    2.643739
      3          1           0       -0.792975   -1.412050    1.819487
      4          7           0       -0.713220   -1.321962    3.879047
      5          1           0       -0.809443   -0.308424    3.708987
 ---------------------------------------------------------------------
                    Distance matrix (angstroms):
                    1          2          3          4          5
     1  N    0.000000
     2  H    1.018311   0.000000
     3  H    1.023024   1.688093   0.000000
     4  N    1.369635   1.988153   2.063071   0.000000
     5  H    1.922252   2.786572   2.188258   1.032200   0.000000
 Stoichiometry    H3N2(2)
 Framework group  C1[X(H3N2)]
 Deg. of freedom     9
 Full point group                 C1      NOp   1
 RotChk:  IX=0 Diff= 7.78D-02
 Largest Abelian subgroup         C1      NOp   1
 Largest concise Abelian subgroup C1      NOp   1
                         Standard orientation:                         
 ---------------------------------------------------------------------
 Center     Atomic      Atomic             Coordinates (Angstroms)
 Number     Number       Type             X           Y           Z
 ---------------------------------------------------------------------
      1          7           0        0.605868    0.024386   -0.093335
      2          1           0        1.124938   -0.791653    0.225421
      3          1           0        1.016327    0.892604    0.259225
      4          7           0       -0.747061   -0.152496    0.025798
      5          1           0       -1.152913    0.795819   -0.011887
 ---------------------------------------------------------------------
 Rotational constants (GHZ):         197.8834610          29.9466769          26.6270216
 Leave Link  202 at Mon Jun 10 11:11:51 2019, MaxMem=   104857600 cpu:               0.0 elap:               0.0
 (Enter /project/6004141/group/g16/g16/l301.exe)
 Standard basis: 6-31G(d,p) (6D, 7F)
 Ernie: Thresh=  0.10000D-02 Tol=  0.10000D-05 Strict=F.
 There are    45 symmetry adapted cartesian basis functions of A   symmetry.
 There are    45 symmetry adapted basis functions of A   symmetry.
    45 basis functions,    77 primitive gaussians,    45 cartesian basis functions
     9 alpha electrons        8 beta electrons
       nuclear repulsion energy        36.1099069917 Hartrees.
 IExCor=  402 DFT=T Ex+Corr=B3LYP ExCW=0 ScaHFX=  0.200000
 ScaDFX=  0.800000  0.720000  1.000000  0.810000 ScalE2=  1.000000  1.000000
 IRadAn=      5 IRanWt=     -1 IRanGd=            0 ICorTp=0 IEmpDi=131
 NAtoms=    5 NActive=    5 NUniq=    5 SFac= 1.00D+00 NAtFMM=   60 NAOKFM=F Big=F
 Integral buffers will be    131072 words long.
 Raffenetti 2 integral format.
 Two-electron integral symmetry is turned on.
 R6Disp:  Grimme-D3 Dispersion energy=       -0.0004238850 Hartrees.
 Nuclear repulsion after empirical dispersion term =       36.1094831067 Hartrees.
 ------------------------------------------------------------------------------
 Polarizable Continuum Model (PCM)
 =================================
 Model                : PCM.
 Atomic radii         : UFF (Universal Force Field).
 Polarization charges : Total charges.
 Charge compensation  : None.
 Solution method      : On-the-fly selection.
 Cavity type          : Scaled VdW (van der Waals Surface) (Alpha=1.100).
 Cavity algorithm     : GePol (No added spheres)
                        Default sphere list used, NSphG=    5.
                        Lebedev-Laikov grids with approx.  5.0 points / Ang**2.
                        Smoothing algorithm: York/Karplus (Gamma=1.0000).
                        Polarization charges: spherical gaussians, with
                                              point-specific exponents (IZeta= 3).
                        Self-potential: point-specific (ISelfS= 7).
                        Self-field    : sphere-specific E.n sum rule (ISelfD= 2).
 1st derivatives      : Analytical E(r).r(x)/FMM algorithm (CHGder, D1EAlg=3).
                        Cavity 1st derivative terms included.
 Solvent              : Acetonitrile, Eps=  35.688000 Eps(inf)=   1.806874
 ------------------------------------------------------------------------------
 Spheres list:
 ISph  on   Nord     Re0    Alpha      Xe            Ye            Ze
    1   N      1    1.8300  1.100      0.605868      0.024386     -0.093335
    2   H      2    1.4430  1.100      1.124938     -0.791653      0.225421
    3   H      3    1.4430  1.100      1.016327      0.892604      0.259225
    4   N      4    1.8300  1.100     -0.747061     -0.152496      0.025798
    5   H      5    1.4430  1.100     -1.152913      0.795819     -0.011887
 ------------------------------------------------------------------------------
 GePol: Number of generator spheres                  =       5
 GePol: Total number of spheres                      =       5
 GePol: Number of exposed spheres                    =       5 (100.00%)
 GePol: Number of points                             =     562
 GePol: Average weight of points                     =       0.14
 GePol: Minimum weight of points                     =   0.27D-07
 GePol: Maximum weight of points                     =    0.20212
 GePol: Number of points with low weight             =      24
 GePol: Fraction of low-weight points (<1% of avg)   =       4.27%
 GePol: Cavity surface area                          =     79.592 Ang**2
 GePol: Cavity volume                                =     60.942 Ang**3
 Leave Link  301 at Mon Jun 10 11:11:51 2019, MaxMem=   104857600 cpu:               0.1 elap:               0.1
 (Enter /project/6004141/group/g16/g16/l302.exe)
 NPDir=0 NMtPBC=     1 NCelOv=     1 NCel=       1 NClECP=     1 NCelD=      1
         NCelK=      1 NCelE2=     1 NClLst=     1 CellRange=     0.0.
 One-electron integrals computed using PRISM.
 One-electron integral symmetry used in STVInt
 NBasis=    45 RedAO= T EigKep=  9.13D-03  NBF=    45
 NBsUse=    45 1.00D-06 EigRej= -1.00D+00 NBFU=    45
 Precomputing XC quadrature grid using
 IXCGrd= 4 IRadAn=           5 IRanWt=          -1 IRanGd=           0 AccXCQ= 0.00D+00.
 Generated NRdTot=       0 NPtTot=           0 NUsed=           0 NTot=          32
 NSgBfM=    45    45    45    45    45 MxSgAt=     5 MxSgA2=     5.
 Leave Link  302 at Mon Jun 10 11:11:51 2019, MaxMem=   104857600 cpu:               0.1 elap:               0.1
 (Enter /project/6004141/group/g16/g16/l303.exe)
 DipDrv:  MaxL=1.
 Leave Link  303 at Mon Jun 10 11:11:51 2019, MaxMem=   104857600 cpu:               0.0 elap:               0.0
 (Enter /project/6004141/group/g16/g16/l401.exe)
 Initial guess from the checkpoint file:  "/scratch/rzk/Gau-276721.chk"
 B after Tr=    -0.000000   -0.000000   -0.000000
         Rot=    0.999945    0.008092   -0.001829   -0.006492 Ang=   1.21 deg.
 Guess basis will be translated and rotated to current coordinates.
 JPrj=2 DoOrth=T DoCkMO=T.
 Initial guess <Sx>= 0.0000 <Sy>= 0.0000 <Sz>= 0.5000 <S**2>= 0.7531 S= 0.5015
 Generating alternative initial guess.
 ExpMin= 1.61D-01 ExpMax= 4.17D+03 ExpMxC= 6.27D+02 IAcc=2 IRadAn=         4 AccDes= 0.00D+00
 Harris functional with IExCor=  402 and IRadAn=       4 diagonalized for initial guess.
 HarFok:  IExCor=  402 AccDes= 0.00D+00 IRadAn=         4 IDoV= 1 UseB2=F ITyADJ=14
 ICtDFT=  3500011 ScaDFX=  1.000000  1.000000  1.000000  1.000000
 FoFCou: FMM=F IPFlag=           0 FMFlag=      100000 FMFlg1=           0
         NFxFlg=           0 DoJE=T BraDBF=F KetDBF=T FulRan=T
         wScrn=  0.000000 ICntrl=       500 IOpCl=  0 I1Cent=   200000004 NGrid=           0
         NMat0=    1 NMatS0=      1 NMatT0=    0 NMatD0=    1 NMtDS0=    0 NMtDT0=    0
 Petite list used in FoFCou.
 Harris En= -111.205375571798    
 Leave Link  401 at Mon Jun 10 11:11:51 2019, MaxMem=   104857600 cpu:               0.3 elap:               0.3
 (Enter /project/6004141/group/g16/g16/l502.exe)
 Keep R1 and R2 ints in memory in canonical form, NReq=2529037.
 FoFCou: FMM=F IPFlag=           0 FMFlag=           0 FMFlg1=           0
         NFxFlg=           0 DoJE=F BraDBF=F KetDBF=F FulRan=T
         wScrn=  0.000000 ICntrl=       600 IOpCl=  0 I1Cent=           0 NGrid=           0
         NMat0=    1 NMatS0=   1035 NMatT0=    0 NMatD0=    1 NMtDS0=    0 NMtDT0=    0
 Symmetry not used in FoFCou.
 Two-electron integral symmetry not used.
 UHF open shell SCF:
 Using DIIS extrapolation, IDIIS=  1040.
 NGot=   104857600 LenX=   103780371 LenY=   103777905
 Requested convergence on RMS density matrix=1.00D-08 within 128 cycles.
 Requested convergence on MAX density matrix=1.00D-06.
 Requested convergence on             energy=1.00D-06.
 No special actions if energy rises.

 Cycle   1  Pass 1  IDiag  1:
 Inv3:  Mode=1 IEnd=      947532.
 Iteration    1 A*A^-1 deviation from unit magnitude is 2.66D-15 for     37.
 Iteration    1 A*A^-1 deviation from orthogonality  is 1.58D-15 for    218    167.
 Iteration    1 A^-1*A deviation from unit magnitude is 2.66D-15 for     37.
 Iteration    1 A^-1*A deviation from orthogonality  is 1.22D-15 for    380      1.
 E= -111.239453967090    
 DIIS: error= 4.23D-03 at cycle   1 NSaved=   1.
 NSaved= 1 IEnMin= 1 EnMin= -111.239453967090     IErMin= 1 ErrMin= 4.23D-03
 ErrMax= 4.23D-03  0.00D+00 EMaxC= 1.00D-01 BMatC= 4.81D-03 BMatP= 4.81D-03
 IDIUse=3 WtCom= 9.58D-01 WtEn= 4.23D-02
 Coeff-Com:  0.100D+01
 Coeff-En:   0.100D+01
 Coeff:      0.100D+01
 Gap=     2.138 Goal=   None    Shift=    0.000
 Gap=     2.235 Goal=   None    Shift=    0.000
 GapD=    2.138 DampG=2.000 DampE=1.000 DampFc=2.0000 IDamp=-1.
 RMSDP=1.41D-03 MaxDP=1.62D-02              OVMax= 2.30D-02

 Cycle   2  Pass 1  IDiag  1:
 E= -111.241405795535     Delta-E=       -0.001951828445 Rises=F Damp=F
 DIIS: error= 6.01D-04 at cycle   2 NSaved=   2.
 NSaved= 2 IEnMin= 2 EnMin= -111.241405795535     IErMin= 2 ErrMin= 6.01D-04
 ErrMax= 6.01D-04  0.00D+00 EMaxC= 1.00D-01 BMatC= 9.56D-05 BMatP= 4.81D-03
 IDIUse=3 WtCom= 9.94D-01 WtEn= 6.01D-03
 Coeff-Com: -0.714D-01 0.107D+01
 Coeff-En:   0.000D+00 0.100D+01
 Coeff:     -0.710D-01 0.107D+01
 Gap=     0.271 Goal=   None    Shift=    0.000
 Gap=     0.239 Goal=   None    Shift=    0.000
 RMSDP=2.90D-04 MaxDP=3.42D-03 DE=-1.95D-03 OVMax= 7.34D-03

 Cycle   3  Pass 1  IDiag  1:
 E= -111.241456006008     Delta-E=       -0.000050210473 Rises=F Damp=F
 DIIS: error= 5.50D-04 at cycle   3 NSaved=   3.
 NSaved= 3 IEnMin= 3 EnMin= -111.241456006008     IErMin= 3 ErrMin= 5.50D-04
 ErrMax= 5.50D-04  0.00D+00 EMaxC= 1.00D-01 BMatC= 6.22D-05 BMatP= 9.56D-05
 IDIUse=3 WtCom= 9.94D-01 WtEn= 5.50D-03
 Coeff-Com: -0.431D-01 0.508D+00 0.535D+00
 Coeff-En:   0.000D+00 0.000D+00 0.100D+01
 Coeff:     -0.429D-01 0.505D+00 0.538D+00
 Gap=     0.270 Goal=   None    Shift=    0.000
 Gap=     0.239 Goal=   None    Shift=    0.000
 RMSDP=8.83D-05 MaxDP=1.78D-03 DE=-5.02D-05 OVMax= 2.56D-03

 Cycle   4  Pass 1  IDiag  1:
 E= -111.241469825582     Delta-E=       -0.000013819574 Rises=F Damp=F
 DIIS: error= 2.25D-04 at cycle   4 NSaved=   4.
 NSaved= 4 IEnMin= 4 EnMin= -111.241469825582     IErMin= 4 ErrMin= 2.25D-04
 ErrMax= 2.25D-04  0.00D+00 EMaxC= 1.00D-01 BMatC= 1.37D-05 BMatP= 6.22D-05
 IDIUse=3 WtCom= 9.98D-01 WtEn= 2.25D-03
 Coeff-Com:  0.257D-02-0.108D+00 0.280D+00 0.826D+00
 Coeff-En:   0.000D+00 0.000D+00 0.231D-01 0.977D+00
 Coeff:      0.257D-02-0.108D+00 0.279D+00 0.826D+00
 Gap=     0.270 Goal=   None    Shift=    0.000
 Gap=     0.239 Goal=   None    Shift=    0.000
 RMSDP=6.22D-05 MaxDP=7.54D-04 DE=-1.38D-05 OVMax= 2.02D-03

 Cycle   5  Pass 1  IDiag  1:
 E= -111.241474191797     Delta-E=       -0.000004366215 Rises=F Damp=F
 DIIS: error= 7.66D-05 at cycle   5 NSaved=   5.
 NSaved= 5 IEnMin= 5 EnMin= -111.241474191797     IErMin= 5 ErrMin= 7.66D-05
 ErrMax= 7.66D-05  0.00D+00 EMaxC= 1.00D-01 BMatC= 1.78D-06 BMatP= 1.37D-05
 IDIUse=1 WtCom= 1.00D+00 WtEn= 0.00D+00
 Coeff-Com:  0.772D-02-0.127D+00 0.719D-01 0.392D+00 0.656D+00
 Coeff:      0.772D-02-0.127D+00 0.719D-01 0.392D+00 0.656D+00
 Gap=     0.270 Goal=   None    Shift=    0.000
 Gap=     0.239 Goal=   None    Shift=    0.000
[...]
 (Enter /project/6004141/group/g16/g16/l703.exe)
 Integral derivatives from FoFJK, PRISM(SPDF).
 Compute integral first derivatives, UseDBF=F ICtDFT=           0.
 Calling FoFJK, ICntrl=      2127 FMM=F ISym2X=0 I1Cent= 0 IOpClX= 1 NMat=1 NMatS=1 NMatT=0.
 FoFJK:  IHMeth= 1 ICntrl=    2127 DoSepK=F KAlg= 0 I1Cent=           0 FoldK=F
 IRaf=         0 NMat=       1 IRICut=       1 DoRegI=T DoRafI=F ISym2E= 0 IDoP0=0 IntGTp=1.
 FoFCou: FMM=F IPFlag=           0 FMFlag=      100000 FMFlg1=         800
         NFxFlg=           0 DoJE=F BraDBF=F KetDBF=F FulRan=T
         wScrn=  0.000000 ICntrl=      2127 IOpCl=  1 I1Cent=           0 NGrid=           0
         NMat0=    1 NMatS0=      1 NMatT0=    0 NMatD0=    1 NMtDS0=    0 NMtDT0=    0
 Symmetry not used in FoFCou.
 Leave Link  703 at Mon Jun 10 11:12:19 2019, MaxMem=   104857600 cpu:               1.0 elap:               1.0
 (Enter /project/6004141/group/g16/g16/l716.exe)
 Dipole        = 9.16754123D-01 7.34606877D-01 3.36159914D-01
 ***** Axes restored to original set *****
 -------------------------------------------------------------------
 Center     Atomic                   Forces (Hartrees/Bohr)
 Number     Number              X              Y              Z
 -------------------------------------------------------------------
      1        7           0.000043388   -0.000095110   -0.000159695
      2        1          -0.000011607   -0.000003178    0.000042812
      3        1          -0.000046633    0.000025690    0.000029838
      4        7           0.000000342   -0.000036410    0.000117786
      5        1           0.000014510    0.000109009   -0.000030741
 -------------------------------------------------------------------
 Cartesian Forces:  Max     0.000159695 RMS     0.000068494
 Leave Link  716 at Mon Jun 10 11:12:19 2019, MaxMem=   104857600 cpu:               0.0 elap:               0.0
 (Enter /project/6004141/group/g16/g16/l103.exe)

 GradGradGradGradGradGradGradGradGradGradGradGradGradGradGradGradGradGrad
 Berny optimization.
 Using GEDIIS/GDIIS optimizer.
 FormGI is forming the generalized inverse of G from B-inverse, IUseBI=4.
 Internal  Forces:  Max     0.000114737 RMS     0.000052086
 Search for a local minimum.
 Step number   6 out of a maximum of   21
 All quantities printed in internal units (Hartrees-Bohrs-Radians)
 RMS Force = .52086D-04 SwitMx=.10000D-02 MixMth= 2
 Mixed Optimization -- En-DIIS/RFO-DIIS
 Swapping is turned off.
 Update second derivatives using D2CorX and points    2    3    4    5    6
 DE= -1.72D-06 DEPred=-1.44D-06 R= 1.19D+00
 TightC=F SS=  1.41D+00  RLast= 1.17D-02 DXNew= 1.3669D+00 3.5155D-02
 Trust test= 1.19D+00 RLast= 1.17D-02 DXMaxT set to 8.13D-01
 The second derivative matrix:
                          R1        R2        R3        R4        A1
           R1           0.46973
           R2          -0.00978   0.46464
           R3           0.01150   0.00986   0.45906
           R4          -0.00775  -0.01122   0.01507   0.46983
           A1           0.01797   0.02235   0.01160   0.00846   0.11811
           A2           0.00968   0.01113   0.05250   0.00386  -0.02629
           A3           0.00224   0.00512   0.03608  -0.00611  -0.02074
           A4           0.00719   0.00221   0.07745   0.00817  -0.01429
           D1          -0.00773  -0.00537  -0.00672  -0.00618   0.01706
           D2          -0.00694  -0.00657  -0.00871  -0.01331   0.00091
           D3          -0.00103  -0.00375   0.00094   0.00371   0.00579
                          A2        A3        A4        D1        D2
           A2           0.12095
           A3          -0.03214   0.14070
           A4           0.00260  -0.01765   0.24991
           D1          -0.00368   0.01386  -0.02245   0.01910
           D2          -0.00543  -0.00145  -0.00740  -0.00171   0.01983
           D3           0.01557   0.00005   0.01340   0.00126  -0.00156
                          D3
           D3           0.01804
 ITU=  1  1  1  1  1  0
     Eigenvalues ---    0.01184   0.01872   0.13529   0.16141   0.22833
     Eigenvalues ---    0.43961   0.47654   0.47768   0.50086
 En-DIIS/RFO-DIIS/Sim-DIIS IScMMF=       -3 using points:     6    5    4
 RFO step:  Lambda=-2.14054474D-07.
 NNeg= 0 NGDIIS= 3 SimSw=  2.50D-01 Rises=F DC= -1.72D-06 SmlDif=  1.00D-05
 NRisDI= 0 DoIntr=F SqrtH=F CThrHd= 10.0 CDAdj=  3.0
 RMS Error=  0.1001246548D-02 NUsed= 3 OKEnD=F EnDIS=F
 InvSVX:  RCond= 7.49D-07 Info=           0 Equed=N FErr=  2.29D-14 BErr=  8.97D-17
 DidBck=F Rises=F RFO-DIIS coefs:    1.23761   -0.23755   -0.00006
 Iteration  1 RMS(Cart)=  0.00055526 RMS(Int)=  0.00000222
 Iteration  2 RMS(Cart)=  0.00000057 RMS(Int)=  0.00000216
 ITry= 1 IFail=0 DXMaxC= 1.04D-03 DCOld= 1.00D+10 DXMaxT= 8.13D-01 DXLimC= 3.00D+00 Rises=F
 Variable       Old X    -DE/DX   Delta X   Delta X   Delta X     New X
                                 (Linear)    (Quad)   (Total)
    R1        1.91426  -0.00000  -0.00006  -0.00004  -0.00009   1.91417
    R2        1.92206  -0.00002  -0.00007  -0.00007  -0.00013   1.92193
    R3        2.56105   0.00011   0.00011   0.00006   0.00016   2.56122
    R4        1.94099   0.00010  -0.00005   0.00022   0.00018   1.94116
    A1        1.97920   0.00005   0.00082   0.00009   0.00090   1.98010
    A2        1.98311  -0.00002   0.00033  -0.00011   0.00022   1.98332
    A3        2.09574  -0.00002   0.00027  -0.00015   0.00012   2.09586
    A4        1.83332   0.00000  -0.00005   0.00004  -0.00001   1.83331
    D1       -2.42675  -0.00001  -0.00205   0.00026  -0.00179  -2.42854
    D2        2.88919  -0.00000   0.00081  -0.00134  -0.00052   2.88867
    D3        0.46392  -0.00004  -0.00143  -0.00115  -0.00257   0.46135
         Item               Value     Threshold  Converged?
 Maximum Force            0.000115     0.000450     YES
 RMS     Force            0.000052     0.000300     YES
 Maximum Displacement     0.001035     0.001800     YES
 RMS     Displacement     0.000555     0.001200     YES
 Predicted change in Energy=-1.070140D-07
 Optimization completed.
    -- Stationary point found.
                           ----------------------------
                           !   Optimized Parameters   !
                           ! (Angstroms and Degrees)  !
 --------------------------                            --------------------------
 ! Name  Definition              Value          Derivative Info.                !
 --------------------------------------------------------------------------------
 ! R1    R(1,2)                  1.013          -DE/DX =    0.0                 !
 ! R2    R(1,3)                  1.0171         -DE/DX =    0.0                 !
 ! R3    R(1,4)                  1.3553         -DE/DX =    0.0001              !
 ! R4    R(4,5)                  1.0271         -DE/DX =    0.0001              !
 ! A1    A(2,1,3)              113.3997         -DE/DX =    0.0001              !
 ! A2    A(2,1,4)              113.6238         -DE/DX =    0.0                 !
 ! A3    A(3,1,4)              120.0772         -DE/DX =    0.0                 !
 ! A4    A(1,4,5)              105.0417         -DE/DX =    0.0                 !
 ! D1    D(2,1,3,4)           -139.0426         -DE/DX =    0.0                 !
 ! D2    D(2,1,4,5)            165.5385         -DE/DX =    0.0                 !
 ! D3    D(3,1,4,5)             26.5806         -DE/DX =    0.0                 !
 --------------------------------------------------------------------------------
 Lowest energy point so far.  Saving SCF results.
 Largest change from initial coordinates is atom    3       0.237 Angstoms.
 GradGradGradGradGradGradGradGradGradGradGradGradGradGradGradGradGradGrad

 Leave Link  103 at Mon Jun 10 11:12:19 2019, MaxMem=   104857600 cpu:               0.0 elap:               0.0
 (Enter /project/6004141/group/g16/g16/l202.exe)
                          Input orientation:                          
 ---------------------------------------------------------------------
 Center     Atomic      Atomic             Coordinates (Angstroms)
 Number     Number       Type             X           Y           Z
 ---------------------------------------------------------------------
      1          7           0       -0.964046   -1.914802    2.686147
      2          1           0       -0.672414   -2.884037    2.645249
      3          1           0       -0.801635   -1.407207    1.819839
      4          7           0       -0.712020   -1.321675    3.878366
      5          1           0       -0.819591   -0.315285    3.703442
 ---------------------------------------------------------------------
                    Distance matrix (angstroms):
                    1          2          3          4          5
     1  N    0.000000
     2  H    1.012985   0.000000
     3  H    1.017113   1.696770   0.000000
     4  N    1.355251   1.990760   2.062251   0.000000
     5  H    1.901108   2.782072   2.177287   1.027127   0.000000
 Stoichiometry    H3N2(2)
 Framework group  C1[X(H3N2)]
 Deg. of freedom     9
 Full point group                 C1      NOp   1
 RotChk:  IX=0 Diff= 1.69D-16
 Largest Abelian subgroup         C1      NOp   1
 Largest concise Abelian subgroup C1      NOp   1
                         Standard orientation:                         
 ---------------------------------------------------------------------
 Center     Atomic      Atomic             Coordinates (Angstroms)
 Number     Number       Type             X           Y           Z
 ---------------------------------------------------------------------
      1          7           0        0.597293    0.023802   -0.078798
      2          1           0        1.135243   -0.794415    0.180567
      3          1           0        1.021320    0.898019    0.221973
      4          7           0       -0.742539   -0.152037    0.024328
      5          1           0       -1.139840    0.794042   -0.021246
 ---------------------------------------------------------------------
 Rotational constants (GHZ):         202.2886404          30.5020391          26.9577160
 Leave Link  202 at Mon Jun 10 11:12:19 2019, MaxMem=   104857600 cpu:               0.0 elap:               0.0
 (Enter /project/6004141/group/g16/g16/l601.exe)
 Copying SCF densities to generalized density rwf, IOpCl= 1 IROHF=0.

 **********************************************************************

            Population analysis using the SCF density.

 **********************************************************************

 Orbital symmetries:
 Alpha Orbitals:
       Occupied  (A) (A) (A) (A) (A) (A) (A) (A) (A)
       Virtual   (A) (A) (A) (A) (A) (A) (A) (A) (A) (A) (A) (A)
                 (A) (A) (A) (A) (A) (A) (A) (A) (A) (A) (A) (A)
                 (A) (A) (A) (A) (A) (A) (A) (A) (A) (A) (A) (A)
 Beta  Orbitals:
       Occupied  (A) (A) (A) (A) (A) (A) (A) (A)
       Virtual   (A) (A) (A) (A) (A) (A) (A) (A) (A) (A) (A) (A)
                 (A) (A) (A) (A) (A) (A) (A) (A) (A) (A) (A) (A)
                 (A) (A) (A) (A) (A) (A) (A) (A) (A) (A) (A) (A)
                 (A)
 The electronic state is 2-A.
 Alpha  occ. eigenvalues --  -14.37728 -14.33966  -0.97416  -0.73097  -0.53949
 Alpha  occ. eigenvalues --   -0.46421  -0.38254  -0.29306  -0.18223
 Alpha virt. eigenvalues --    0.08201   0.12163   0.16779   0.27375   0.64528
 Alpha virt. eigenvalues --    0.65924   0.68445   0.69649   0.71384   0.77477
 Alpha virt. eigenvalues --    0.85100   0.88442   0.92040   0.97133   1.23236
 Alpha virt. eigenvalues --    1.38678   1.39266   1.55648   1.79501   1.88640
 Alpha virt. eigenvalues --    2.05998   2.11525   2.22714   2.32153   2.37261
 Alpha virt. eigenvalues --    2.44773   2.50491   2.61471   2.67106   2.89570
 Alpha virt. eigenvalues --    2.96551   3.24628   3.37922   3.46873   3.58074
 Alpha virt. eigenvalues --    4.00470
  Beta  occ. eigenvalues --  -14.37059 -14.32491  -0.95292  -0.70260  -0.53253
  Beta  occ. eigenvalues --   -0.45335  -0.32029  -0.27369
  Beta virt. eigenvalues --   -0.02897   0.08720   0.12777   0.17369   0.28794
  Beta virt. eigenvalues --    0.65221   0.68299   0.69861   0.70178   0.74883
  Beta virt. eigenvalues --    0.80529   0.85501   0.89161   0.93148   0.98234
  Beta virt. eigenvalues --    1.25191   1.40434   1.41640   1.58992   1.80152
  Beta virt. eigenvalues --    1.91308   2.07799   2.11861   2.24754   2.32896
  Beta virt. eigenvalues --    2.40315   2.45613   2.51333   2.63231   2.68931
  Beta virt. eigenvalues --    2.90229   2.97110   3.25087   3.39001   3.47389
  Beta virt. eigenvalues --    3.60183   4.02054
          Condensed to atoms (all electrons):
               1          2          3          4          5
     1  N    6.555367   0.352246   0.336255   0.210579  -0.044269
     2  H    0.352246   0.421943  -0.035206  -0.043604   0.007031
     3  H    0.336255  -0.035206   0.452079  -0.026344  -0.015178
     4  N    0.210579  -0.043604  -0.026344   6.990009   0.296196
     5  H   -0.044269   0.007031  -0.015178   0.296196   0.505189
          Atomic-Atomic Spin Densities.
               1          2          3          4          5
     1  N    0.475767  -0.004892  -0.006730  -0.184920   0.002725
     2  H   -0.004892  -0.001374   0.003707  -0.002251  -0.000272
     3  H   -0.006730   0.003707   0.004741  -0.002688   0.000527
     4  N   -0.184920  -0.002251  -0.002688   0.942760  -0.004347
     5  H    0.002725  -0.000272   0.000527  -0.004347  -0.023612
 Mulliken charges and spin densities:
               1          2
     1  N   -0.410178   0.281950
     2  H    0.297590  -0.005082
     3  H    0.288394  -0.000444
     4  N   -0.426836   0.748554
     5  H    0.251031  -0.024978
 Sum of Mulliken charges =   0.00000   1.00000
 Mulliken charges and spin densities with hydrogens summed into heavy atoms:
               1          2
     1  N    0.175805   0.276424
     4  N   -0.175805   0.723576
 Electronic spatial extent (au):  <R**2>=             70.6786
 Charge=              0.0000 electrons
 Dipole moment (field-independent basis, Debye):
    X=              2.3302    Y=              1.8672    Z=              0.8544  Tot=              3.1058
 Quadrupole moment (field-independent basis, Debye-Ang):
   XX=            -11.3301   YY=            -10.5583   ZZ=            -13.8490
   XY=             -2.2385   XZ=              1.1025   YZ=              0.1179
 Traceless Quadrupole moment (field-independent basis, Debye-Ang):
   XX=              0.5824   YY=              1.3541   ZZ=             -1.9365
   XY=             -2.2385   XZ=              1.1025   YZ=              0.1179
 Octapole moment (field-independent basis, Debye-Ang**2):
  XXX=              4.8596  YYY=              2.3938  ZZZ=              0.7149  XYY=              2.7721
  XXY=              2.4606  XXZ=              1.1147  XZZ=              0.4962  YZZ=              0.4462
  YYZ=              0.6387  XYZ=              0.0760
 Hexadecapole moment (field-independent basis, Debye-Ang**3):
 XXXX=            -50.1892 YYYY=            -16.1791 ZZZZ=            -12.7007 XXXY=             -4.1346
 XXXZ=              1.6678 YYYX=             -2.3135 YYYZ=              0.1770 ZZZX=              0.8362
 ZZZY=              0.0974 XXYY=             -9.3461 XXZZ=            -11.8037 YYZZ=             -5.1676
 XXYZ=              0.0392 YYXZ=              0.8238 ZZXY=             -0.5197
 N-N= 3.638794330835D+01 E-N=-3.326543890994D+02  KE= 1.102219540449D+02
                          Isotropic Fermi Contact Couplings
        Atom                 a.u.       MegaHertz       Gauss      10(-4) cm-1
     1  N(14)              0.10310      33.31161      11.88641      11.11156
     2  H(1)              -0.00118      -5.28407      -1.88549      -1.76257
     3  H(1)               0.00205       9.17778       3.27486       3.06138
     4  N(14)              0.10085      32.58652      11.62768      10.86969
     5  H(1)              -0.01066     -47.66395     -17.00768     -15.89898
 --------------------------------------------------------
       Center         ----  Spin Dipole Couplings  ----
                      3XX-RR        3YY-RR        3ZZ-RR
 --------------------------------------------------------
     1   Atom       -0.338488     -0.381430      0.719919
     2   Atom       -0.001841      0.014542     -0.012701
     3   Atom       -0.014097      0.026042     -0.011945
     4   Atom       -0.840661     -0.827391      1.668052
     5   Atom       -0.049216      0.066487     -0.017271
 --------------------------------------------------------
                        XY            XZ            YZ
 --------------------------------------------------------
     1   Atom        0.008707     -0.147395     -0.036942
     2   Atom       -0.039863      0.006124     -0.010841
     3   Atom        0.036773      0.005248      0.011104
     4   Atom       -0.018952     -0.002760      0.083764
     5   Atom       -0.063718      0.001515     -0.001027
 --------------------------------------------------------


 ---------------------------------------------------------------------------------
              Anisotropic Spin Dipole Couplings in Principal Axis System
 ---------------------------------------------------------------------------------

       Atom             a.u.   MegaHertz   Gauss  10(-4) cm-1        Axes

              Baa    -0.3832   -14.781    -5.274    -4.930 -0.1488  0.9888  0.0132
     1 N(14)  Bbb    -0.3581   -13.811    -4.928    -4.607  0.9795  0.1456  0.1389
              Bcc     0.7413    28.592    10.202     9.537 -0.1354 -0.0336  0.9902
 
              Baa    -0.0346   -18.443    -6.581    -6.152  0.7607  0.6406  0.1046
     2 H(1)   Bbb    -0.0149    -7.952    -2.838    -2.653 -0.2040  0.0830  0.9755
              Bcc     0.0495    26.395     9.418     8.804 -0.6162  0.7634 -0.1938
 
              Baa    -0.0360   -19.197    -6.850    -6.404  0.8549 -0.5162  0.0518
     3 H(1)   Bbb    -0.0143    -7.624    -2.720    -2.543 -0.1433 -0.1391  0.9799
              Bcc     0.0503    26.821     9.570     8.947  0.4986  0.8451  0.1929
 
              Baa    -0.8550   -32.975   -11.766   -10.999  0.7961  0.6049 -0.0192
     4 N(14)  Bbb    -0.8159   -31.466   -11.228   -10.496 -0.6052  0.7956 -0.0275
              Bcc     1.6709    64.442    22.994    21.495 -0.0014  0.0335  0.9994
 
              Baa    -0.0774   -41.320   -14.744   -13.783  0.9143  0.4047 -0.0161
     5 H(1)   Bbb    -0.0173    -9.218    -3.289    -3.075  0.0091  0.0192  0.9998
              Bcc     0.0947    50.538    18.033    16.858 -0.4049  0.9143 -0.0139
 

 ---------------------------------------------------------------------------------

 No NMR shielding tensors so no spin-rotation constants.
 Leave Link  601 at Mon Jun 10 11:12:19 2019, MaxMem=   104857600 cpu:               0.1 elap:               0.1
 (Enter /project/6004141/group/g16/g16/l9999.exe)
 1\1\GINC-BELUGA4\FOpt\UB3LYP\6-31G(d,p)\H3N2(2)\RZK\10-Jun-2019\0\\#p 
 opt ub3lyp/6-31g(d,p) scrf=(iefpcm,solvent=acetonitrile) empiricaldisp
 ersion=gd3\\Title Card Required\\0,2\N,-0.9640457945,-1.9148020615,2.6
 861466926\H,-0.672414058,-2.8840374041,2.6452487089\H,-0.8016354908,-1
 .4072072312,1.819838943\N,-0.7120198215,-1.3216745714,3.878365903\H,-0
 .8195910352,-0.3152846517,3.7034421126\\Version=ES64L-G16RevA.03\State
 =2-A\HF=-111.2418188\S2=0.753132\S2-1=0.\S2A=0.750007\RMSD=4.195e-09\R
 MSF=6.849e-05\Dipole=0.1641523,0.1215951,-1.204723\Quadrupole=-1.60599
 76,2.3298267,-0.723829,-0.4565341,-0.6494627,0.43641\PG=C01 [X(H3N2)]\
 \@


 I LOVE MANKIND - IT'S PEOPLE I CAN'T STAND.
     -- LINUS OF PEANUTS
 Job cpu time:       0 days  0 hours  0 minutes 46.4 seconds.
 Elapsed time:       0 days  0 hours  0 minutes 47.4 seconds.
 File lengths (MBytes):  RWF=     26 Int=      0 D2E=      0 Chk=      2 Scr=      2
 Normal termination of Gaussian 16 at Mon Jun 10 11:12:20 2019.
