 Entering Gaussian System, Link 0=g16
 Initial command:
 /project/6004141/group/g16/g16/l1.exe "/scratch/rzk/Gau-231613.inp" -scrdir="/scratch/rzk/"
 Entering Link 1 = /project/6004141/group/g16/g16/l1.exe PID=    231614.
  
 Copyright (c) 1988,1990,1992,1993,1995,1998,2003,2009,2016,
            Gaussian, Inc.  All Rights Reserved.
  
 This is part of the Gaussian(R) 16 program.  It is based on
 the Gaussian(R) 09 system (copyright 2009, Gaussian, Inc.),
 the Gaussian(R) 03 system (copyright 2003, Gaussian, Inc.),
 the Gaussian(R) 98 system (copyright 1998, Gaussian, Inc.),
 the Gaussian(R) 94 system (copyright 1995, Gaussian, Inc.),
 the Gaussian 92(TM) system (copyright 1992, Gaussian, Inc.),
 the Gaussian 90(TM) system (copyright 1990, Gaussian, Inc.),
 the Gaussian 88(TM) system (copyright 1988, Gaussian, Inc.),
 the Gaussian 86(TM) system (copyright 1986, Carnegie Mellon
 University), and the Gaussian 82(TM) system (copyright 1983,
 Carnegie Mellon University). Gaussian is a federally registered
 trademark of Gaussian, Inc.
  
 This software contains proprietary and confidential information,
 including trade secrets, belonging to Gaussian, Inc.
  
 This software is provided under written license and may be
 used, copied, transmitted, or stored only in accord with that
 written license.
  
 The following legend is applicable only to US Government
 contracts under FAR:
  
                    RESTRICTED RIGHTS LEGEND
  
 Use, reproduction and disclosure by the US Government is
 subject to restrictions as set forth in subparagraphs (a)
 and (c) of the Commercial Computer Software - Restricted
 Rights clause in FAR 52.227-19.
  
 Gaussian, Inc.
 340 Quinnipiac St., Bldg. 40, Wallingford CT 06492
  
  
 ---------------------------------------------------------------
 Warning -- This program may not be used in any manner that
 competes with the business of Gaussian, Inc. or will provide
 assistance to any competitor of Gaussian, Inc.  The licensee
 of this program is prohibited from giving any competitor of
 Gaussian, Inc. access to this program.  By using this program,
 the user acknowledges that Gaussian, Inc. is engaged in the
 business of creating and licensing software in the field of
 computational chemistry and represents and warrants to the
 licensee that it is not a competitor of Gaussian, Inc. and that
 it will not use this program in any manner prohibited above.
 ---------------------------------------------------------------
  

 Cite this work as:
 Gaussian 16, Revision A.03,
 M. J. Frisch, G. W. Trucks, H. B. Schlegel, G. E. Scuseria, 
 M. A. Robb, J. R. Cheeseman, G. Scalmani, V. Barone, 
 G. A. Petersson, H. Nakatsuji, X. Li, M. Caricato, A. V. Marenich, 
 J. Bloino, B. G. Janesko, R. Gomperts, B. Mennucci, H. P. Hratchian, 
 J. V. Ortiz, A. F. Izmaylov, J. L. Sonnenberg, D. Williams-Young, 
 F. Ding, F. Lipparini, F. Egidi, J. Goings, B. Peng, A. Petrone, 
 T. Henderson, D. Ranasinghe, V. G. Zakrzewski, J. Gao, N. Rega, 
 G. Zheng, W. Liang, M. Hada, M. Ehara, K. Toyota, R. Fukuda, 
 J. Hasegawa, M. Ishida, T. Nakajima, Y. Honda, O. Kitao, H. Nakai, 
 T. Vreven, K. Throssell, J. A. Montgomery, Jr., J. E. Peralta, 
 F. Ogliaro, M. J. Bearpark, J. J. Heyd, E. N. Brothers, K. N. Kudin, 
 V. N. Staroverov, T. A. Keith, R. Kobayashi, J. Normand, 
 K. Raghavachari, A. P. Rendell, J. C. Burant, S. S. Iyengar, 
 J. Tomasi, M. Cossi, J. M. Millam, M. Klene, C. Adamo, R. Cammi, 
 J. W. Ochterski, R. L. Martin, K. Morokuma, O. Farkas, 
 J. B. Foresman, and D. J. Fox, Gaussian, Inc., Wallingford CT, 2016.
 
 ******************************************
 Gaussian 16:  ES64L-G16RevA.03 25-Dec-2016
                15-Jun-2019 
 ******************************************
 %NProcShared=40
 Will use up to   40 processors via shared memory.
 %chk=AABH-irc-end-freq-prod.chk
 ----------------------------------------------------------------------
 #p freq ub3lyp/6-31g(d,p) scrf=(iefpcm,solvent=acetonitrile) guess=(mi
 x,always) empiricaldispersion=gd3
 ----------------------------------------------------------------------
 1/10=4,30=1,38=1/1,3;
 2/12=2,17=6,18=5,40=1/2;
 3/5=1,6=6,7=101,11=2,25=1,30=1,70=2201,71=2,72=2,74=-5,116=2,124=31,140=1/1,2,3;
 4/13=-1/1;
 5/5=2,38=5,53=2,98=1/2;
 8/6=4,10=90,11=11/1;
 11/6=1,8=1,9=11,15=111,16=1/1,2,10;
 10/6=1/2;
 6/7=2,8=2,9=2,10=2,28=1/1;
 7/8=1,10=1,25=1/1,2,3,16;
 1/10=4,30=1/3;
 99//99;
 Leave Link    1 at Sat Jun 15 00:17:00 2019, MaxMem=           0 cpu:               5.7 elap:               0.2
 (Enter /project/6004141/group/g16/g16/l101.exe)
 -------------------
 Title Card Required
 -------------------
 Symbolic Z-matrix:
 Charge =  0 Multiplicity = 1
 C                     0.84182  -1.03769   0.93704 
 H                    -4.11731  -2.54064  -1.95192 
 C                    -0.48766  -0.88648   0.0736 
 O                    -1.39213  -1.78078   0.74167 
 O                     1.12352  -2.44213   0.99893 
 N                    -3.78794  -1.23332  -0.70868 
 H                    -4.09752  -0.285    -0.43307 
 N                    -4.4552   -1.59586  -1.69199 
 H                     0.25035  -2.852     1.11902 
 H                    -2.23252  -1.78691   0.2338 
 C                     0.6293   -0.54119   2.37735 
 H                     0.40646   0.52544   2.43151 
 H                    -0.20563  -1.08374   2.82563 
 H                     1.53476  -0.74178   2.95544 
 C                    -0.27094  -1.40585  -1.357 
 H                    -1.21517  -1.36939  -1.90705 
 H                     0.47101  -0.82536  -1.90652 
 H                     0.07498  -2.43966  -1.31003 
 C                     2.03799  -0.35682   0.27586 
 C                     2.93368  -1.10012  -0.50651 
 C                     2.26717   1.01999   0.41845 
 C                     4.01989  -0.48668  -1.13279 
 H                     2.77136  -2.16519  -0.61617 
 C                     3.35085   1.63622  -0.20999 
 H                     1.59256   1.62503   1.01237 
 C                     4.23309   0.88582  -0.98929 
 H                     4.70083  -1.08395  -1.73274 
 H                     3.50433   2.70447  -0.08678 
 H                     5.07798   1.36436  -1.47588 
 C                    -1.04896   0.53892   0.08227 
 C                    -2.01414   0.90764   1.03242 
 C                    -0.63141   1.50668  -0.84353 
 C                    -2.54653   2.19752   1.05698 
 H                    -2.34988   0.16761   1.74949 
 C                    -1.15862   2.7994   -0.81852 
 H                     0.11815   1.26112  -1.58623 
 C                    -2.12007   3.15136   0.13019 
 H                    -3.29497   2.45543   1.80081 
 H                    -0.81779   3.53011  -1.54633 
 H                    -2.5339    4.15525   0.14545 
 
 ITRead=  0  0  0  0  0  0  0  0  0  0  0  0  0  0  0  0  0  0  0  0
 ITRead=  0  0  0  0  0  0  0  0  0  0  0  0  0  0  0  0  0  0  0  0
 MicOpt= -1 -1 -1 -1 -1 -1 -1 -1 -1 -1 -1 -1 -1 -1 -1 -1 -1 -1 -1 -1
 MicOpt= -1 -1 -1 -1 -1 -1 -1 -1 -1 -1 -1 -1 -1 -1 -1 -1 -1 -1 -1 -1
 NAtoms=     40 NQM=       40 NQMF=       0 NMMI=      0 NMMIF=      0
                NMic=       0 NMicF=      0.
                    Isotopes and Nuclear Properties:
 (Nuclear quadrupole moments (NQMom) in fm**2, nuclear magnetic moments (NMagM)
  in nuclear magnetons)

  Atom         1           2           3           4           5           6           7           8           9          10
 IAtWgt=          12           1          12          16          16          14           1          14           1           1
 AtmWgt=  12.0000000   1.0078250  12.0000000  15.9949146  15.9949146  14.0030740   1.0078250  14.0030740   1.0078250   1.0078250
 NucSpn=           0           1           0           0           0           2           1           2           1           1
 AtZEff=  -0.0000000  -0.0000000  -0.0000000  -0.0000000  -0.0000000  -0.0000000  -0.0000000  -0.0000000  -0.0000000  -0.0000000
 NQMom=    0.0000000   0.0000000   0.0000000   0.0000000   0.0000000   2.0440000   0.0000000   2.0440000   0.0000000   0.0000000
 NMagM=    0.0000000   2.7928460   0.0000000   0.0000000   0.0000000   0.4037610   2.7928460   0.4037610   2.7928460   2.7928460
 AtZNuc=   6.0000000   1.0000000   6.0000000   8.0000000   8.0000000   7.0000000   1.0000000   7.0000000   1.0000000   1.0000000

  Atom        11          12          13          14          15          16          17          18          19          20
 IAtWgt=          12           1           1           1          12           1           1           1          12          12
 AtmWgt=  12.0000000   1.0078250   1.0078250   1.0078250  12.0000000   1.0078250   1.0078250   1.0078250  12.0000000  12.0000000
 NucSpn=           0           1           1           1           0           1           1           1           0           0
 AtZEff=  -0.0000000  -0.0000000  -0.0000000  -0.0000000  -0.0000000  -0.0000000  -0.0000000  -0.0000000  -0.0000000  -0.0000000
 NQMom=    0.0000000   0.0000000   0.0000000   0.0000000   0.0000000   0.0000000   0.0000000   0.0000000   0.0000000   0.0000000
 NMagM=    0.0000000   2.7928460   2.7928460   2.7928460   0.0000000   2.7928460   2.7928460   2.7928460   0.0000000   0.0000000
 AtZNuc=   6.0000000   1.0000000   1.0000000   1.0000000   6.0000000   1.0000000   1.0000000   1.0000000   6.0000000   6.0000000

  Atom        21          22          23          24          25          26          27          28          29          30
 IAtWgt=          12          12           1          12           1          12           1           1           1          12
 AtmWgt=  12.0000000  12.0000000   1.0078250  12.0000000   1.0078250  12.0000000   1.0078250   1.0078250   1.0078250  12.0000000
 NucSpn=           0           0           1           0           1           0           1           1           1           0
 AtZEff=  -0.0000000  -0.0000000  -0.0000000  -0.0000000  -0.0000000  -0.0000000  -0.0000000  -0.0000000  -0.0000000  -0.0000000
 NQMom=    0.0000000   0.0000000   0.0000000   0.0000000   0.0000000   0.0000000   0.0000000   0.0000000   0.0000000   0.0000000
 NMagM=    0.0000000   0.0000000   2.7928460   0.0000000   2.7928460   0.0000000   2.7928460   2.7928460   2.7928460   0.0000000
 AtZNuc=   6.0000000   6.0000000   1.0000000   6.0000000   1.0000000   6.0000000   1.0000000   1.0000000   1.0000000   6.0000000

  Atom        31          32          33          34          35          36          37          38          39          40
 IAtWgt=          12          12          12           1          12           1          12           1           1           1
 AtmWgt=  12.0000000  12.0000000  12.0000000   1.0078250  12.0000000   1.0078250  12.0000000   1.0078250   1.0078250   1.0078250
 NucSpn=           0           0           0           1           0           1           0           1           1           1
 AtZEff=  -0.0000000  -0.0000000  -0.0000000  -0.0000000  -0.0000000  -0.0000000  -0.0000000  -0.0000000  -0.0000000  -0.0000000
 NQMom=    0.0000000   0.0000000   0.0000000   0.0000000   0.0000000   0.0000000   0.0000000   0.0000000   0.0000000   0.0000000
 NMagM=    0.0000000   0.0000000   0.0000000   2.7928460   0.0000000   2.7928460   0.0000000   2.7928460   2.7928460   2.7928460
 AtZNuc=   6.0000000   6.0000000   6.0000000   1.0000000   6.0000000   1.0000000   6.0000000   1.0000000   1.0000000   1.0000000
 Leave Link  101 at Sat Jun 15 00:17:00 2019, MaxMem=   104857600 cpu:               3.9 elap:               0.1
 (Enter /project/6004141/group/g16/g16/l103.exe)

 GradGradGradGradGradGradGradGradGradGradGradGradGradGradGradGradGradGrad
 Berny optimization.
 Initialization pass.
 Trust Radius=3.00D-01 FncErr=1.00D-07 GrdErr=1.00D-07 EigMax=2.50D+02 EigMin=1.00D-04
 Number of steps in this run=      2 maximum allowed number of steps=      2.
 GradGradGradGradGradGradGradGradGradGradGradGradGradGradGradGradGradGrad

 Leave Link  103 at Sat Jun 15 00:17:00 2019, MaxMem=   104857600 cpu:               0.9 elap:               0.0
 (Enter /project/6004141/group/g16/g16/l202.exe)
                          Input orientation:                          
 ---------------------------------------------------------------------
 Center     Atomic      Atomic             Coordinates (Angstroms)
 Number     Number       Type             X           Y           Z
 ---------------------------------------------------------------------
      1          6           0        0.841821   -1.037688    0.937036
      2          1           0       -4.117307   -2.540642   -1.951924
      3          6           0       -0.487664   -0.886483    0.073599
      4          8           0       -1.392130   -1.780780    0.741669
      5          8           0        1.123521   -2.442132    0.998926
      6          7           0       -3.787935   -1.233320   -0.708682
      7          1           0       -4.097516   -0.284995   -0.433070
      8          7           0       -4.455201   -1.595855   -1.691989
      9          1           0        0.250347   -2.852004    1.119022
     10          1           0       -2.232522   -1.786907    0.233798
     11          6           0        0.629302   -0.541193    2.377351
     12          1           0        0.406464    0.525440    2.431508
     13          1           0       -0.205626   -1.083736    2.825629
     14          1           0        1.534761   -0.741784    2.955443
     15          6           0       -0.270942   -1.405854   -1.357004
     16          1           0       -1.215167   -1.369392   -1.907049
     17          1           0        0.471011   -0.825355   -1.906519
     18          1           0        0.074981   -2.439660   -1.310029
     19          6           0        2.037991   -0.356821    0.275860
     20          6           0        2.933684   -1.100119   -0.506510
     21          6           0        2.267165    1.019995    0.418453
     22          6           0        4.019894   -0.486675   -1.132789
     23          1           0        2.771362   -2.165194   -0.616166
     24          6           0        3.350847    1.636217   -0.209986
     25          1           0        1.592560    1.625027    1.012370
     26          6           0        4.233089    0.885820   -0.989285
     27          1           0        4.700826   -1.083949   -1.732743
     28          1           0        3.504334    2.704467   -0.086784
     29          1           0        5.077980    1.364363   -1.475883
     30          6           0       -1.048959    0.538921    0.082268
     31          6           0       -2.014141    0.907636    1.032421
     32          6           0       -0.631413    1.506680   -0.843528
     33          6           0       -2.546534    2.197521    1.056976
     34          1           0       -2.349883    0.167612    1.749488
     35          6           0       -1.158618    2.799403   -0.818521
     36          1           0        0.118154    1.261116   -1.586233
     37          6           0       -2.120072    3.151360    0.130187
     38          1           0       -3.294973    2.455428    1.800808
     39          1           0       -0.817786    3.530113   -1.546327
     40          1           0       -2.533895    4.155248    0.145448
 ---------------------------------------------------------------------
                    Distance matrix (angstroms):
                    1          2          3          4          5
     1  C    0.000000
     2  H    5.932783   0.000000
     3  C    1.592456   4.473622   0.000000
     4  O    2.362391   3.906331   1.436713   0.000000
     5  O    1.433753   6.015272   2.423260   2.613822   0.000000
     6  N    4.917449   1.833910   3.409406   2.853614   5.338497
     7  H    5.180810   2.719421   3.694527   3.307038   5.827785
     8  N    5.939846   1.036514   4.400211   3.916541   6.251348
     9  H    1.916951   5.348276   2.345387   1.996909   0.972034
    10  H    3.241521   2.982937   1.970014   0.981952   3.503964
    11  C    1.538239   6.728352   2.583430   2.880663   2.399558
    12  H    2.205981   7.005700   2.890108   3.377743   3.372380
    13  H    2.160104   6.344197   2.773468   2.497309   2.636042
    14  H    2.154459   7.698312   3.523658   3.814053   2.624550
    15  C    2.576123   4.054158   1.537316   2.408747   2.927252
    16  H    3.525627   3.129897   2.164585   2.686310   3.881356
    17  H    2.875481   4.898666   2.200832   3.375949   3.388414
    18  H    2.757330   4.242347   2.154844   2.606914   2.535886
    19  C    1.526943   6.900709   2.588510   3.743043   2.389059
    20  C    2.542364   7.340354   3.476750   4.553451   2.709986
    21  C    2.556285   7.684940   3.367887   4.619443   3.692045
    22  C    3.832485   8.432307   4.683300   5.871823   4.093531
    23  H    2.721550   7.027017   3.568211   4.396152   2.323918
    24  C    3.841958   8.732344   4.602022   5.922613   4.801602
    25  H    2.767550   7.664360   3.393568   4.536648   4.094137
    26  C    4.348712   9.077248   5.153279   6.461428   4.969674
    27  H    4.692737   8.940328   5.497481   6.613048   4.701467
    28  H    4.705413   9.438185   5.371843   6.691721   5.773605
    29  H    5.434802  10.001449   6.200290   7.528066   6.020949
    30  C    2.606026   4.799625   1.531961   2.435896   3.800869
    31  C    3.456863   5.021976   2.543292   2.774710   4.589879
    32  C    3.437242   5.455347   2.566908   3.728127   4.697611
    33  C    4.686354   5.828464   3.836282   4.154389   5.916000
    34  H    3.507107   4.915168   2.718010   2.393579   4.408928
    35  C    4.669797   6.209229   3.851209   4.844254   5.998747
    36  H    3.489281   5.703177   2.781050   4.117428   4.626862
    37  C    5.193452   6.381459   4.355701   5.022929   6.524014
    38  H    5.482794   6.302376   4.693890   4.763197   6.644712
    39  H    5.457673   6.921374   4.715873   5.811229   6.776038
    40  H    6.244090   7.193129   5.441624   6.074170   7.591478
                    6          7          8          9         10
     6  N    0.000000
     7  H    1.034951   0.000000
     8  N    1.242404   1.852342   0.000000
     9  H    4.718936   5.282276   5.623333   0.000000
    10  H    1.901062   2.485690   2.947110   2.843007   0.000000
    11  C    5.432736   5.505171   6.597273   2.658354   3.786378
    12  H    5.526935   5.398930   6.718549   3.626861   4.140184
    13  H    5.034547   5.138474   6.223345   2.499438   3.364572
    14  H    6.480626   6.588871   7.629398   3.078180   4.763618
    15  C    3.580409   4.093000   4.201945   2.914412   2.554143
    16  H    2.841432   3.414157   3.255051   3.674639   2.406773
    17  H    4.442957   4.830578   4.990717   3.648273   3.579753
    18  H    4.091332   4.777172   4.623900   2.470034   2.852027
    19  C    5.973189   6.176746   6.897041   3.183164   4.503798
    20  C    6.725978   7.078672   7.499782   3.593293   5.263974
    21  C    6.558361   6.552652   7.515773   4.421621   5.306598
    22  C    7.854905   8.150008   8.565642   4.987476   6.530763
    23  H    6.625808   7.123914   7.328353   3.136575   5.089636
    24  C    7.710068   7.695384   8.577704   5.614578   6.564201
    25  H    6.331026   6.173690   7.366346   4.675117   5.184469
    26  C    8.300983   8.430846   9.063051   5.854786   7.102361
    27  H    8.551612   8.929630   9.170417   5.573629   7.241046
    28  H    8.310843   8.175874   9.188234   6.551089   7.292923
    29  H    9.270437   9.380702   9.984545   6.915007   8.142294
    30  C    3.356848   3.199705   4.394057   3.776430   2.614050
    31  C    3.280469   2.812558   4.432680   4.389795   2.818874
    32  C    4.182035   3.923321   4.996695   4.860785   3.817315
    33  C    4.053307   3.284611   5.058608   5.772703   4.080673
    34  H    3.173831   2.832425   4.402947   4.034447   2.476133
    35  C    4.815416   4.277757   5.563155   6.138213   4.826477
    36  H    4.716973   4.635959   5.393426   4.924798   4.257773
    37  C    4.765594   4.004507   5.595463   6.529706   4.940634
    38  H    4.488587   3.625494   5.473450   6.418953   4.645614
    39  H    5.675714   5.152768   6.287094   6.998315   5.782822
    40  H    5.598109   4.742926   6.335833   7.602725   5.950449
                   11         12         13         14         15
    11  C    0.000000
    12  H    1.091007   0.000000
    13  H    1.091976   1.766192   0.000000
    14  H    1.092833   1.775787   1.778407   0.000000
    15  C    3.937447   4.305996   4.195527   4.722155   0.000000
    16  H    4.737517   5.004313   4.847578   5.621372   1.093362
    17  H    4.296201   4.543929   4.787256   4.977672   1.090615
    18  H    4.184282   4.785478   4.361300   4.817467   1.091157
    19  C    2.536664   2.843780   3.473261   2.753471   3.016270
    20  C    3.733528   4.202527   4.578066   3.751068   3.329631
    21  C    2.992856   2.785531   4.041643   3.174366   3.934333
    22  C    4.880591   5.175468   5.820702   4.791097   4.393909
    23  H    4.023300   4.703251   4.677388   4.038771   3.221964
    24  C    4.340764   4.108614   5.409399   4.355800   4.866950
    25  H    2.735607   2.151713   3.722738   3.062788   4.274671
    26  C    5.133993   5.145363   6.175347   5.048856   5.066881
    27  H    5.810746   6.194567   6.697166   5.667463   4.996327
    28  H    4.987192   4.548269   6.049499   5.001101   5.723714
    29  H    6.186218   6.147728   7.239661   6.052017   6.024882
    30  C    3.041482   2.763579   3.297007   4.070743   2.541449
    31  C    3.300869   2.821852   3.232937   4.360425   3.755041
    32  C    4.019608   3.572937   4.511570   4.917325   2.979337
    33  C    4.396576   3.661337   4.401662   5.375933   4.897952
    34  H    3.126045   2.861930   2.705881   4.167948   4.055624
    35  C    4.956797   4.264162   5.409879   5.834132   4.331526
    36  H    4.384015   4.094702   5.006764   5.161899   2.704934
    37  C    5.122866   4.309863   5.372760   6.041229   5.138017
    38  H    4.971124   4.221762   4.808327   5.906071   5.833184
    39  H    5.836510   5.133227   6.385636   6.636981   4.969774
    40  H    6.086359   5.200701   6.328599   6.959235   6.189037
                   16         17         18         19         20
    16  H    0.000000
    17  H    1.771771   0.000000
    18  H    1.779435   1.765962   0.000000
    19  C    4.046409   2.727220   3.272105   0.000000
    20  C    4.387138   2.846099   3.257637   1.402448   0.000000
    21  C    4.821179   3.469435   4.445507   1.403024   2.407216
    22  C    5.365122   3.648004   4.405440   2.434973   1.395848
    23  H    4.265219   2.958343   2.797722   2.145637   1.082939
    24  C    5.723827   4.151026   5.343610   2.435536   2.783790
    25  H    5.037150   3.972676   4.921205   2.160689   3.395884
    26  C    5.967559   4.233517   5.334000   2.821915   2.421875
    27  H    5.925440   4.241274   4.838913   3.413780   2.150976
    28  H    6.494873   4.997212   6.302288   3.413672   3.869972
    29  H    6.874811   5.119031   6.287137   3.908019   3.407545
    30  C    2.761642   2.850760   3.474720   3.220107   4.346787
    31  C    3.803117   4.220972   4.588670   4.311729   5.557010
    32  C    3.121480   2.789924   4.036114   3.442584   4.429323
    33  C    4.825023   5.198621   5.829108   5.305909   6.584201
    34  H    4.125557   4.723327   4.694516   4.658331   5.883260
    35  C    4.308938   4.120473   5.404732   4.623606   5.661321
    36  H    2.966520   2.140199   3.711320   3.125841   3.829940
    37  C    5.040474   5.164895   6.176729   5.442246   6.634825
    38  H    5.718658   6.220164   6.707890   6.218900   7.534043
    39  H    4.928811   4.556406   6.040783   5.155976   6.049281
    40  H    6.039324   6.168179   7.239990   6.424789   7.611725
                   21         22         23         24         25
    21  C    0.000000
    22  C    2.783607   0.000000
    23  H    3.386751   2.154799   0.000000
    24  C    1.396077   2.409535   3.866718   0.000000
    25  H    1.083463   3.866904   4.290394   2.141460   0.000000
    26  C    2.421691   1.396348   3.403608   1.395978   3.394914
    27  H    3.870004   1.086439   2.477633   3.397136   4.953334
    28  H    2.150185   3.397546   4.952887   1.086230   2.455241
    29  H    3.407019   2.159537   4.303182   2.158562   4.290396
    30  C    3.367660   5.312389   4.732325   4.543981   3.003721
    31  C    4.326565   6.560626   5.921247   5.554953   3.677410
    32  C    3.198627   5.068707   5.011310   4.034421   2.899038
    33  C    4.996597   7.424147   7.079033   6.057999   4.178736
    34  H    4.880097   7.022085   6.104544   6.204407   4.267348
    35  C    4.053688   6.141177   6.335054   4.696657   3.507179
    36  H    2.948755   4.299298   4.440737   3.533421   3.009824
    37  C    4.886068   7.247730   7.262845   5.687032   4.109936
    38  H    5.908363   8.412446   7.999521   6.991518   5.019878
    39  H    4.435986   6.301488   6.795859   4.769712   3.998256
    40  H    5.740603   8.132250   8.286965   6.411087   4.917439
                   26         27         28         29         30
    26  C    0.000000
    27  H    2.156733   0.000000
    28  H    2.157097   4.300334   0.000000
    29  H    1.086104   2.490473   2.490349   0.000000
    30  C    5.400796   6.244037   5.044863   6.375623   0.000000
    31  C    6.566251   7.530161   5.910566   7.536469   1.403680
    32  C    4.906128   5.994567   4.371700   5.746068   1.402854
    33  C    7.202155   8.430587   6.178850   8.077298   2.437979
    34  H    7.166046   7.962715   6.639231   8.185865   2.147067
    35  C    5.723763   7.088675   4.720972   6.433243   2.435821
    36  H    4.174911   5.149920   3.974648   4.962128   2.160466
    37  C    6.837291   8.242148   5.646303   7.588463   2.823901
    38  H    8.180465   9.431117   7.060850   9.057233   3.416278
    39  H    5.728344   7.195790   4.636020   6.281361   3.413648
    40  H    7.600582   9.127868   6.214411   8.267914   3.909840
                   31         32         33         34         35
    31  C    0.000000
    32  C    2.406237   0.000000
    33  C    1.395653   2.785115   0.000000
    34  H    1.083763   3.386735   2.153782   0.000000
    35  C    2.781490   1.396318   2.409577   3.865243   0.000000
    36  H    3.395435   1.083403   3.868329   4.291153   2.141461
    37  C    2.420650   2.422643   1.396645   3.402602   1.395820
    38  H    2.150955   3.871329   1.086261   2.475870   3.397531
    39  H    3.867634   2.150103   3.397287   4.951377   1.086188
    40  H    3.406442   3.407701   2.159569   4.302098   2.158457
                   36         37         38         39         40
    36  H    0.000000
    37  C    3.395405   0.000000
    38  H    4.954580   2.157704   0.000000
    39  H    2.454776   2.156409   4.300548   0.000000
    40  H    4.290464   1.085944   2.491755   2.489564   0.000000
 Stoichiometry    C16H20N2O2
 Framework group  C1[X(C16H20N2O2)]
 Deg. of freedom   114
 Full point group                 C1      NOp   1
 Largest Abelian subgroup         C1      NOp   1
 Largest concise Abelian subgroup C1      NOp   1
                         Standard orientation:                         
 ---------------------------------------------------------------------
 Center     Atomic      Atomic             Coordinates (Angstroms)
 Number     Number       Type             X           Y           Z
 ---------------------------------------------------------------------
      1          6           0        0.841821   -1.037688    0.937036
      2          1           0       -4.117307   -2.540642   -1.951924
      3          6           0       -0.487664   -0.886483    0.073599
      4          8           0       -1.392130   -1.780780    0.741669
      5          8           0        1.123521   -2.442132    0.998926
      6          7           0       -3.787935   -1.233320   -0.708682
      7          1           0       -4.097516   -0.284995   -0.433070
      8          7           0       -4.455201   -1.595855   -1.691989
      9          1           0        0.250347   -2.852004    1.119022
     10          1           0       -2.232522   -1.786907    0.233798
     11          6           0        0.629302   -0.541193    2.377351
     12          1           0        0.406464    0.525440    2.431508
     13          1           0       -0.205626   -1.083736    2.825629
     14          1           0        1.534761   -0.741784    2.955443
     15          6           0       -0.270942   -1.405854   -1.357004
     16          1           0       -1.215167   -1.369392   -1.907049
     17          1           0        0.471011   -0.825355   -1.906519
     18          1           0        0.074981   -2.439660   -1.310029
     19          6           0        2.037991   -0.356821    0.275860
     20          6           0        2.933684   -1.100119   -0.506510
     21          6           0        2.267165    1.019995    0.418453
     22          6           0        4.019894   -0.486675   -1.132789
     23          1           0        2.771362   -2.165194   -0.616166
     24          6           0        3.350847    1.636217   -0.209986
     25          1           0        1.592560    1.625027    1.012370
     26          6           0        4.233089    0.885820   -0.989285
     27          1           0        4.700826   -1.083949   -1.732743
     28          1           0        3.504334    2.704467   -0.086784
     29          1           0        5.077980    1.364363   -1.475883
     30          6           0       -1.048959    0.538921    0.082268
     31          6           0       -2.014141    0.907636    1.032421
     32          6           0       -0.631413    1.506680   -0.843528
     33          6           0       -2.546534    2.197521    1.056976
     34          1           0       -2.349883    0.167612    1.749488
     35          6           0       -1.158618    2.799403   -0.818521
     36          1           0        0.118154    1.261116   -1.586233
     37          6           0       -2.120072    3.151360    0.130187
     38          1           0       -3.294973    2.455428    1.800808
     39          1           0       -0.817786    3.530113   -1.546327
     40          1           0       -2.533895    4.155248    0.145448
 ---------------------------------------------------------------------
 Rotational constants (GHZ):           0.4926836           0.2575328           0.2123783
 Leave Link  202 at Sat Jun 15 00:17:00 2019, MaxMem=   104857600 cpu:               1.7 elap:               0.1
 (Enter /project/6004141/group/g16/g16/l301.exe)
 Standard basis: 6-31G(d,p) (6D, 7F)
 Ernie: Thresh=  0.10000D-02 Tol=  0.10000D-05 Strict=F.
 There are   400 symmetry adapted cartesian basis functions of A   symmetry.
 There are   400 symmetry adapted basis functions of A   symmetry.
   400 basis functions,   700 primitive gaussians,   400 cartesian basis functions
    73 alpha electrons       73 beta electrons
       nuclear repulsion energy      1594.8165056713 Hartrees.
 IExCor=  402 DFT=T Ex+Corr=B3LYP ExCW=0 ScaHFX=  0.200000
 ScaDFX=  0.800000  0.720000  1.000000  0.810000 ScalE2=  1.000000  1.000000
 IRadAn=      5 IRanWt=     -1 IRanGd=            0 ICorTp=0 IEmpDi=131
 NAtoms=   40 NActive=   40 NUniq=   40 SFac= 1.00D+00 NAtFMM=   60 NAOKFM=F Big=F
 Integral buffers will be    131072 words long.
 Raffenetti 2 integral format.
 Two-electron integral symmetry is turned on.
 R6Disp:  Grimme-D3 Dispersion energy=       -0.0490513753 Hartrees.
 Nuclear repulsion after empirical dispersion term =     1594.7674542960 Hartrees.
 Force inversion solution in PCM.
 ------------------------------------------------------------------------------
 Polarizable Continuum Model (PCM)
 =================================
 Model                : PCM.
 Atomic radii         : UFF (Universal Force Field).
 Polarization charges : Total charges.
 Charge compensation  : None.
 Solution method      : Matrix inversion.
 Cavity type          : Scaled VdW (van der Waals Surface) (Alpha=1.100).
 Cavity algorithm     : GePol (No added spheres)
                        Default sphere list used, NSphG=   40.
                        Lebedev-Laikov grids with approx.  5.0 points / Ang**2.
                        Smoothing algorithm: York/Karplus (Gamma=1.0000).
                        Polarization charges: spherical gaussians, with
                                              point-specific exponents (IZeta= 3).
                        Self-potential: point-specific (ISelfS= 7).
                        Self-field    : sphere-specific E.n sum rule (ISelfD= 2).
 1st derivatives      : Analytical E(r).r(x)/FMM algorithm (CHGder, D1EAlg=3).
                        Cavity 1st derivative terms included.
 2nd derivatives      : Analytical E(r).r(xy)/FMM algorithm (CHGder, D2EAlg=3).
                        Cavity 2nd derivative terms included.
 Solvent              : Acetonitrile, Eps=  35.688000 Eps(inf)=   1.806874
 ------------------------------------------------------------------------------
 GePol: Number of generator spheres                  =      40
 GePol: Total number of spheres                      =      40
 GePol: Number of exposed spheres                    =      39 ( 97.50%)
 GePol: Number of points                             =    2706
 GePol: Average weight of points                     =       0.13
 GePol: Minimum weight of points                     =   0.11D-09
 GePol: Maximum weight of points                     =    0.20577
 GePol: Number of points with low weight             =     170
 GePol: Fraction of low-weight points (<1% of avg)   =       6.28%
 GePol: Cavity surface area                          =    352.966 Ang**2
 GePol: Cavity volume                                =    400.777 Ang**3
 Leave Link  301 at Sat Jun 15 00:17:00 2019, MaxMem=   104857600 cpu:               5.6 elap:               0.2
 (Enter /project/6004141/group/g16/g16/l302.exe)
 NPDir=0 NMtPBC=     1 NCelOv=     1 NCel=       1 NClECP=     1 NCelD=      1
         NCelK=      1 NCelE2=     1 NClLst=     1 CellRange=     0.0.
 One-electron integrals computed using PRISM.
 One-electron integral symmetry used in STVInt
 PrsmSu:  requested number of processors reduced to:  27 ShMem   1 Linda.
 NBasis=   400 RedAO= T EigKep=  4.41D-04  NBF=   400
 NBsUse=   400 1.00D-06 EigRej= -1.00D+00 NBFU=   400
 Precomputing XC quadrature grid using
 IXCGrd= 4 IRadAn=           5 IRanWt=          -1 IRanGd=           0 AccXCQ= 0.00D+00.
 Generated NRdTot=       0 NPtTot=           0 NUsed=           0 NTot=          32
 NSgBfM=   398   398   398   398   398 MxSgAt=    40 MxSgA2=    40.
 Leave Link  302 at Sat Jun 15 00:17:01 2019, MaxMem=   104857600 cpu:              15.5 elap:               0.4
 (Enter /project/6004141/group/g16/g16/l303.exe)
 DipDrv:  MaxL=1.
 Leave Link  303 at Sat Jun 15 00:17:01 2019, MaxMem=   104857600 cpu:               2.8 elap:               0.1
 (Enter /project/6004141/group/g16/g16/l401.exe)
 ExpMin= 1.61D-01 ExpMax= 5.48D+03 ExpMxC= 8.25D+02 IAcc=3 IRadAn=         5 AccDes= 0.00D+00
 Harris functional with IExCor=  402 and IRadAn=       5 diagonalized for initial guess.
 HarFok:  IExCor=  402 AccDes= 0.00D+00 IRadAn=         5 IDoV= 1 UseB2=F ITyADJ=14
 ICtDFT=  3500011 ScaDFX=  1.000000  1.000000  1.000000  1.000000
 FoFCou: FMM=F IPFlag=           0 FMFlag=      100000 FMFlg1=           0
         NFxFlg=           0 DoJE=T BraDBF=F KetDBF=T FulRan=T
         wScrn=  0.000000 ICntrl=       500 IOpCl=  0 I1Cent=   200000004 NGrid=           0
         NMat0=    1 NMatS0=      1 NMatT0=    0 NMatD0=    1 NMtDS0=    0 NMtDT0=    0
 Petite list used in FoFCou.
 Harris En= -881.750263274304    
 JPrj=0 DoOrth=F DoCkMO=T.
 Mixing orbitals, IMix= 1 IMixAn=  0 NRI=1 NE=   73 Coef=  7.07106781D-01  7.07106781D-01
 Mixing orbitals, IMix= 1 IMixAn=  0 NRI=1 NE=   73 Coef= -7.07106781D-01  7.07106781D-01
 Initial guess <Sx>= 0.0000 <Sy>= 0.0000 <Sz>= 0.0000 <S**2>= 1.0000 S= 0.6180
 Leave Link  401 at Sat Jun 15 00:17:02 2019, MaxMem=   104857600 cpu:              34.0 elap:               0.9
 (Enter /project/6004141/group/g16/g16/l502.exe)
 Integral symmetry usage will be decided dynamically.
 UHF open shell SCF:
 Using DIIS extrapolation, IDIIS=  1040.
 NGot=   104857600 LenX=   104517248 LenY=   104356807
 Requested convergence on RMS density matrix=1.00D-08 within 128 cycles.
 Requested convergence on MAX density matrix=1.00D-06.
 Requested convergence on             energy=1.00D-06.
 No special actions if energy rises.
 Fock matrices will be formed incrementally for  20 cycles.

 Cycle   1  Pass 1  IDiag  1:
 FoFJK:  IHMeth= 1 ICntrl=       0 DoSepK=F KAlg= 0 I1Cent=           0 FoldK=F
 IRaf= 800000000 NMat=       1 IRICut=       1 DoRegI=T DoRafI=F ISym2E= 0 IDoP0=0 IntGTp=1.
 FoFCou: FMM=F IPFlag=           0 FMFlag=      100000 FMFlg1=           0
         NFxFlg=           0 DoJE=F BraDBF=F KetDBF=F FulRan=T
         wScrn=  0.000000 ICntrl=         0 IOpCl=  1 I1Cent=           0 NGrid=           0
         NMat0=    1 NMatS0=      1 NMatT0=    0 NMatD0=    1 NMtDS0=    0 NMtDT0=    0
 Symmetry not used in FoFCou.
 CoulSu:  requested number of processors reduced to:  39 ShMem   1 Linda.
 Inv3:  Mode=1 IEnd=    21967308.
 Iteration    1 A*A^-1 deviation from unit magnitude is 3.33D-15 for   2047.
 Iteration    1 A*A^-1 deviation from orthogonality  is 2.65D-15 for   1729    406.
 Iteration    1 A^-1*A deviation from unit magnitude is 3.44D-15 for   1466.
 Iteration    1 A^-1*A deviation from orthogonality  is 2.33D-15 for   2285   2042.
 CoulSu:  requested number of processors reduced to:  39 ShMem   1 Linda.
 CoulSu:  requested number of processors reduced to:  39 ShMem   1 Linda.
 E= -880.820497272018    
 DIIS: error= 3.05D-02 at cycle   1 NSaved=   1.
 NSaved= 1 IEnMin= 1 EnMin= -880.820497272018     IErMin= 1 ErrMin= 3.05D-02
 ErrMax= 3.05D-02  0.00D+00 EMaxC= 1.00D-01 BMatC= 2.62D+00 BMatP= 2.62D+00
 IDIUse=3 WtCom= 6.95D-01 WtEn= 3.05D-01
 Coeff-Com:  0.100D+01
 Coeff-En:   0.100D+01
 Coeff:      0.100D+01
 Gap=     0.018 Goal=   None    Shift=    0.000
 Gap=     0.024 Goal=   None    Shift=    0.000
 GapD=    0.018 DampG=0.250 DampE=0.500 DampFc=0.2500 IDamp=-1.
 Damping current iteration by 2.50D-01
 RMSDP=5.49D-03 MaxDP=2.18D-01              OVMax= 6.97D-01

 Cycle   2  Pass 1  IDiag  1:
 RMSU=  1.35D-03    CP:  9.85D-01
 E= -881.112881507873     Delta-E=       -0.292384235855 Rises=F Damp=T
 DIIS: error= 1.46D-02 at cycle   2 NSaved=   2.
 NSaved= 2 IEnMin= 2 EnMin= -881.112881507873     IErMin= 2 ErrMin= 1.46D-02
 ErrMax= 1.46D-02  0.00D+00 EMaxC= 1.00D-01 BMatC= 5.70D-01 BMatP= 2.62D+00
 IDIUse=3 WtCom= 8.54D-01 WtEn= 1.46D-01
 Coeff-Com: -0.458D+00 0.146D+01
 Coeff-En:   0.000D+00 0.100D+01
 Coeff:     -0.391D+00 0.139D+01
 Gap=     0.003 Goal=   None    Shift=    0.000
 Gap=     0.004 Goal=   None    Shift=    0.000
 RMSDP=2.53D-03 MaxDP=9.39D-02 DE=-2.92D-01 OVMax= 7.79D-01

 Cycle   3  Pass 1  IDiag  1:
 RMSU=  2.37D-03    CP:  9.56D-01  1.56D+00
 E= -881.628521395578     Delta-E=       -0.515639887705 Rises=F Damp=F
 DIIS: error= 2.69D-02 at cycle   3 NSaved=   3.
 NSaved= 3 IEnMin= 3 EnMin= -881.628521395578     IErMin= 2 ErrMin= 1.46D-02
 ErrMax= 2.69D-02  0.00D+00 EMaxC= 1.00D-01 BMatC= 4.02D-01 BMatP= 5.70D-01
 IDIUse=3 WtCom= 7.31D-01 WtEn= 2.69D-01
 Coeff-Com: -0.272D+00 0.791D+00 0.481D+00
 Coeff-En:   0.000D+00 0.000D+00 0.100D+01
 Coeff:     -0.199D+00 0.579D+00 0.620D+00
 Gap=     0.253 Goal=   None    Shift=    0.000
 Gap=     0.254 Goal=   None    Shift=    0.000
 RMSDP=9.96D-04 MaxDP=6.89D-02 DE=-5.16D-01 OVMax= 9.92D-02

 Cycle   4  Pass 1  IDiag  1:
 RMSU=  8.50D-04    CP:  9.61D-01  1.47D+00  7.89D-01
 E= -881.714915479931     Delta-E=       -0.086394084353 Rises=F Damp=F
 DIIS: error= 6.26D-03 at cycle   4 NSaved=   4.
 NSaved= 4 IEnMin= 4 EnMin= -881.714915479931     IErMin= 4 ErrMin= 6.26D-03
 ErrMax= 6.26D-03  0.00D+00 EMaxC= 1.00D-01 BMatC= 4.07D-02 BMatP= 4.02D-01
 IDIUse=3 WtCom= 9.37D-01 WtEn= 6.26D-02
 Coeff-Com: -0.788D-01 0.167D+00 0.257D+00 0.655D+00
 Coeff-En:   0.000D+00 0.000D+00 0.000D+00 0.100D+01
 Coeff:     -0.739D-01 0.157D+00 0.241D+00 0.676D+00
 Gap=     0.178 Goal=   None    Shift=    0.000
 Gap=     0.178 Goal=   None    Shift=    0.000
 RMSDP=2.94D-04 MaxDP=2.23D-02 DE=-8.64D-02 OVMax= 2.63D-02

 Cycle   5  Pass 1  IDiag  1:
 RMSU=  1.69D-04    CP:  9.60D-01  1.52D+00  8.44D-01  7.77D-01
 E= -881.722186095209     Delta-E=       -0.007270615278 Rises=F Damp=F
 DIIS: error= 4.18D-03 at cycle   5 NSaved=   5.
 NSaved= 5 IEnMin= 5 EnMin= -881.722186095209     IErMin= 5 ErrMin= 4.18D-03
 ErrMax= 4.18D-03  0.00D+00 EMaxC= 1.00D-01 BMatC= 8.60D-03 BMatP= 4.07D-02
 IDIUse=3 WtCom= 9.58D-01 WtEn= 4.18D-02
 Coeff-Com: -0.334D-01 0.513D-01 0.104D+00 0.423D+00 0.455D+00
 Coeff-En:   0.000D+00 0.000D+00 0.000D+00 0.125D+00 0.875D+00
 Coeff:     -0.320D-01 0.492D-01 0.995D-01 0.410D+00 0.473D+00
 Gap=     0.168 Goal=   None    Shift=    0.000
 Gap=     0.168 Goal=   None    Shift=    0.000
 RMSDP=1.18D-04 MaxDP=9.25D-03 DE=-7.27D-03 OVMax= 1.65D-02

 Cycle   6  Pass 1  IDiag  1:
 RMSU=  7.67D-05    CP:  9.60D-01  1.53D+00  8.34D-01  8.29D-01  5.69D-01
 E= -881.723961842739     Delta-E=       -0.001775747531 Rises=F Damp=F
 DIIS: error= 1.62D-03 at cycle   6 NSaved=   6.
 NSaved= 6 IEnMin= 6 EnMin= -881.723961842739     IErMin= 6 ErrMin= 1.62D-03
 ErrMax= 1.62D-03  0.00D+00 EMaxC= 1.00D-01 BMatC= 9.14D-04 BMatP= 8.60D-03
 IDIUse=3 WtCom= 9.84D-01 WtEn= 1.62D-02
 Coeff-Com: -0.984D-02 0.999D-02 0.911D-02 0.122D+00 0.287D+00 0.582D+00
 Coeff-En:   0.000D+00 0.000D+00 0.000D+00 0.000D+00 0.316D-01 0.968D+00
 Coeff:     -0.968D-02 0.983D-02 0.896D-02 0.120D+00 0.283D+00 0.588D+00
 Gap=     0.167 Goal=   None    Shift=    0.000
 Gap=     0.167 Goal=   None    Shift=    0.000
 RMSDP=3.45D-05 MaxDP=4.09D-03 DE=-1.78D-03 OVMax= 5.41D-03

 Cycle   7  Pass 1  IDiag  1:
 RMSU=  2.46D-05    CP:  9.59D-01  1.53D+00  8.32D-01  8.40D-01  6.50D-01
                    CP:  7.79D-01
 E= -881.724156117385     Delta-E=       -0.000194274646 Rises=F Damp=F
 DIIS: error= 4.39D-04 at cycle   7 NSaved=   7.
 NSaved= 7 IEnMin= 7 EnMin= -881.724156117385     IErMin= 7 ErrMin= 4.39D-04
 ErrMax= 4.39D-04  0.00D+00 EMaxC= 1.00D-01 BMatC= 9.57D-05 BMatP= 9.14D-04
 IDIUse=3 WtCom= 9.96D-01 WtEn= 4.39D-03
 Coeff-Com: -0.378D-02 0.328D-02-0.449D-02 0.327D-01 0.121D+00 0.338D+00
 Coeff-Com:  0.514D+00
 Coeff-En:   0.000D+00 0.000D+00 0.000D+00 0.000D+00 0.000D+00 0.000D+00
 Coeff-En:   0.100D+01
 Coeff:     -0.376D-02 0.327D-02-0.447D-02 0.325D-01 0.120D+00 0.336D+00
 Coeff:      0.516D+00
 Gap=     0.166 Goal=   None    Shift=    0.000
 Gap=     0.166 Goal=   None    Shift=    0.000
 RMSDP=1.44D-05 MaxDP=1.40D-03 DE=-1.94D-04 OVMax= 2.00D-03

 Cycle   8  Pass 1  IDiag  1:
 RMSU=  1.29D-05    CP:  9.59D-01  1.53D+00  8.31D-01  8.42D-01  6.78D-01
                    CP:  7.95D-01  8.71D-01
 E= -881.724180394159     Delta-E=       -0.000024276774 Rises=F Damp=F
 DIIS: error= 1.17D-04 at cycle   8 NSaved=   8.
 NSaved= 8 IEnMin= 8 EnMin= -881.724180394159     IErMin= 8 ErrMin= 1.17D-04
 ErrMax= 1.17D-04  0.00D+00 EMaxC= 1.00D-01 BMatC= 1.07D-05 BMatP= 9.57D-05
 IDIUse=3 WtCom= 9.99D-01 WtEn= 1.17D-03
 Coeff-Com: -0.295D-03 0.308D-03-0.375D-02-0.523D-02 0.305D-02 0.424D-01
 Coeff-Com:  0.242D+00 0.721D+00
 Coeff-En:   0.000D+00 0.000D+00 0.000D+00 0.000D+00 0.000D+00 0.000D+00
 Coeff-En:   0.000D+00 0.100D+01
 Coeff:     -0.294D-03 0.307D-03-0.375D-02-0.523D-02 0.305D-02 0.424D-01
 Coeff:      0.242D+00 0.722D+00
 Gap=     0.166 Goal=   None    Shift=    0.000
 Gap=     0.166 Goal=   None    Shift=    0.000
 RMSDP=9.78D-06 MaxDP=8.79D-04 DE=-2.43D-05 OVMax= 2.21D-03

 Cycle   9  Pass 1  IDiag  1:
 RMSU=  6.27D-06    CP:  9.59D-01  1.53D+00  8.31D-01  8.44D-01  6.79D-01
                    CP:  8.46D-01  1.09D+00  1.21D+00
 E= -881.724187421042     Delta-E=       -0.000007026883 Rises=F Damp=F
 DIIS: error= 8.56D-05 at cycle   9 NSaved=   9.
 NSaved= 9 IEnMin= 9 EnMin= -881.724187421042     IErMin= 9 ErrMin= 8.56D-05
 ErrMax= 8.56D-05  0.00D+00 EMaxC= 1.00D-01 BMatC= 3.65D-06 BMatP= 1.07D-05
 IDIUse=1 WtCom= 1.00D+00 WtEn= 0.00D+00
 Coeff-Com:  0.358D-03-0.248D-03-0.127D-02-0.717D-02-0.156D-01-0.253D-01
 Coeff-Com:  0.565D-01 0.401D+00 0.592D+00
 Coeff:      0.358D-03-0.248D-03-0.127D-02-0.717D-02-0.156D-01-0.253D-01
 Coeff:      0.565D-01 0.401D+00 0.592D+00
 Gap=     0.166 Goal=   None    Shift=    0.000
 Gap=     0.166 Goal=   None    Shift=    0.000
 RMSDP=6.19D-06 MaxDP=5.03D-04 DE=-7.03D-06 OVMax= 1.48D-03

 Cycle  10  Pass 1  IDiag  1:
 RMSU=  3.33D-06    CP:  9.59D-01  1.53D+00  8.31D-01  8.45D-01  6.87D-01
                    CP:  8.53D-01  1.21D+00  1.49D+00  1.21D+00
 E= -881.724190785494     Delta-E=       -0.000003364452 Rises=F Damp=F
 DIIS: error= 6.64D-05 at cycle  10 NSaved=  10.
 NSaved=10 IEnMin=10 EnMin= -881.724190785494     IErMin=10 ErrMin= 6.64D-05
 ErrMax= 6.64D-05  0.00D+00 EMaxC= 1.00D-01 BMatC= 1.33D-06 BMatP= 3.65D-06
 IDIUse=1 WtCom= 1.00D+00 WtEn= 0.00D+00
 Coeff-Com:  0.566D-03-0.710D-03 0.182D-02 0.317D-04-0.867D-02-0.361D-01
 Coeff-Com: -0.131D+00-0.295D+00 0.245D+00 0.122D+01
 Coeff:      0.566D-03-0.710D-03 0.182D-02 0.317D-04-0.867D-02-0.361D-01
 Coeff:     -0.131D+00-0.295D+00 0.245D+00 0.122D+01
 Gap=     0.166 Goal=   None    Shift=    0.000
 Gap=     0.166 Goal=   None    Shift=    0.000
 RMSDP=1.09D-05 MaxDP=8.64D-04 DE=-3.36D-06 OVMax= 2.83D-03

 Cycle  11  Pass 1  IDiag  1:
 RMSU=  2.14D-06    CP:  9.59D-01  1.53D+00  8.31D-01  8.45D-01  6.93D-01
                    CP:  8.91D-01  1.43D+00  1.98D+00  2.11D+00  1.57D+00
 E= -881.724194442006     Delta-E=       -0.000003656512 Rises=F Damp=F
 DIIS: error= 3.27D-05 at cycle  11 NSaved=  11.
 NSaved=11 IEnMin=11 EnMin= -881.724194442006     IErMin=11 ErrMin= 3.27D-05
 ErrMax= 3.27D-05  0.00D+00 EMaxC= 1.00D-01 BMatC= 5.84D-07 BMatP= 1.33D-06
 IDIUse=1 WtCom= 1.00D+00 WtEn= 0.00D+00
 Coeff-Com:  0.165D-03-0.291D-03 0.173D-02 0.306D-02 0.200D-02-0.942D-02
 Coeff-Com: -0.101D+00-0.345D+00-0.115D+00 0.742D+00 0.821D+00
 Coeff:      0.165D-03-0.291D-03 0.173D-02 0.306D-02 0.200D-02-0.942D-02
 Coeff:     -0.101D+00-0.345D+00-0.115D+00 0.742D+00 0.821D+00
 Gap=     0.166 Goal=   None    Shift=    0.000
 Gap=     0.166 Goal=   None    Shift=    0.000
 RMSDP=6.92D-06 MaxDP=5.54D-04 DE=-3.66D-06 OVMax= 1.79D-03

 Cycle  12  Pass 1  IDiag  1:
 RMSU=  1.13D-06    CP:  9.59D-01  1.53D+00  8.31D-01  8.45D-01  6.98D-01
                    CP:  9.07D-01  1.57D+00  2.29D+00  2.65D+00  2.25D+00
                    CP:  1.01D+00
 E= -881.724195503464     Delta-E=       -0.000001061458 Rises=F Damp=F
 DIIS: error= 1.10D-05 at cycle  12 NSaved=  12.
 NSaved=12 IEnMin=12 EnMin= -881.724195503464     IErMin=12 ErrMin= 1.10D-05
 ErrMax= 1.10D-05  0.00D+00 EMaxC= 1.00D-01 BMatC= 1.41D-07 BMatP= 5.84D-07
 IDIUse=1 WtCom= 1.00D+00 WtEn= 0.00D+00
 Coeff-Com: -0.662D-04 0.596D-04 0.514D-03 0.160D-02 0.321D-02 0.314D-02
 Coeff-Com: -0.229D-01-0.115D+00-0.138D+00 0.719D-01 0.472D+00 0.723D+00
 Coeff:     -0.662D-04 0.596D-04 0.514D-03 0.160D-02 0.321D-02 0.314D-02
 Coeff:     -0.229D-01-0.115D+00-0.138D+00 0.719D-01 0.472D+00 0.723D+00
 Gap=     0.166 Goal=   None    Shift=    0.000
 Gap=     0.166 Goal=   None    Shift=    0.000
 RMSDP=2.92D-06 MaxDP=2.35D-04 DE=-1.06D-06 OVMax= 7.55D-04

 Cycle  13  Pass 1  IDiag  1:
 RMSU=  3.91D-07    CP:  9.59D-01  1.53D+00  8.31D-01  8.45D-01  7.01D-01
                    CP:  9.16D-01  1.62D+00  2.42D+00  2.88D+00  2.49D+00
                    CP:  1.29D+00  8.30D-01
 E= -881.724195646585     Delta-E=       -0.000000143121 Rises=F Damp=F
 DIIS: error= 2.01D-06 at cycle  13 NSaved=  13.
 NSaved=13 IEnMin=13 EnMin= -881.724195646585     IErMin=13 ErrMin= 2.01D-06
 ErrMax= 2.01D-06  0.00D+00 EMaxC= 1.00D-01 BMatC= 1.98D-08 BMatP= 1.41D-07
 IDIUse=1 WtCom= 1.00D+00 WtEn= 0.00D+00
 Coeff-Com: -0.576D-04 0.722D-04 0.132D-03 0.576D-03 0.137D-02 0.168D-02
 Coeff-Com: -0.490D-02-0.340D-01-0.611D-01-0.186D-01 0.180D+00 0.384D+00
 Coeff-Com:  0.551D+00
 Coeff:     -0.576D-04 0.722D-04 0.132D-03 0.576D-03 0.137D-02 0.168D-02
 Coeff:     -0.490D-02-0.340D-01-0.611D-01-0.186D-01 0.180D+00 0.384D+00
 Coeff:      0.551D+00
 Gap=     0.166 Goal=   None    Shift=    0.000
 Gap=     0.166 Goal=   None    Shift=    0.000
 RMSDP=3.69D-07 MaxDP=2.78D-05 DE=-1.43D-07 OVMax= 8.22D-05

 Cycle  14  Pass 1  IDiag  1:
 RMSU=  1.61D-07    CP:  9.59D-01  1.53D+00  8.31D-01  8.45D-01  7.01D-01
                    CP:  9.17D-01  1.63D+00  2.44D+00  2.91D+00  2.52D+00
                    CP:  1.31D+00  9.18D-01  7.68D-01
 E= -881.724195653526     Delta-E=       -0.000000006940 Rises=F Damp=F
 DIIS: error= 1.42D-06 at cycle  14 NSaved=  14.
 NSaved=14 IEnMin=14 EnMin= -881.724195653526     IErMin=14 ErrMin= 1.42D-06
 ErrMax= 1.42D-06  0.00D+00 EMaxC= 1.00D-01 BMatC= 2.13D-09 BMatP= 1.98D-08
 IDIUse=1 WtCom= 1.00D+00 WtEn= 0.00D+00
 Coeff-Com: -0.107D-04 0.187D-04-0.621D-04-0.124D-03-0.285D-03-0.610D-03
 Coeff-Com:  0.189D-02 0.965D-02 0.799D-02-0.162D-01-0.317D-01-0.142D-01
 Coeff-Com:  0.190D+00 0.854D+00
 Coeff:     -0.107D-04 0.187D-04-0.621D-04-0.124D-03-0.285D-03-0.610D-03
 Coeff:      0.189D-02 0.965D-02 0.799D-02-0.162D-01-0.317D-01-0.142D-01
 Coeff:      0.190D+00 0.854D+00
 Gap=     0.166 Goal=   None    Shift=    0.000
 Gap=     0.166 Goal=   None    Shift=    0.000
 RMSDP=1.29D-07 MaxDP=1.08D-05 DE=-6.94D-09 OVMax= 2.48D-05

 Cycle  15  Pass 1  IDiag  1:
 RMSU=  6.96D-08    CP:  9.59D-01  1.53D+00  8.31D-01  8.45D-01  7.01D-01
                    CP:  9.17D-01  1.63D+00  2.44D+00  2.91D+00  2.52D+00
                    CP:  1.32D+00  9.30D-01  9.14D-01  1.06D+00
 E= -881.724195654499     Delta-E=       -0.000000000974 Rises=F Damp=F
 DIIS: error= 3.07D-07 at cycle  15 NSaved=  15.
 NSaved=15 IEnMin=15 EnMin= -881.724195654499     IErMin=15 ErrMin= 3.07D-07
 ErrMax= 3.07D-07  0.00D+00 EMaxC= 1.00D-01 BMatC= 3.02D-10 BMatP= 2.13D-09
 IDIUse=1 WtCom= 1.00D+00 WtEn= 0.00D+00
 Coeff-Com:  0.290D-05-0.229D-05-0.401D-04-0.107D-03-0.260D-03-0.393D-03
 Coeff-Com:  0.127D-02 0.770D-02 0.109D-01-0.280D-02-0.347D-01-0.574D-01
 Coeff-Com: -0.932D-02 0.312D+00 0.773D+00
 Coeff:      0.290D-05-0.229D-05-0.401D-04-0.107D-03-0.260D-03-0.393D-03
 Coeff:      0.127D-02 0.770D-02 0.109D-01-0.280D-02-0.347D-01-0.574D-01
 Coeff:     -0.932D-02 0.312D+00 0.773D+00
 Gap=     0.166 Goal=   None    Shift=    0.000
 Gap=     0.166 Goal=   None    Shift=    0.000
 RMSDP=4.62D-08 MaxDP=2.67D-06 DE=-9.74D-10 OVMax= 6.89D-06

 Cycle  16  Pass 1  IDiag  1:
 RMSU=  2.99D-08    CP:  9.59D-01  1.53D+00  8.31D-01  8.45D-01  7.01D-01
                    CP:  9.17D-01  1.63D+00  2.44D+00  2.91D+00  2.52D+00
                    CP:  1.32D+00  9.39D-01  9.50D-01  1.22D+00  1.02D+00
 E= -881.724195654624     Delta-E=       -0.000000000125 Rises=F Damp=F
 DIIS: error= 1.50D-07 at cycle  16 NSaved=  16.
 NSaved=16 IEnMin=16 EnMin= -881.724195654624     IErMin=16 ErrMin= 1.50D-07
 ErrMax= 1.50D-07  0.00D+00 EMaxC= 1.00D-01 BMatC= 1.28D-10 BMatP= 3.02D-10
 IDIUse=1 WtCom= 1.00D+00 WtEn= 0.00D+00
 Coeff-Com:  0.480D-05-0.656D-05-0.110D-04-0.367D-04-0.808D-04-0.433D-04
 Coeff-Com:  0.453D-03 0.262D-02 0.451D-02 0.135D-02-0.135D-01-0.304D-01
 Coeff-Com: -0.450D-01-0.224D-02 0.444D+00 0.638D+00
 Coeff:      0.480D-05-0.656D-05-0.110D-04-0.367D-04-0.808D-04-0.433D-04
 Coeff:      0.453D-03 0.262D-02 0.451D-02 0.135D-02-0.135D-01-0.304D-01
 Coeff:     -0.450D-01-0.224D-02 0.444D+00 0.638D+00
 Gap=     0.166 Goal=   None    Shift=    0.000
 Gap=     0.166 Goal=   None    Shift=    0.000
 RMSDP=2.12D-08 MaxDP=1.34D-06 DE=-1.25D-10 OVMax= 3.42D-06

 Cycle  17  Pass 1  IDiag  1:
 RMSU=  1.34D-08    CP:  9.59D-01  1.53D+00  8.31D-01  8.45D-01  7.01D-01
                    CP:  9.17D-01  1.63D+00  2.44D+00  2.91D+00  2.52D+00
                    CP:  1.32D+00  9.40D-01  9.68D-01  1.27D+00  1.18D+00
                    CP:  8.38D-01
 E= -881.724195654672     Delta-E=       -0.000000000047 Rises=F Damp=F
 DIIS: error= 1.09D-07 at cycle  17 NSaved=  17.
 NSaved=17 IEnMin=17 EnMin= -881.724195654672     IErMin=17 ErrMin= 1.09D-07
 ErrMax= 1.09D-07  0.00D+00 EMaxC= 1.00D-01 BMatC= 1.38D-11 BMatP= 1.28D-10
 IDIUse=1 WtCom= 1.00D+00 WtEn= 0.00D+00
 Coeff-Com:  0.112D-05-0.169D-05 0.226D-05 0.414D-05 0.229D-04 0.912D-04
 Coeff-Com:  0.897D-04-0.416D-04-0.326D-03-0.224D-04 0.728D-03-0.131D-03
 Coeff-Com: -0.798D-02-0.393D-01-0.269D-02 0.173D+00 0.876D+00
 Coeff:      0.112D-05-0.169D-05 0.226D-05 0.414D-05 0.229D-04 0.912D-04
 Coeff:      0.897D-04-0.416D-04-0.326D-03-0.224D-04 0.728D-03-0.131D-03
 Coeff:     -0.798D-02-0.393D-01-0.269D-02 0.173D+00 0.876D+00
 Gap=     0.166 Goal=   None    Shift=    0.000
 Gap=     0.166 Goal=   None    Shift=    0.000
 RMSDP=1.02D-08 MaxDP=6.35D-07 DE=-4.73D-11 OVMax= 1.70D-06

 Cycle  18  Pass 1  IDiag  1:
 RMSU=  6.94D-09    CP:  9.59D-01  1.53D+00  8.31D-01  8.45D-01  7.01D-01
                    CP:  9.17D-01  1.63D+00  2.44D+00  2.91D+00  2.52D+00
                    CP:  1.32D+00  9.42D-01  9.71D-01  1.28D+00  1.23D+00
                    CP:  9.97D-01  1.15D+00
 E= -881.724195654678     Delta-E=       -0.000000000007 Rises=F Damp=F
 DIIS: error= 5.54D-08 at cycle  18 NSaved=  18.
 NSaved=18 IEnMin=18 EnMin= -881.724195654678     IErMin=18 ErrMin= 5.54D-08
 ErrMax= 5.54D-08  0.00D+00 EMaxC= 1.00D-01 BMatC= 3.77D-12 BMatP= 1.38D-11
 IDIUse=1 WtCom= 1.00D+00 WtEn= 0.00D+00
 Coeff-Com: -0.304D-06 0.295D-06 0.284D-05 0.740D-05 0.231D-04 0.478D-04
 Coeff-Com: -0.264D-04-0.429D-03-0.929D-03-0.352D-03 0.259D-02 0.529D-02
 Coeff-Com:  0.506D-02-0.147D-01-0.842D-01-0.458D-01 0.372D+00 0.761D+00
 Coeff:     -0.304D-06 0.295D-06 0.284D-05 0.740D-05 0.231D-04 0.478D-04
 Coeff:     -0.264D-04-0.429D-03-0.929D-03-0.352D-03 0.259D-02 0.529D-02
 Coeff:      0.506D-02-0.147D-01-0.842D-01-0.458D-01 0.372D+00 0.761D+00
 Gap=     0.166 Goal=   None    Shift=    0.000
 Gap=     0.166 Goal=   None    Shift=    0.000
 RMSDP=6.19D-09 MaxDP=3.38D-07 DE=-6.59D-12 OVMax= 1.01D-06

 Error on total polarization charges =  0.00985
 SCF Done:  E(UB3LYP) =  -881.724195655     A.U. after   18 cycles
            NFock= 18  Conv=0.62D-08     -V/T= 2.0095
 <Sx>= 0.0000 <Sy>= 0.0000 <Sz>= 0.0000 <S**2>= 0.0000 S= 0.0000
 <L.S>=  0.00000000000    
 KE= 8.734050204298D+02 PE=-5.240061553315D+03 EE= 1.890164882934D+03
 Annihilation of the first spin contaminant:
 S**2 before annihilation     0.0000,   after     0.0000
 Leave Link  502 at Sat Jun 15 00:17:47 2019, MaxMem=   104857600 cpu:            1784.6 elap:              45.8
 (Enter /project/6004141/group/g16/g16/l801.exe)
 DoSCS=F DFT=T ScalE2(SS,OS)=  1.000000  1.000000
 Range of M.O.s used for correlation:     1   400
 NBasis=   400 NAE=    73 NBE=    73 NFC=     0 NFV=     0
 NROrb=    400 NOA=    73 NOB=    73 NVA=   327 NVB=   327
 Leave Link  801 at Sat Jun 15 00:17:47 2019, MaxMem=   104857600 cpu:               1.3 elap:               0.1
 (Enter /project/6004141/group/g16/g16/l1101.exe)
 Using compressed storage, NAtomX=    40.
 Will process     41 centers per pass.
 PrsmSu:  requested number of processors reduced to:  25 ShMem   1 Linda.
 PrsmSu:  requested number of processors reduced to:   8 ShMem   1 Linda.
 R6Disp: Adding Grimme-D3 dispersion energy 1st derivatives to the gradient.
 Leave Link 1101 at Sat Jun 15 00:17:48 2019, MaxMem=   104857600 cpu:              19.1 elap:               0.6
 (Enter /project/6004141/group/g16/g16/l1102.exe)
 Symmetrizing basis deriv contribution to polar:
 IMax=3 JMax=2 DiffMx= 0.00D+00
 Leave Link 1102 at Sat Jun 15 00:17:48 2019, MaxMem=   104857600 cpu:               1.9 elap:               0.1
 (Enter /project/6004141/group/g16/g16/l1110.exe)
 Forming Gx(P) for the SCF density, NAtomX=    40.
 Integral derivatives from FoFJK, PRISM(SPDF).
 Do as many integral derivatives as possible in FoFJK.
 G2DrvN: MDV=     104854584.
 G2DrvN: will do     1 centers at a time, making   41 passes.
 Estimated number of processors is:   32
 G2DrvN:  IPasSy=1 do centers    0 through    0.
 Calling FoFCou, ICntrl=  3107 FMM=F I1Cent=   0 AccDes= 0.00D+00.
 FoFJK:  IHMeth= 1 ICntrl=    3107 DoSepK=F KAlg= 0 I1Cent=           0 FoldK=F
 IRaf=         0 NMat=       1 IRICut=       1 DoRegI=T DoRafI=F ISym2E= 0 IDoP0=0 IntGTp=1.
 FoFCou: FMM=F IPFlag=           0 FMFlag=      100000 FMFlg1=           0
         NFxFlg=           0 DoJE=F BraDBF=F KetDBF=F FulRan=T
         wScrn=  0.000000 ICntrl=      3107 IOpCl=  1 I1Cent=           0 NGrid=           0
         NMat0=    1 NMatS0=      1 NMatT0=    0 NMatD0=    1 NMtDS0=    0 NMtDT0=    0
 Symmetry not used in FoFCou.
 CoulSu:  requested number of processors reduced to:  37 ShMem   1 Linda.
 G2DrvN:  IPasSy=1 do centers    1 through    1.
 Calling FoFCou, ICntrl=  3107 FMM=F I1Cent=   0 AccDes= 0.00D+00.
 CoulSu:  requested number of processors reduced to:  31 ShMem   1 Linda.
 G2DrvN:  IPasSy=1 do centers    2 through    2.
 Calling FoFCou, ICntrl=  3107 FMM=F I1Cent=   0 AccDes= 0.00D+00.
 CoulSu:  requested number of processors reduced to:  31 ShMem   1 Linda.
 G2DrvN:  IPasSy=1 do centers    3 through    3.
 Calling FoFCou, ICntrl=  3107 FMM=F I1Cent=   0 AccDes= 0.00D+00.
 CoulSu:  requested number of processors reduced to:  31 ShMem   1 Linda.
 G2DrvN:  IPasSy=1 do centers    4 through    4.
 Calling FoFCou, ICntrl=  3107 FMM=F I1Cent=   0 AccDes= 0.00D+00.
 CoulSu:  requested number of processors reduced to:  31 ShMem   1 Linda.
 G2DrvN:  IPasSy=1 do centers    5 through    5.
 Calling FoFCou, ICntrl=  3107 FMM=F I1Cent=   0 AccDes= 0.00D+00.
 CoulSu:  requested number of processors reduced to:  31 ShMem   1 Linda.
 G2DrvN:  IPasSy=1 do centers    6 through    6.
 Calling FoFCou, ICntrl=  3107 FMM=F I1Cent=   0 AccDes= 0.00D+00.
 CoulSu:  requested number of processors reduced to:  31 ShMem   1 Linda.
 G2DrvN:  IPasSy=1 do centers    7 through    7.
 Calling FoFCou, ICntrl=  3107 FMM=F I1Cent=   0 AccDes= 0.00D+00.
 CoulSu:  requested number of processors reduced to:  31 ShMem   1 Linda.
 G2DrvN:  IPasSy=1 do centers    8 through    8.
 Calling FoFCou, ICntrl=  3107 FMM=F I1Cent=   0 AccDes= 0.00D+00.
 CoulSu:  requested number of processors reduced to:  31 ShMem   1 Linda.
 G2DrvN:  IPasSy=1 do centers    9 through    9.
 Calling FoFCou, ICntrl=  3107 FMM=F I1Cent=   0 AccDes= 0.00D+00.
 CoulSu:  requested number of processors reduced to:  31 ShMem   1 Linda.
 G2DrvN:  IPasSy=1 do centers   10 through   10.
 Calling FoFCou, ICntrl=  3107 FMM=F I1Cent=   0 AccDes= 0.00D+00.
 CoulSu:  requested number of processors reduced to:  31 ShMem   1 Linda.
 G2DrvN:  IPasSy=1 do centers   11 through   11.
 Calling FoFCou, ICntrl=  3107 FMM=F I1Cent=   0 AccDes= 0.00D+00.
 CoulSu:  requested number of processors reduced to:  31 ShMem   1 Linda.
 G2DrvN:  IPasSy=1 do centers   12 through   12.
 Calling FoFCou, ICntrl=  3107 FMM=F I1Cent=   0 AccDes= 0.00D+00.
 CoulSu:  requested number of processors reduced to:  31 ShMem   1 Linda.
 G2DrvN:  IPasSy=1 do centers   13 through   13.
 Calling FoFCou, ICntrl=  3107 FMM=F I1Cent=   0 AccDes= 0.00D+00.
 CoulSu:  requested number of processors reduced to:  31 ShMem   1 Linda.
 G2DrvN:  IPasSy=1 do centers   14 through   14.
 Calling FoFCou, ICntrl=  3107 FMM=F I1Cent=   0 AccDes= 0.00D+00.
 CoulSu:  requested number of processors reduced to:  31 ShMem   1 Linda.
 G2DrvN:  IPasSy=1 do centers   15 through   15.
 Calling FoFCou, ICntrl=  3107 FMM=F I1Cent=   0 AccDes= 0.00D+00.
 CoulSu:  requested number of processors reduced to:  31 ShMem   1 Linda.
 G2DrvN:  IPasSy=1 do centers   16 through   16.
 Calling FoFCou, ICntrl=  3107 FMM=F I1Cent=   0 AccDes= 0.00D+00.
 CoulSu:  requested number of processors reduced to:  31 ShMem   1 Linda.
 G2DrvN:  IPasSy=1 do centers   17 through   17.
 Calling FoFCou, ICntrl=  3107 FMM=F I1Cent=   0 AccDes= 0.00D+00.
 CoulSu:  requested number of processors reduced to:  31 ShMem   1 Linda.
 G2DrvN:  IPasSy=1 do centers   18 through   18.
 Calling FoFCou, ICntrl=  3107 FMM=F I1Cent=   0 AccDes= 0.00D+00.
 CoulSu:  requested number of processors reduced to:  31 ShMem   1 Linda.
 G2DrvN:  IPasSy=1 do centers   19 through   19.
 Calling FoFCou, ICntrl=  3107 FMM=F I1Cent=   0 AccDes= 0.00D+00.
 CoulSu:  requested number of processors reduced to:  31 ShMem   1 Linda.
 G2DrvN:  IPasSy=1 do centers   20 through   20.
 Calling FoFCou, ICntrl=  3107 FMM=F I1Cent=   0 AccDes= 0.00D+00.
 CoulSu:  requested number of processors reduced to:  31 ShMem   1 Linda.
 G2DrvN:  IPasSy=1 do centers   21 through   21.
 Calling FoFCou, ICntrl=  3107 FMM=F I1Cent=   0 AccDes= 0.00D+00.
 CoulSu:  requested number of processors reduced to:  31 ShMem   1 Linda.
 G2DrvN:  IPasSy=1 do centers   22 through   22.
 Calling FoFCou, ICntrl=  3107 FMM=F I1Cent=   0 AccDes= 0.00D+00.
 CoulSu:  requested number of processors reduced to:  31 ShMem   1 Linda.
 G2DrvN:  IPasSy=1 do centers   23 through   23.
 Calling FoFCou, ICntrl=  3107 FMM=F I1Cent=   0 AccDes= 0.00D+00.
 CoulSu:  requested number of processors reduced to:  31 ShMem   1 Linda.
 G2DrvN:  IPasSy=1 do centers   24 through   24.
 Calling FoFCou, ICntrl=  3107 FMM=F I1Cent=   0 AccDes= 0.00D+00.
 CoulSu:  requested number of processors reduced to:  31 ShMem   1 Linda.
 G2DrvN:  IPasSy=1 do centers   25 through   25.
 Calling FoFCou, ICntrl=  3107 FMM=F I1Cent=   0 AccDes= 0.00D+00.
 CoulSu:  requested number of processors reduced to:  31 ShMem   1 Linda.
 G2DrvN:  IPasSy=1 do centers   26 through   26.
 Calling FoFCou, ICntrl=  3107 FMM=F I1Cent=   0 AccDes= 0.00D+00.
 CoulSu:  requested number of processors reduced to:  31 ShMem   1 Linda.
 G2DrvN:  IPasSy=1 do centers   27 through   27.
 Calling FoFCou, ICntrl=  3107 FMM=F I1Cent=   0 AccDes= 0.00D+00.
 CoulSu:  requested number of processors reduced to:  31 ShMem   1 Linda.
 G2DrvN:  IPasSy=1 do centers   28 through   28.
 Calling FoFCou, ICntrl=  3107 FMM=F I1Cent=   0 AccDes= 0.00D+00.
 CoulSu:  requested number of processors reduced to:  31 ShMem   1 Linda.
 G2DrvN:  IPasSy=1 do centers   29 through   29.
 Calling FoFCou, ICntrl=  3107 FMM=F I1Cent=   0 AccDes= 0.00D+00.
 CoulSu:  requested number of processors reduced to:  31 ShMem   1 Linda.
 G2DrvN:  IPasSy=1 do centers   30 through   30.
 Calling FoFCou, ICntrl=  3107 FMM=F I1Cent=   0 AccDes= 0.00D+00.
 CoulSu:  requested number of processors reduced to:  31 ShMem   1 Linda.
 G2DrvN:  IPasSy=1 do centers   31 through   31.
 Calling FoFCou, ICntrl=  3107 FMM=F I1Cent=   0 AccDes= 0.00D+00.
 CoulSu:  requested number of processors reduced to:  31 ShMem   1 Linda.
 G2DrvN:  IPasSy=1 do centers   32 through   32.
 Calling FoFCou, ICntrl=  3107 FMM=F I1Cent=   0 AccDes= 0.00D+00.
 CoulSu:  requested number of processors reduced to:  31 ShMem   1 Linda.
 G2DrvN:  IPasSy=1 do centers   33 through   33.
 Calling FoFCou, ICntrl=  3107 FMM=F I1Cent=   0 AccDes= 0.00D+00.
 CoulSu:  requested number of processors reduced to:  31 ShMem   1 Linda.
 G2DrvN:  IPasSy=1 do centers   34 through   34.
 Calling FoFCou, ICntrl=  3107 FMM=F I1Cent=   0 AccDes= 0.00D+00.
 CoulSu:  requested number of processors reduced to:  31 ShMem   1 Linda.
 G2DrvN:  IPasSy=1 do centers   35 through   35.
 Calling FoFCou, ICntrl=  3107 FMM=F I1Cent=   0 AccDes= 0.00D+00.
 CoulSu:  requested number of processors reduced to:  31 ShMem   1 Linda.
 G2DrvN:  IPasSy=1 do centers   36 through   36.
 Calling FoFCou, ICntrl=  3107 FMM=F I1Cent=   0 AccDes= 0.00D+00.
 CoulSu:  requested number of processors reduced to:  31 ShMem   1 Linda.
 G2DrvN:  IPasSy=1 do centers   37 through   37.
 Calling FoFCou, ICntrl=  3107 FMM=F I1Cent=   0 AccDes= 0.00D+00.
 CoulSu:  requested number of processors reduced to:  31 ShMem   1 Linda.
 G2DrvN:  IPasSy=1 do centers   38 through   38.
 Calling FoFCou, ICntrl=  3107 FMM=F I1Cent=   0 AccDes= 0.00D+00.
 CoulSu:  requested number of processors reduced to:  31 ShMem   1 Linda.
 G2DrvN:  IPasSy=1 do centers   39 through   39.
 Calling FoFCou, ICntrl=  3107 FMM=F I1Cent=   0 AccDes= 0.00D+00.
 CoulSu:  requested number of processors reduced to:  31 ShMem   1 Linda.
 G2DrvN:  IPasSy=1 do centers   40 through   40.
 Calling FoFCou, ICntrl=  3107 FMM=F I1Cent=   0 AccDes= 0.00D+00.
 CoulSu:  requested number of processors reduced to:  31 ShMem   1 Linda.
 NEqPCM:  Using equilibrium solvation (IEInf=0, Eps=  35.6880, EpsInf=   1.8069)
 G2PCM: DoFxE=T DoFxN=T DoGrad=T DoDP/DQ/DG/TGxP=FFFF NFrqRd=   0 IEInf=0 SqF1=F DoCFld=F IF1Alg=4.
 GePol: Maximum number of non-zero 1st derivatives   =     224
 CoulSu:  requested number of processors reduced to:  30 ShMem   1 Linda.
 CoulSu:  requested number of processors reduced to:  38 ShMem   1 Linda.
 CoulSu:  requested number of processors reduced to:  29 ShMem   1 Linda.
 CoulSu:  requested number of processors reduced to:  30 ShMem   1 Linda.
 CoulSu:  requested number of processors reduced to:  34 ShMem   1 Linda.
 CoulSu:  requested number of processors reduced to:  30 ShMem   1 Linda.
 CoulSu:  requested number of processors reduced to:  34 ShMem   1 Linda.
 CoulSu:  requested number of processors reduced to:  30 ShMem   1 Linda.
 CoulSu:  requested number of processors reduced to:  34 ShMem   1 Linda.
 CoulSu:  requested number of processors reduced to:  30 ShMem   1 Linda.
 CoulSu:  requested number of processors reduced to:  34 ShMem   1 Linda.
 CoulSu:  requested number of processors reduced to:  30 ShMem   1 Linda.
 CoulSu:  requested number of processors reduced to:  34 ShMem   1 Linda.
 CoulSu:  requested number of processors reduced to:  30 ShMem   1 Linda.
 CoulSu:  requested number of processors reduced to:  34 ShMem   1 Linda.
 CoulSu:  requested number of processors reduced to:  30 ShMem   1 Linda.
 CoulSu:  requested number of processors reduced to:  34 ShMem   1 Linda.
 CoulSu:  requested number of processors reduced to:  30 ShMem   1 Linda.
 CoulSu:  requested number of processors reduced to:  34 ShMem   1 Linda.
 CoulSu:  requested number of processors reduced to:  30 ShMem   1 Linda.
 CoulSu:  requested number of processors reduced to:  34 ShMem   1 Linda.
 CoulSu:  requested number of processors reduced to:  30 ShMem   1 Linda.
 CoulSu:  requested number of processors reduced to:  34 ShMem   1 Linda.
 CoulSu:  requested number of processors reduced to:  30 ShMem   1 Linda.
 CoulSu:  requested number of processors reduced to:  34 ShMem   1 Linda.
 CoulSu:  requested number of processors reduced to:  30 ShMem   1 Linda.
 CoulSu:  requested number of processors reduced to:  34 ShMem   1 Linda.
 CoulSu:  requested number of processors reduced to:  30 ShMem   1 Linda.
 CoulSu:  requested number of processors reduced to:  34 ShMem   1 Linda.
 CoulSu:  requested number of processors reduced to:  30 ShMem   1 Linda.
 CoulSu:  requested number of processors reduced to:  39 ShMem   1 Linda.
 CoulSu:  requested number of processors reduced to:  27 ShMem   1 Linda.
 CoulSu:  requested number of processors reduced to:  28 ShMem   1 Linda.
 CoulSu:  requested number of processors reduced to:  27 ShMem   1 Linda.
 CoulSu:  requested number of processors reduced to:  28 ShMem   1 Linda.
 End of G2Drv F.D. properties file   721 does not exist.
 End of G2Drv F.D. properties file   722 does not exist.
 End of G2Drv F.D. properties file   788 does not exist.
 Leave Link 1110 at Sat Jun 15 00:21:31 2019, MaxMem=   104857600 cpu:            8392.9 elap:             222.6
 (Enter /project/6004141/group/g16/g16/l1002.exe)
 Minotr:  UHF open shell wavefunction.
          IDoAtm=1111111111111111111111111111111111111111
 NEqPCM:  Using equilibrium solvation (IEInf=0, Eps=  35.6880, EpsInf=   1.8069)
          Direct CPHF calculation.
          Differentiating once with respect to electric field.
                with respect to dipole field.
          Differentiating once with respect to nuclear coordinates.
          Requested convergence is 1.0D-08 RMS, and 1.0D-07 maximum.
          Secondary convergence is 1.0D-12 RMS, and 1.0D-12 maximum.
          NewPWx=T KeepS1=F KeepF1=F KeepIn=T MapXYZ=F SortEE=F KeepMc=T.
        12019 words used for storage of precomputed grid.
 Two-electron integrals replicated using symmetry.
          MDV=     104857600 using IRadAn=       1.
          Solving linear equations simultaneously, MaxMat=     360.
 FoF2E skips out because all densities are zero.
 CalDSu exits because no D1Ps are significant.
 FoFJK:  IHMeth= 1 ICntrl=       0 DoSepK=F KAlg= 0 I1Cent=           0 FoldK=F
 IRaf= 760000000 NMat=       4 IRICut=       1 DoRegI=T DoRafI=F ISym2E= 2 IDoP0=0 IntGTp=1.
          There are   123 degrees of freedom in the 1st order CPHF.  IDoFFX=6 NUNeed=     3.
    123 vectors produced by pass  0 Test12= 4.77D-14 1.00D-09 XBig12= 4.43D+02 5.09D+00.
 AX will form     4 AO Fock derivatives at one time.
    121 vectors produced by pass  1 Test12= 4.77D-14 1.00D-09 XBig12= 6.07D+01 1.21D+00.
    120 vectors produced by pass  2 Test12= 4.77D-14 1.00D-09 XBig12= 4.40D-01 6.82D-02.
    120 vectors produced by pass  3 Test12= 4.77D-14 1.00D-09 XBig12= 1.43D-03 1.79D-03.
    120 vectors produced by pass  4 Test12= 4.77D-14 1.00D-09 XBig12= 2.03D-06 1.21D-04.
     93 vectors produced by pass  5 Test12= 4.77D-14 1.00D-09 XBig12= 1.83D-09 2.76D-06.
     24 vectors produced by pass  6 Test12= 4.77D-14 1.00D-09 XBig12= 1.79D-12 1.24D-07.
      9 vectors produced by pass  7 Test12= 4.77D-14 1.00D-09 XBig12= 6.50D-15 1.45D-08.
      5 vectors produced by pass  8 Test12= 4.77D-14 1.00D-09 XBig12= 1.05D-15 1.84D-09.
 InvSVY:  IOpt=1 It=  1 EMax= 1.07D-14
 Solved reduced A of dimension   735 with   123 vectors.
 FullF1:  Do perturbations      1 to       3.
 Isotropic polarizability for W=    0.000000      236.85 Bohr**3.
 End of Minotr F.D. properties file   721 does not exist.
 End of Minotr F.D. properties file   722 does not exist.
 End of Minotr F.D. properties file   788 does not exist.
 Leave Link 1002 at Sat Jun 15 00:31:09 2019, MaxMem=   104857600 cpu:           23049.5 elap:             579.3
 (Enter /project/6004141/group/g16/g16/l601.exe)
 Copying SCF densities to generalized density rwf, IOpCl= 1 IROHF=0.

 **********************************************************************

            Population analysis using the SCF density.

 **********************************************************************

 Orbital symmetries:
 Alpha Orbitals:
       Occupied  (A) (A) (A) (A) (A) (A) (A) (A) (A) (A) (A) (A)
                 (A) (A) (A) (A) (A) (A) (A) (A) (A) (A) (A) (A)
                 (A) (A) (A) (A) (A) (A) (A) (A) (A) (A) (A) (A)
                 (A) (A) (A) (A) (A) (A) (A) (A) (A) (A) (A) (A)
                 (A) (A) (A) (A) (A) (A) (A) (A) (A) (A) (A) (A)
                 (A) (A) (A) (A) (A) (A) (A) (A) (A) (A) (A) (A)
                 (A)
       Virtual   (A) (A) (A) (A) (A) (A) (A) (A) (A) (A) (A) (A)
                 (A) (A) (A) (A) (A) (A) (A) (A) (A) (A) (A) (A)
                 (A) (A) (A) (A) (A) (A) (A) (A) (A) (A) (A) (A)
                 (A) (A) (A) (A) (A) (A) (A) (A) (A) (A) (A) (A)
                 (A) (A) (A) (A) (A) (A) (A) (A) (A) (A) (A) (A)
                 (A) (A) (A) (A) (A) (A) (A) (A) (A) (A) (A) (A)
                 (A) (A) (A) (A) (A) (A) (A) (A) (A) (A) (A) (A)
                 (A) (A) (A) (A) (A) (A) (A) (A) (A) (A) (A) (A)
                 (A) (A) (A) (A) (A) (A) (A) (A) (A) (A) (A) (A)
                 (A) (A) (A) (A) (A) (A) (A) (A) (A) (A) (A) (A)
                 (A) (A) (A) (A) (A) (A) (A) (A) (A) (A) (A) (A)
                 (A) (A) (A) (A) (A) (A) (A) (A) (A) (A) (A) (A)
                 (A) (A) (A) (A) (A) (A) (A) (A) (A) (A) (A) (A)
                 (A) (A) (A) (A) (A) (A) (A) (A) (A) (A) (A) (A)
                 (A) (A) (A) (A) (A) (A) (A) (A) (A) (A) (A) (A)
                 (A) (A) (A) (A) (A) (A) (A) (A) (A) (A) (A) (A)
                 (A) (A) (A) (A) (A) (A) (A) (A) (A) (A) (A) (A)
                 (A) (A) (A) (A) (A) (A) (A) (A) (A) (A) (A) (A)
                 (A) (A) (A) (A) (A) (A) (A) (A) (A) (A) (A) (A)
                 (A) (A) (A) (A) (A) (A) (A) (A) (A) (A) (A) (A)
                 (A) (A) (A) (A) (A) (A) (A) (A) (A) (A) (A) (A)
                 (A) (A) (A) (A) (A) (A) (A) (A) (A) (A) (A) (A)
                 (A) (A) (A) (A) (A) (A) (A) (A) (A) (A) (A) (A)
                 (A) (A) (A) (A) (A) (A) (A) (A) (A) (A) (A) (A)
                 (A) (A) (A) (A) (A) (A) (A) (A) (A) (A) (A) (A)
                 (A) (A) (A) (A) (A) (A) (A) (A) (A) (A) (A) (A)
                 (A) (A) (A) (A) (A) (A) (A) (A) (A) (A) (A) (A)
                 (A) (A) (A)
 Beta  Orbitals:
       Occupied  (A) (A) (A) (A) (A) (A) (A) (A) (A) (A) (A) (A)
                 (A) (A) (A) (A) (A) (A) (A) (A) (A) (A) (A) (A)
                 (A) (A) (A) (A) (A) (A) (A) (A) (A) (A) (A) (A)
                 (A) (A) (A) (A) (A) (A) (A) (A) (A) (A) (A) (A)
                 (A) (A) (A) (A) (A) (A) (A) (A) (A) (A) (A) (A)
                 (A) (A) (A) (A) (A) (A) (A) (A) (A) (A) (A) (A)
                 (A)
       Virtual   (A) (A) (A) (A) (A) (A) (A) (A) (A) (A) (A) (A)
                 (A) (A) (A) (A) (A) (A) (A) (A) (A) (A) (A) (A)
                 (A) (A) (A) (A) (A) (A) (A) (A) (A) (A) (A) (A)
                 (A) (A) (A) (A) (A) (A) (A) (A) (A) (A) (A) (A)
                 (A) (A) (A) (A) (A) (A) (A) (A) (A) (A) (A) (A)
                 (A) (A) (A) (A) (A) (A) (A) (A) (A) (A) (A) (A)
                 (A) (A) (A) (A) (A) (A) (A) (A) (A) (A) (A) (A)
                 (A) (A) (A) (A) (A) (A) (A) (A) (A) (A) (A) (A)
                 (A) (A) (A) (A) (A) (A) (A) (A) (A) (A) (A) (A)
                 (A) (A) (A) (A) (A) (A) (A) (A) (A) (A) (A) (A)
                 (A) (A) (A) (A) (A) (A) (A) (A) (A) (A) (A) (A)
                 (A) (A) (A) (A) (A) (A) (A) (A) (A) (A) (A) (A)
                 (A) (A) (A) (A) (A) (A) (A) (A) (A) (A) (A) (A)
                 (A) (A) (A) (A) (A) (A) (A) (A) (A) (A) (A) (A)
                 (A) (A) (A) (A) (A) (A) (A) (A) (A) (A) (A) (A)
                 (A) (A) (A) (A) (A) (A) (A) (A) (A) (A) (A) (A)
                 (A) (A) (A) (A) (A) (A) (A) (A) (A) (A) (A) (A)
                 (A) (A) (A) (A) (A) (A) (A) (A) (A) (A) (A) (A)
                 (A) (A) (A) (A) (A) (A) (A) (A) (A) (A) (A) (A)
                 (A) (A) (A) (A) (A) (A) (A) (A) (A) (A) (A) (A)
                 (A) (A) (A) (A) (A) (A) (A) (A) (A) (A) (A) (A)
                 (A) (A) (A) (A) (A) (A) (A) (A) (A) (A) (A) (A)
                 (A) (A) (A) (A) (A) (A) (A) (A) (A) (A) (A) (A)
                 (A) (A) (A) (A) (A) (A) (A) (A) (A) (A) (A) (A)
                 (A) (A) (A) (A) (A) (A) (A) (A) (A) (A) (A) (A)
                 (A) (A) (A) (A) (A) (A) (A) (A) (A) (A) (A) (A)
                 (A) (A) (A) (A) (A) (A) (A) (A) (A) (A) (A) (A)
                 (A) (A) (A)
 The electronic state is 1-A.
 Alpha  occ. eigenvalues --  -19.14026 -19.13702 -14.41117 -14.40723 -10.24810
 Alpha  occ. eigenvalues --  -10.24609 -10.19544 -10.19298 -10.19065 -10.19031
 Alpha  occ. eigenvalues --  -10.18967 -10.18881 -10.18810 -10.18759 -10.18708
 Alpha  occ. eigenvalues --  -10.18686 -10.18661 -10.18328 -10.17045 -10.16792
 Alpha  occ. eigenvalues --   -1.04771  -1.03191  -0.99932  -0.85604  -0.84990
 Alpha  occ. eigenvalues --   -0.78901  -0.75591  -0.74400  -0.74109  -0.72103
 Alpha  occ. eigenvalues --   -0.71722  -0.71135  -0.64100  -0.62097  -0.60295
 Alpha  occ. eigenvalues --   -0.59657  -0.58858  -0.55705  -0.52903  -0.50727
 Alpha  occ. eigenvalues --   -0.50313  -0.49012  -0.48492  -0.46042  -0.45789
 Alpha  occ. eigenvalues --   -0.44827  -0.44482  -0.44034  -0.43692  -0.41980
 Alpha  occ. eigenvalues --   -0.41812  -0.41751  -0.41151  -0.40741  -0.39568
 Alpha  occ. eigenvalues --   -0.38057  -0.37460  -0.36858  -0.36411  -0.36234
 Alpha  occ. eigenvalues --   -0.35251  -0.34708  -0.33864  -0.33473  -0.32934
 Alpha  occ. eigenvalues --   -0.31008  -0.27595  -0.27185  -0.25980  -0.25375
 Alpha  occ. eigenvalues --   -0.24825  -0.24193  -0.23595
 Alpha virt. eigenvalues --   -0.07002  -0.00825  -0.00595  -0.00240   0.00592
 Alpha virt. eigenvalues --    0.08545   0.09675   0.09835   0.10760   0.12065
 Alpha virt. eigenvalues --    0.13135   0.13333   0.13969   0.14132   0.14885
 Alpha virt. eigenvalues --    0.15466   0.15949   0.16648   0.16938   0.17417
 Alpha virt. eigenvalues --    0.18234   0.18377   0.19444   0.20400   0.21003
 Alpha virt. eigenvalues --    0.22689   0.22904   0.23563   0.24417   0.25737
 Alpha virt. eigenvalues --    0.26001   0.26565   0.27228   0.29245   0.30645
 Alpha virt. eigenvalues --    0.30799   0.32256   0.32980   0.34666   0.34979
 Alpha virt. eigenvalues --    0.35253   0.36329   0.37283   0.45687   0.47266
 Alpha virt. eigenvalues --    0.49445   0.50260   0.51370   0.52839   0.53483
 Alpha virt. eigenvalues --    0.54044   0.54749   0.54960   0.55447   0.55661
 Alpha virt. eigenvalues --    0.56195   0.57017   0.57985   0.58314   0.58501
 Alpha virt. eigenvalues --    0.59335   0.60011   0.60591   0.60910   0.61126
 Alpha virt. eigenvalues --    0.61452   0.61768   0.62575   0.62969   0.63481
 Alpha virt. eigenvalues --    0.64856   0.65815   0.66563   0.66940   0.67954
 Alpha virt. eigenvalues --    0.69112   0.70697   0.71900   0.73425   0.74246
 Alpha virt. eigenvalues --    0.74756   0.76094   0.76998   0.78227   0.80354
 Alpha virt. eigenvalues --    0.80711   0.81258   0.81923   0.82292   0.82594
 Alpha virt. eigenvalues --    0.82736   0.82959   0.83127   0.84270   0.84850
 Alpha virt. eigenvalues --    0.85937   0.86439   0.86854   0.88287   0.89058
 Alpha virt. eigenvalues --    0.89367   0.90242   0.90816   0.91907   0.92866
 Alpha virt. eigenvalues --    0.93504   0.94556   0.95814   0.96405   0.97095
 Alpha virt. eigenvalues --    0.98519   0.99516   0.99915   1.00360   1.02581
 Alpha virt. eigenvalues --    1.03131   1.03783   1.04440   1.06099   1.08880
 Alpha virt. eigenvalues --    1.09839   1.11142   1.12352   1.12906   1.14100
 Alpha virt. eigenvalues --    1.15198   1.16865   1.18184   1.18623   1.21098
 Alpha virt. eigenvalues --    1.23421   1.24905   1.26015   1.26465   1.26898
 Alpha virt. eigenvalues --    1.29568   1.33629   1.34273   1.34701   1.36381
 Alpha virt. eigenvalues --    1.38922   1.39773   1.40173   1.41015   1.41233
 Alpha virt. eigenvalues --    1.41483   1.41983   1.42136   1.42616   1.43011
 Alpha virt. eigenvalues --    1.43437   1.45370   1.47801   1.47966   1.49841
 Alpha virt. eigenvalues --    1.52464   1.55062   1.56566   1.60930   1.63169
 Alpha virt. eigenvalues --    1.64486   1.65031   1.67718   1.70461   1.73534
 Alpha virt. eigenvalues --    1.77022   1.77872   1.78701   1.78996   1.80138
 Alpha virt. eigenvalues --    1.81236   1.83630   1.85556   1.85756   1.86960
 Alpha virt. eigenvalues --    1.87626   1.88490   1.89481   1.89921   1.92174
 Alpha virt. eigenvalues --    1.92397   1.93562   1.94218   1.95390   1.96572
 Alpha virt. eigenvalues --    1.97549   1.98132   1.98842   2.00206   2.00607
 Alpha virt. eigenvalues --    2.00862   2.01863   2.03092   2.04655   2.05269
 Alpha virt. eigenvalues --    2.06185   2.06727   2.07909   2.08076   2.08966
 Alpha virt. eigenvalues --    2.10597   2.10828   2.13011   2.14300   2.14878
 Alpha virt. eigenvalues --    2.15717   2.16224   2.17036   2.21985   2.23600
 Alpha virt. eigenvalues --    2.25836   2.26004   2.26973   2.28465   2.29111
 Alpha virt. eigenvalues --    2.29248   2.32151   2.32284   2.32763   2.36401
 Alpha virt. eigenvalues --    2.36852   2.37826   2.38076   2.38429   2.38697
 Alpha virt. eigenvalues --    2.39229   2.40299   2.41829   2.42143   2.42768
 Alpha virt. eigenvalues --    2.43911   2.45209   2.45301   2.45980   2.46207
 Alpha virt. eigenvalues --    2.47768   2.47963   2.48737   2.50140   2.50958
[...]
 070008,0.00027929,0.00032564,-0.00000281,0.00015795,-0.00006314,0.0001
 0305,-0.00005686,-0.00004983,-0.00007365,0.00014227,0.00011540,0.00008
 237,0.00002557,-0.00000278,-0.00006257,0.00001401,-0.00000834,0.000002
 24,0.00003955,-0.00006446,0.00008108,0.00003030,-0.00003297,-0.0000526
 9,-0.00005633,0.00001462,0.00006646,-0.00001013,0.00000023,0.00000999,
 -0.00001437,-0.00002181,-0.00000799,-0.00000761,-0.00000654,-0.0000047
 2,-0.01506854,0.00946388,0.01426591,0.00010509,-0.00260956,0.00414516,
 0.04866369,-0.07143326,-0.03956926,-0.00018935,-0.00103430,0.00036492,
 -0.00078693,0.00050750,0.00092631,0.02106986,-0.00276054,-0.02137095,-
 0.05617463,0.07586544,0.00036542,0.00066273,-0.00002533,0.00001612,-0.
 00001270,-0.00000963,-0.00136981,-0.00135174,-0.00212415,-0.00025617,0
 .00000181,0.00041633,-0.00027480,0.00006690,-0.00004901,0.00005100,-0.
 00000904,-0.00002284,-0.00008456,0.00001469,-0.00003737,-0.00000936,0.
 00002849,0.00005390,0.00001218,-0.00004375,0.00002105,0.00001901,-0.00
 010425,-0.00004881,-0.00005832,-0.00007661,0.00000809,0.00003969,0.000
 01195,0.00002348,-0.00001169,-0.00001591,0.00005147,-0.00000228,0.0000
 1361,0.00000350,0.00072146,-0.00061998,-0.00013133,-0.00005646,-0.0000
 2640,-0.00005658,-0.00036466,-0.00083808,0.00068809,-0.00020885,-0.000
 09281,0.00022585,0.00016143,0.00017746,0.00005062,-0.00014504,0.000076
 41,0.00017271,-0.00008810,-0.00014011,-0.00016548,0.00005624,0.0000279
 8,-0.00012843,0.00000511,-0.00003089,-0.00003103,-0.00008126,-0.000212
 01,0.00029614,0.00006785,-0.00007837,-0.00014085,-0.00002658,-0.000006
 51,-0.00001171,0.00001272,-0.00000139,0.00000123,0.00001247,0.00005338
 ,-0.00001481,0.00001604,-0.00000862,-0.00002398,0.01413461,-0.00655777
 ,-0.01039463,0.00304587,0.00477804,0.00096968,0.14482602,-0.03952518,-
 0.18368217,-0.00061732,0.00040191,-0.00004212,0.00087294,-0.00033827,-
 0.00050966,-0.00051141,0.00156800,0.00317064,-0.16008993,0.04219333,0.
 18902729,0.00012996,0.00015664,0.00052071,0.00004683,-0.00006015,-0.00
 003972,-0.00140736,-0.00050399,0.00021456,0.00042752,0.00012846,0.0002
 8856,-0.00016381,0.00023559,-0.00033679,-0.00004740,-0.00018005,0.0001
 2702,0.00005207,-0.00011021,-0.00001383,-0.00007654,0.00011806,-0.0000
 7961,-0.00004819,-0.00007987,0.00007565,-0.00009384,0.00021526,-0.0000
 8670,0.00024223,0.00022427,0.00014195,0.00003428,-0.00035843,0.0000248
 4,-0.00001069,0.00003803,-0.00002069,0.00003993,-0.00013415,-0.0000931
 1,-0.00016003,0.00038350,-0.00024851,-0.00007130,-0.00010998,-0.000110
 81,0.00013610,-0.00002804,-0.00014343,-0.00005327,0.00005692,0.0000355
 7,0.00028698,0.00005719,-0.00017417,0.00005898,0.00004591,-0.00003729,
 0.00003373,-0.00024416,0.00019795,0.00002506,0.00015892,0.00002356,0.0
 0000693,0.,-0.00000113,0.00004338,-0.00002697,-0.00008559,-0.00007358,
 0.00006410,-0.00000195,0.00011062,-0.00026818,-0.00009329,-0.00008289,
 0.00006206,0.00005289,0.00000570,0.00012985,0.00002092,-0.00008980,-0.
 00002822,0.00003553,-0.02552855,-0.01163477,0.02826271,0.03354831,-0.0
 2262060,-0.02171780,-0.01218006,0.05446933,-0.00283112,-0.11265212,-0.
 00909622,0.06388912,0.00319507,0.00427816,0.00288596,-0.19453164,0.030
 52060,0.13977074,0.00422514,0.00288076,0.00249487,0.39843369,-0.000939
 14,0.00000447,-0.00038821,0.00001495,0.00000134,0.00004642,0.00023756,
 -0.00022510,0.00021287,0.00033195,-0.00080733,-0.00017278,0.00041694,-
 0.00052654,0.00022318,-0.00011903,-0.00035622,0.00006704,-0.00007485,-
 0.00011425,-0.00011623,-0.00004382,0.00018547,-0.00011793,-0.00003532,
 0.00018990,-0.00014261,0.00030615,0.00032269,0.00014234,0.00021523,0.0
 0011051,0.00005076,0.00003036,-0.00016859,-0.00000102,-0.00002645,0.00
 001713,-0.00005801,0.00006852,-0.00004352,0.00003210,0.00016601,-0.000
 18434,0.00024570,-0.00009707,0.00000924,-0.00000593,-0.00004525,-0.000
 00443,0.00001074,-0.00003086,-0.00008428,-0.00010019,-0.00010909,-0.00
 005499,0.00012299,0.00004525,0.00006027,0.00001195,0.00007319,-0.00005
 450,-0.00006026,-0.00001463,0.00001430,-0.00000311,-0.00002237,0.00000
 321,0.00001620,-0.00003909,0.00000770,-0.00000755,-0.00005053,-0.00003
 933,0.00004467,0.00004322,0.00001888,-0.00002202,0.00001444,0.00000229
 ,-0.00001015,0.00001399,0.00002075,-0.00000485,0.00000824,0.00000179,-
 0.00000081,-0.01239755,-0.00283985,0.01229458,0.00797893,-0.04563434,0
 .01464869,0.02416118,0.00364996,-0.02611495,-0.05039564,-0.22146475,0.
 13185892,0.00380016,-0.00305304,0.00037737,0.07182080,-0.13658877,-0.0
 4826709,0.00336290,-0.00436864,0.00123631,-0.13968430,0.69030459,0.000
 28760,0.00014209,-0.00021243,-0.00003424,-0.00005672,0.00000513,0.0005
 0519,0.00027285,-0.00134876,-0.00086973,0.00017890,-0.00014908,-0.0000
 9667,0.00003469,0.00016072,0.00028729,0.00052850,0.00000131,-0.0000998
 1,0.00020519,0.00002164,0.00002342,-0.00004853,0.00012936,0.00003205,-
 0.00005250,0.00001125,-0.00001167,-0.00048997,-0.00006477,-0.00026032,
 -0.00024056,-0.00008109,-0.00003770,0.00027514,-0.00002341,0.00005306,
 -0.00002222,0.00003270,-0.00005138,0.00014440,0.00006648,0.00002906,-0
 .00039014,0.00029125,0.00007877,0.00006905,0.00016864,0.00000219,0.000
 18003,0.00015526,0.00012376,-0.00012033,-0.00013655,-0.00021291,-0.000
 26494,0.00017263,0.00001459,0.00005370,-0.00001488,-0.00004858,0.00027
 439,-0.00000152,0.00002459,-0.00002069,-0.00000012,-0.00000020,0.00000
 028,-0.00000928,0.00016088,-0.00004679,0.00000009,0.00015492,-0.000130
 66,0.00003598,-0.00002976,-0.00004532,-0.00004601,-0.00001185,0.000008
 71,0.00001490,0.00001000,0.00005028,0.00001045,-0.00000682,-0.00000105
 ,0.00000535,0.02770720,0.01217967,-0.04406045,-0.03414814,0.04945175,0
 .02482826,0.01082496,-0.06187465,0.02136000,0.08227549,0.08440950,-0.1
 9513323,0.00324038,-0.00014740,0.00404353,0.12085457,-0.00036115,-0.20
 005596,0.00207000,0.00204699,0.00396738,-0.24402528,-0.09519587,0.4562
 6129,0.00017976,0.00003555,0.00013340,-0.00000822,-0.00000464,0.000004
 14,-0.00016148,-0.00042831,0.00047918,0.00008109,0.00013526,-0.0000167
 4,-0.00011626,0.00013530,-0.00008174,0.00004270,0.00004976,0.00000379,
 -0.00003637,-0.00006339,-0.00003736,0.00001742,-0.00000229,0.00001849,
 0.00001574,-0.00005385,0.00004155,-0.00007440,-0.00008092,-0.00001115,
 -0.00003476,0.00001112,-0.00000395,0.00003080,0.00000159,0.00002464,0.
 00001013,-0.00001011,0.00001136,-0.00002861,0.00000800,-0.00001969,-0.
 00012481,0.00029549,-0.00006978,0.00001513,-0.00001108,-0.00001803,0.0
 0000700,-0.00003473,-0.00002046,-0.00002651,0.00007706,0.00008617,0.00
 001556,-0.00002794,-0.00001279,0.00002365,0.00000628,-0.00004011,-0.00
 003812,-0.00001152,-0.00004181,-0.00002181,-0.00000444,0.00003371,0.00
 000995,0.00000801,0.00000037,0.00004373,0.00001160,-0.00002656,0.00000
 243,0.00002749,0.00003728,-0.00000837,-0.00004449,0.00000782,-0.000016
 06,0.00000367,0.00000566,-0.00000783,0.00001972,0.00000380,-0.00001150
 ,0.00000456,0.00001208,0.00409940,0.00336298,0.00219702,-0.00483537,0.
 00095101,0.00817375,0.00003874,-0.00013320,-0.00062756,-0.17963780,0.0
 5018426,0.14218446,-0.00178018,-0.00089860,-0.00235727,0.00422135,-0.0
 0048859,0.00351537,-0.00070057,-0.00022951,-0.00050909,-0.00304667,0.0
 0380843,0.00504534,0.18367889,-0.00019763,-0.00004459,-0.00017772,0.00
 000829,-0.00000540,-0.00000036,0.00088912,0.00076813,-0.00117876,-0.00
 017872,-0.00017674,0.00008560,0.00014919,-0.00015363,0.00012842,-0.000
 03585,-0.00003914,0.00000651,0.00003633,0.00001968,0.00000198,-0.00001
 453,0.00002300,-0.00001489,-0.00002928,0.00005976,-0.00004884,0.000098
 76,0.00006933,0.00007460,0.00003658,0.00000136,0.00000466,-0.00002322,
 -0.00000437,-0.00002163,-0.00000493,-0.00000023,-0.00000705,0.00001798
 ,-0.00000765,0.00003186,0.00014115,-0.00034638,0.00018990,-0.00002196,
 0.00000857,-0.00001337,0.00001107,0.00002190,-0.00001124,0.00001694,-0
 .00007951,-0.00013300,-0.00005861,-0.00004237,0.00003214,0.00001839,0.
 00001474,0.00000944,0.00000479,0.00000315,0.00000459,0.00000423,0.0000
 0311,-0.00000638,-0.00001008,-0.00000118,0.00000276,0.00000029,-0.0000
 0482,-0.00000655,-0.00000501,-0.00001530,-0.00000354,0.00001593,0.0000
 0880,-0.00001127,0.00000359,0.00000286,-0.00000234,0.00000559,0.000007
 18,-0.00000118,0.00000067,-0.00000197,-0.00000275,0.00301226,-0.004490
 69,0.00217408,0.02059886,-0.00271448,-0.02122118,-0.00019686,-0.001074
 09,0.00042614,0.05006742,-0.07338529,-0.04102996,-0.00131227,0.0005452
 3,-0.00070866,0.00027952,-0.00225099,0.00396990,-0.00022316,0.00007263
 ,-0.00033031,-0.01592149,0.00942358,0.01535360,-0.05569306,0.07295072,
 -0.00009791,-0.00000990,-0.00007687,0.00000020,0.00003040,0.00000599,0
 .00005337,0.00047237,-0.00003896,0.00002047,-0.00028376,0.00005450,0.0
 0008306,-0.00012118,0.00006403,-0.00001460,-0.00007714,-0.00002889,0.0
 0003838,0.00002165,0.00000301,-0.00000486,-0.00001085,-0.00000648,-0.0
 0001154,0.00005137,-0.00003236,0.00005718,0.00007502,0.00005351,0.0000
 1778,0.00000911,0.00000807,-0.00001080,-0.00001054,-0.00001515,-0.0000
 0974,-0.00000605,0.00000138,0.00002219,-0.00001633,0.00001688,0.000040
 26,0.00000836,0.00006558,-0.00000888,0.00000687,-0.00001545,-0.0000155
 8,-0.00000666,0.00000153,-0.00001295,0.00000745,-0.00001072,-0.0000291
 8,0.00003749,0.00000891,-0.00004347,-0.00002984,0.00005352,0.00004997,
 0.00002984,-0.00000030,0.00001734,-0.00003049,-0.00003605,-0.00000735,
 -0.00000848,-0.00000166,-0.00007695,0.00000081,0.00004818,0.00001836,-
 0.00003455,-0.00003761,-0.00001808,0.00010505,0.00002192,0.00003352,-0
 .00001931,-0.00002065,0.00000339,-0.00006008,-0.00000928,0.00003208,0.
 00000181,-0.00001994,0.00246596,0.00128484,0.00394659,-0.00082442,0.00
 134621,0.00292954,-0.00062690,0.00031837,-0.00011218,0.14217013,-0.040
 86882,-0.18123916,-0.00220810,-0.00105061,-0.00117325,0.00326227,0.004
 85588,0.00123411,-0.00049138,-0.00032359,-0.00048782,0.01399130,-0.007
 46246,-0.00992025,-0.15644797,0.04274941,0.18631502,0.00000662,0.00002
 240,0.00002481,-0.00000156,-0.00000716,-0.00000224,0.00039231,0.000143
 30,-0.00025638,0.00000004,0.00042175,-0.00019142,-0.00001875,-0.000003
 90,-0.00000840,-0.00000835,0.00001602,0.00000839,0.00003883,0.00000444
 ,0.00001907,0.00000104,-0.00000461,-0.00001306,0.00002702,-0.00000896,
 0.00000607,-0.00005775,-0.00001483,-0.00001140,0.00000887,0.00000438,-
 0.00000166,-0.00000141,-0.00000271,-0.00000564,-0.00000052,0.00000005,
 -0.00000120,-0.00000151,0.00000047,0.00000048,0.00005529,-0.00010875,-
 0.00004432,0.00000908,-0.00000161,0.00000317,-0.00003302,-0.00000998,0
 .00001227,-0.00000589,-0.00000678,0.00000669,0.00000592,-0.00000652,-0
 .00001487,0.00001327,0.00000186,-0.00000698,0.00000062,-0.00000728,0.0
 0002650,-0.00000198,0.00000227,0.00001122,0.00000146,0.00000123,0.0000
 0011,0.00002183,-0.00000936,-0.00001267,0.00000086,-0.00000165,-0.0000
 0718,0.00000855,-0.00002051,-0.00000082,-0.00000526,0.00000254,0.00000
 155,-0.00000074,0.00000830,0.00000059,-0.00000456,0.00000043,0.0000018
 5,0.00309335,0.00380460,0.00315790,-0.00074076,0.00046971,-0.00006885,
 0.00672675,0.00890143,-0.00883416,0.00106440,0.00345057,0.00541434,-0.
 00051435,-0.00032788,-0.00055753,-0.07495855,-0.05407425,0.06942939,-0
 .00167616,-0.00118983,-0.00221192,-0.00269796,-0.01622638,0.01379068,-
 0.00013925,-0.00079656,0.00085573,0.07100930,-0.00020112,-0.00000718,-
 0.00018625,0.00000274,-0.00000230,0.00000863,-0.00079758,0.00061491,0.
 00094603,-0.00014691,-0.00090080,0.00016823,0.00018514,-0.00017696,0.0
 0011435,-0.00006738,-0.00003829,0.00000358,0.00004885,0.00002111,0.000
 01599,-0.00001493,0.00002240,-0.00004609,-0.00006865,0.00008129,-0.000
 05870,0.00018449,0.00008399,0.00009138,0.00005742,-0.00000424,-0.00000
 505,-0.00001185,-0.00001232,-0.00002097,-0.00001008,0.00000101,-0.0000
 1735,0.00002184,-0.00000841,0.00003582,0.00004639,-0.00004025,0.000085
 46,-0.00000880,0.00001155,-0.00001615,-0.00001515,0.00001487,-0.000005
 49,0.00000341,-0.00006294,-0.00004536,-0.00005398,-0.00003198,0.000043
 50,0.00000218,0.00002102,0.00001701,0.00001954,0.00002762,0.00000451,0
 .00000816,-0.00000330,-0.00001294,-0.00000924,-0.00000135,0.00000456,-
 0.00002685,-0.00001600,0.00000832,-0.00001474,-0.00003308,-0.00003122,
 0.00001343,0.00002679,-0.00001138,0.00001448,-0.00000469,-0.00000958,0
 .00000703,-0.00000230,-0.00000126,0.00001387,0.00000230,-0.00000709,0.
 00461237,-0.00354486,-0.00028517,0.00052880,-0.00034700,-0.00076122,-0
 .01065684,-0.01503233,0.02052183,0.00268901,0.00107961,-0.00035787,-0.
 00034379,-0.00007227,-0.00011070,-0.05406092,-0.18373913,0.12972793,-0
 .00088744,0.00047904,-0.00103906,0.00353065,0.00907145,-0.00693897,0.0
 0025281,0.00037143,-0.00032865,0.05638278,0.19178551,0.00009906,0.0000
 2875,0.00008937,0.00000725,-0.00002802,-0.00001098,0.00005297,-0.00032
 676,0.00016806,-0.00000886,0.00028661,-0.00009924,-0.00007001,0.000097
 75,-0.00005685,0.00003296,0.00002682,0.00000193,-0.00002831,-0.0000319
 1,-0.00002130,-0.00000737,0.00002092,0.00002179,0.00001123,-0.00004341
 ,0.00002741,-0.00007710,-0.00006212,-0.00002856,-0.00001084,-0.0000070
 4,-0.00001062,0.00001802,0.00000237,0.00001390,0.00000249,-0.00000243,
 0.00000338,-0.00001427,0.00000946,-0.00000975,-0.00002745,0.00003045,-
 0.00005489,0.00001333,-0.00000983,-0.00001312,0.00000616,-0.00001334,-
 0.00002169,-0.00000449,0.00000544,0.00002754,0.00001861,-0.00002793,-0
 .00004152,0.00004915,0.00001132,-0.00003217,-0.00006044,-0.00003929,0.
 00003156,-0.00000525,0.00003614,0.00002334,0.00000337,0.00000255,-0.00
 000068,0.00006832,0.00000485,-0.00006512,-0.00000636,0.00003203,0.0000
 2216,0.00002888,-0.00008863,-0.00002056,-0.00003338,0.00002239,0.00002
 068,-0.00000378,0.00004853,0.00000548,-0.00003606,-0.00000858,0.000015
 51,0.00287333,0.00043377,0.00389830,-0.00015723,-0.00074884,-0.0001153
 3,0.00012278,-0.00232468,0.00368795,0.00577802,-0.00118743,0.00100272,
 -0.00054334,-0.00009164,-0.00045574,0.06933724,0.12992237,-0.17586551,
 -0.00226318,-0.00071412,-0.00110788,0.00473125,0.01588889,-0.00991841,
 0.00040898,0.00087643,-0.00056612,-0.07817663,-0.14094135,0.18046333,0
 .00008881,0.00009485,0.00009674,-0.00000704,0.00000918,0.00000415,-0.0
 0063347,-0.00016809,-0.00050189,0.00002870,0.00006596,-0.00007922,-0.0
 0009624,0.00009739,-0.00006821,0.00000610,0.00003157,0.00000484,-0.000
 00180,-0.00001511,-0.00000690,0.00001591,-0.00001642,0.00000442,-0.000
 00209,-0.00002495,0.00001746,-0.00000523,-0.00002274,0.00000442,0.0000
 0905,0.00000313,0.00000077,0.00000403,-0.00000692,0.00001580,-0.000004
 85,0.00001028,-0.00000776,-0.00000544,0.00000043,-0.00001567,-0.000020
 13,0.00000294,-0.00001956,0.00000509,-0.00001431,0.00000808,0.00004651
 ,-0.00003434,-0.00005162,0.00003286,0.00004867,-0.00002378,0.00000750,
 -0.00001390,0.00000937,0.00000008,-0.00000302,-0.00002393,-0.00001159,
 -0.00000014,-0.00005742,-0.00001604,-0.00001666,0.00001575,0.00000570,
 0.00000557,0.00000138,0.00001728,0.00001770,0.00000010,0.00000711,0.00
 001592,0.00002012,-0.00001702,0.00000260,0.00001876,0.00000121,-0.0000
 0628,-0.00000320,-0.00000674,-0.00000819,-0.00000007,0.00000397,0.0000
 0704,0.00000296,-0.00071644,-0.00071246,0.00025540,0.00346904,-0.00005
 035,0.00448447,0.00140864,0.00132810,0.00625979,0.00688547,-0.01038956
 ,-0.00021392,0.00033647,-0.00048817,0.00010959,-0.00415809,0.02056348,
 -0.00175177,-0.00022415,0.00106415,0.00004658,-0.08806681,0.10343299,0
 .01234908,-0.00167851,-0.00069371,-0.00227231,-0.00161709,-0.00122916,
 -0.00212908,0.08490924,-0.00009484,0.00005826,-0.00005035,0.00000570,0
 .00002657,-0.00000392,-0.00031383,0.00020417,-0.00022564,0.00008544,-0
 .00034788,-0.00003855,0.00006927,-0.00010876,0.00004184,-0.00003055,-0
 .00005898,-0.00003085,0.00006847,0.00007232,0.00006609,-0.00001825,-0.
 00002353,-0.00001210,-0.00002507,0.00005653,-0.00003562,0.00006277,0.0
 0011080,0.00004778,0.00003006,-0.00000418,0.00001516,-0.00003040,-0.00
 001797,-0.00002268,-0.00001551,0.00001370,-0.00001050,0.00004066,-0.00
 002133,0.00001264,0.00008497,-0.00008403,-0.00000462,-0.00001093,0.000
 00314,0.00000409,-0.00002661,0.00000784,0.00002563,0.00000296,-0.00002
 586,-0.00002072,-0.00000969,0.00005807,0.00000032,-0.00006033,-0.00003
 082,0.00007563,0.00006692,0.00002636,0.00003324,0.00003375,-0.00001927
 ,-0.00005518,-0.00001043,-0.00001320,-0.00000434,-0.00009234,-0.000010
 21,0.00006440,0.00001735,-0.00004420,-0.00006029,-0.00001208,0.0001098
 2,0.00001258,0.00003600,-0.00001733,-0.00001893,0.00000786,-0.00006260
 ,-0.00000934,0.00003263,-0.00000240,-0.00002436,-0.00046566,0.00034527
 ,0.00007467,-0.00089506,-0.00015962,0.00444825,0.00198388,0.00203354,0
 .00005096,0.00955848,-0.01482146,-0.00299169,0.00050925,-0.00079286,-0
 .00015512,0.00087067,-0.00313984,0.00178111,0.00007471,-0.00028826,0.0
 0014676,0.10333554,-0.29680672,0.00058875,-0.00116927,0.00046368,-0.00
 065300,-0.00080900,0.00036606,-0.00109053,-0.11288749,0.31294519,0.000
 06354,0.00010047,0.00001861,-0.00000701,0.00002448,0.00000673,-0.00056
 222,0.00002326,-0.00042561,-0.00016704,0.00003216,0.00015111,-0.000070
 36,0.00003530,-0.00002132,0.00002092,0.00001311,-0.00000627,-0.0000301
 9,0.00000309,-0.00001463,0.00002184,-0.00002566,0.00001825,0.00001047,
 -0.00001102,0.00000469,0.00000330,-0.00004800,-0.00003660,0.00000495,-
 0.00000595,-0.00001370,0.00000993,0.00000827,0.00000745,-0.00001012,-0
 .00000570,0.00001265,-0.00000496,-0.00000068,-0.00000012,0.00006921,-0
 .00003855,-0.00004224,-0.00000038,-0.00000401,0.00001093,-0.00004037,-
 0.00002133,0.00003334,-0.00000394,0.00001073,0.00000444,0.00000963,0.0
 0003388,0.00000465,-0.00004394,-0.00001712,0.00003032,0.00004488,0.000
 01316,-0.00001090,0.00000467,-0.00002254,-0.00001645,0.00000107,-0.000
 00201,-0.00000328,-0.00004023,-0.00000197,0.00004696,0.00001447,-0.000
 01298,-0.00003054,-0.00002498,0.00005625,0.00002154,0.00002105,-0.0000
 1640,-0.00001317,-0.00000182,-0.00003809,-0.00000454,0.00002268,0.0000
 0555,-0.00001070,0.00024067,-0.00005270,-0.00105937,0.00480748,0.00363
 646,0.00011293,0.00599797,0.00090490,0.00007652,-0.00943009,0.01969054
 ,0.00436153,-0.00033250,0.00093326,0.00019196,0.00751282,-0.02114332,0
 .00363882,0.00046693,-0.00105529,0.00009818,0.01235517,0.00072032,-0.0
 5056739,-0.00208632,-0.00119104,-0.00098315,-0.00234347,-0.00055926,-0
 .00100832,-0.01650373,-0.00197157,0.04541671\\0.00000037,0.00000215,0.
 00000036,-0.00000023,-0.00000026,0.00000084,0.00000005,0.00000033,-0.0
 0000007,-0.00000018,0.00000032,0.00000072,0.00000031,-0.00000102,-0.00
 000005,-0.00000138,0.00000116,0.00000025,0.00000046,-0.00000010,0.0000
 0103,-0.00000006,-0.00000119,0.00000029,0.00000040,0.00000043,0.000000
 54,0.00000050,-0.00000054,0.00000070,0.00000010,0.00000036,-0.00000009
 ,0.00000032,0.00000003,-0.00000013,0.00000014,0.00000051,0.00000034,0.
 00000058,0.00000053,0.00000015,0.00000019,0.00000021,-0.00000024,-0.00
 000062,-0.00000059,0.00000041,-0.00000039,-0.00000054,0.00000049,-0.00
 000006,-0.00000027,0.00000053,0.00000014,-0.00000147,-0.00000030,-0.00
 000086,-0.00000040,0.00000019,-0.00000020,0.00000082,-0.00000028,0.000
 00040,0.,-0.00000078,0.00000014,0.00000024,0.00000006,-0.00000014,-0.0
 0000039,-0.00000045,0.00000045,-0.00000004,-0.00000069,-0.00000036,-0.
 00000039,-0.00000047,-0.00000043,-0.00000016,-0.00000007,0.00000010,0.
 00000026,-0.00000092,-0.00000002,-0.00000023,-0.00000088,-0.00000008,0
 .00000048,-0.00000009,0.00000041,-0.00000033,0.00000007,-0.00000005,-0
 .00000072,0.00000002,0.00000002,-0.00000005,0.00000016,0.00000011,0.00
 000052,0.00000016,-0.00000047,-0.00000023,0.00000014,-0.00000020,-0.00
 000019,-0.00000014,-0.00000005,0.00000035,-0.00000031,0.00000043,0.000
 00044,-0.00000028,0.00000011,0.,-0.00000087,0.00000003,0.00000001,-0.0
 0000036\\\@


 THE PROBLEM WITH THE LADDER OF SUCCESS IS YOU CAN'T
 CLIMB IT WHILE YOU'RE TWIDDLING YOUR THUMBS.
 Job cpu time:       0 days 10 hours 23 minutes 35.9 seconds.
 Elapsed time:       0 days  0 hours 16 minutes  3.2 seconds.
 File lengths (MBytes):  RWF=   1394 Int=      0 D2E=      0 Chk=     25 Scr=      2
 Normal termination of Gaussian 16 at Sat Jun 15 00:33:04 2019.
