 Entering Gaussian System, Link 0=g16
 Initial command:
 /project/6004141/group/g16/g16/l1.exe "/scratch/rzk/Gau-292844.inp" -scrdir="/scratch/rzk/"
 Entering Link 1 = /project/6004141/group/g16/g16/l1.exe PID=    292846.
  
 Copyright (c) 1988,1990,1992,1993,1995,1998,2003,2009,2016,
            Gaussian, Inc.  All Rights Reserved.
  
 This is part of the Gaussian(R) 16 program.  It is based on
 the Gaussian(R) 09 system (copyright 2009, Gaussian, Inc.),
 the Gaussian(R) 03 system (copyright 2003, Gaussian, Inc.),
 the Gaussian(R) 98 system (copyright 1998, Gaussian, Inc.),
 the Gaussian(R) 94 system (copyright 1995, Gaussian, Inc.),
 the Gaussian 92(TM) system (copyright 1992, Gaussian, Inc.),
 the Gaussian 90(TM) system (copyright 1990, Gaussian, Inc.),
 the Gaussian 88(TM) system (copyright 1988, Gaussian, Inc.),
 the Gaussian 86(TM) system (copyright 1986, Carnegie Mellon
 University), and the Gaussian 82(TM) system (copyright 1983,
 Carnegie Mellon University). Gaussian is a federally registered
 trademark of Gaussian, Inc.
  
 This software contains proprietary and confidential information,
 including trade secrets, belonging to Gaussian, Inc.
  
 This software is provided under written license and may be
 used, copied, transmitted, or stored only in accord with that
 written license.
  
 The following legend is applicable only to US Government
 contracts under FAR:
  
                    RESTRICTED RIGHTS LEGEND
  
 Use, reproduction and disclosure by the US Government is
 subject to restrictions as set forth in subparagraphs (a)
 and (c) of the Commercial Computer Software - Restricted
 Rights clause in FAR 52.227-19.
  
 Gaussian, Inc.
 340 Quinnipiac St., Bldg. 40, Wallingford CT 06492
  
  
 ---------------------------------------------------------------
 Warning -- This program may not be used in any manner that
 competes with the business of Gaussian, Inc. or will provide
 assistance to any competitor of Gaussian, Inc.  The licensee
 of this program is prohibited from giving any competitor of
 Gaussian, Inc. access to this program.  By using this program,
 the user acknowledges that Gaussian, Inc. is engaged in the
 business of creating and licensing software in the field of
 computational chemistry and represents and warrants to the
 licensee that it is not a competitor of Gaussian, Inc. and that
 it will not use this program in any manner prohibited above.
 ---------------------------------------------------------------
  

 Cite this work as:
 Gaussian 16, Revision A.03,
 M. J. Frisch, G. W. Trucks, H. B. Schlegel, G. E. Scuseria, 
 M. A. Robb, J. R. Cheeseman, G. Scalmani, V. Barone, 
 G. A. Petersson, H. Nakatsuji, X. Li, M. Caricato, A. V. Marenich, 
 J. Bloino, B. G. Janesko, R. Gomperts, B. Mennucci, H. P. Hratchian, 
 J. V. Ortiz, A. F. Izmaylov, J. L. Sonnenberg, D. Williams-Young, 
 F. Ding, F. Lipparini, F. Egidi, J. Goings, B. Peng, A. Petrone, 
 T. Henderson, D. Ranasinghe, V. G. Zakrzewski, J. Gao, N. Rega, 
 G. Zheng, W. Liang, M. Hada, M. Ehara, K. Toyota, R. Fukuda, 
 J. Hasegawa, M. Ishida, T. Nakajima, Y. Honda, O. Kitao, H. Nakai, 
 T. Vreven, K. Throssell, J. A. Montgomery, Jr., J. E. Peralta, 
 F. Ogliaro, M. J. Bearpark, J. J. Heyd, E. N. Brothers, K. N. Kudin, 
 V. N. Staroverov, T. A. Keith, R. Kobayashi, J. Normand, 
 K. Raghavachari, A. P. Rendell, J. C. Burant, S. S. Iyengar, 
 J. Tomasi, M. Cossi, J. M. Millam, M. Klene, C. Adamo, R. Cammi, 
 J. W. Ochterski, R. L. Martin, K. Morokuma, O. Farkas, 
 J. B. Foresman, and D. J. Fox, Gaussian, Inc., Wallingford CT, 2016.
 
 ******************************************
 Gaussian 16:  ES64L-G16RevA.03 25-Dec-2016
                12-Jun-2019 
 ******************************************
 %NProcShared=40
 Will use up to   40 processors via shared memory.
 %chk=AABH-irc.chk
 ----------------------------------------------------------------------
 #p irc=(calcfc,maxpoints=20,recalc=3) ub3lyp/6-31g(d,p) scrf=(iefpcm,s
 olvent=acetonitrile) guess=(mix,always) empiricaldispersion=gd3
 ----------------------------------------------------------------------
 1/10=4,18=10,26=3,38=1,42=20,44=3,71=3,172=1/1,23;
 2/12=2,17=6,18=5,29=1,40=1/2;
 3/5=1,6=6,7=101,11=2,25=1,30=1,70=2201,71=2,72=2,74=-5,116=2,124=31,140=1/1,2,3;
 4/13=-1/1;
 5/5=2,38=5,53=2/2;
 8/6=4,10=90,11=11/1;
 11/6=1,8=1,9=11,15=111,16=1/1,2,10;
 10/6=1,13=1/2;
 6/7=2,8=2,9=2,10=2,28=1/1;
 7/10=1,18=20,25=1/1,2,3,16;
 1/10=4,18=10,26=3,42=20,44=3,71=3/23(2);
 2/29=1/2;
 99/5=20/99;
 2/29=1/2;
 3/5=1,6=6,7=101,11=2,25=1,30=1,70=2205,71=2,72=2,74=-5,116=2,124=31,140=1/1,2,3;
 4/13=-1/1;
 5/5=2,38=5,53=2/2;
 8/6=4,10=90,11=11/1;
 11/6=1,8=1,9=11,15=111,16=1/1,2,10;
 10/6=1,13=1/2;
 7/10=1,18=20,25=1/1,2,3,16;
 1/18=10,26=3,42=20,44=3,71=3/23(-8);
 2/29=1/2;
 6/7=2,8=2,9=2,10=2,19=2,28=1/1;
 99/5=20,9=1/99;
 Leave Link    1 at Wed Jun 12 01:18:39 2019, MaxMem=           0 cpu:               8.8 elap:               0.2
 (Enter /project/6004141/group/g16/g16/l101.exe)
 -------------------
 Title Card Required
 -------------------
 Symbolic Z-matrix:
 Charge =  0 Multiplicity = 1
 C                     0.04082  -0.77886   1.23221 
 H                    -3.56592  -1.89447  -1.88009 
 C                    -1.11342   0.26518  -0.24681 
 O                    -2.25255   0.23437   0.39571 
 O                    -0.87969  -1.78114   1.45722 
 N                    -4.16349  -1.35423  -0.2009 
 H                    -4.9347   -1.35511   0.46403 
 N                    -4.40341  -1.99999  -1.2903 
 H                    -1.75013  -1.32696   1.43475 
 H                    -3.31457  -0.69471  -0.01586 
 C                     0.08902   0.23566   2.35034 
 H                     0.73164   1.08623   2.12574 
 H                    -0.9196    0.61485   2.53488 
 H                     0.45169  -0.24886   3.26532 
 C                    -0.99775  -0.6932   -1.4217 
 H                    -1.66818  -0.34855  -2.21895 
 H                     0.00752  -0.77292  -1.83302 
 H                    -1.30664  -1.69051  -1.09827 
 C                     1.27597  -1.24848   0.60533 
 C                     1.33326  -2.52407  -0.00131 
 C                     2.4312   -0.43732   0.54738 
 C                     2.48817  -2.96084  -0.64213 
 H                     0.45947  -3.16276   0.04445 
 C                     3.58305  -0.87894  -0.09867 
 H                     2.42537   0.54712   0.99886 
 C                     3.62053  -2.1409   -0.69895 
 H                     2.50805  -3.94655  -1.09827 
 H                     4.45675  -0.23453  -0.13227 
 H                     4.52087  -2.48275  -1.20041 
 C                    -0.41832   1.58107  -0.33842 
 C                    -0.93974   2.68223   0.36629 
 C                     0.7572    1.76775  -1.08919 
 C                    -0.30438   3.92085   0.33228 
 H                    -1.85263   2.54271   0.93378 
 C                     1.39326   3.00871  -1.12149 
 H                     1.18945   0.94181  -1.64059 
 C                     0.86885   4.09056  -0.41003 
 H                    -0.72567   4.75793   0.88199 
 H                     2.30179   3.12943  -1.70449 
 H                     1.36542   5.05599  -0.43743 
 
 ITRead=  0  0  0  0  0  0  0  0  0  0  0  0  0  0  0  0  0  0  0  0
 ITRead=  0  0  0  0  0  0  0  0  0  0  0  0  0  0  0  0  0  0  0  0
 MicOpt= -1 -1 -1 -1 -1 -1 -1 -1 -1 -1 -1 -1 -1 -1 -1 -1 -1 -1 -1 -1
 MicOpt= -1 -1 -1 -1 -1 -1 -1 -1 -1 -1 -1 -1 -1 -1 -1 -1 -1 -1 -1 -1
 NAtoms=     40 NQM=       40 NQMF=       0 NMMI=      0 NMMIF=      0
                NMic=       0 NMicF=      0.
                    Isotopes and Nuclear Properties:
 (Nuclear quadrupole moments (NQMom) in fm**2, nuclear magnetic moments (NMagM)
  in nuclear magnetons)

  Atom         1           2           3           4           5           6           7           8           9          10
 IAtWgt=          12           1          12          16          16          14           1          14           1           1
 AtmWgt=  12.0000000   1.0078250  12.0000000  15.9949146  15.9949146  14.0030740   1.0078250  14.0030740   1.0078250   1.0078250
 NucSpn=           0           1           0           0           0           2           1           2           1           1
 AtZEff=  -0.0000000  -0.0000000  -0.0000000  -0.0000000  -0.0000000  -0.0000000  -0.0000000  -0.0000000  -0.0000000  -0.0000000
 NQMom=    0.0000000   0.0000000   0.0000000   0.0000000   0.0000000   2.0440000   0.0000000   2.0440000   0.0000000   0.0000000
 NMagM=    0.0000000   2.7928460   0.0000000   0.0000000   0.0000000   0.4037610   2.7928460   0.4037610   2.7928460   2.7928460
 AtZNuc=   6.0000000   1.0000000   6.0000000   8.0000000   8.0000000   7.0000000   1.0000000   7.0000000   1.0000000   1.0000000

  Atom        11          12          13          14          15          16          17          18          19          20
 IAtWgt=          12           1           1           1          12           1           1           1          12          12
 AtmWgt=  12.0000000   1.0078250   1.0078250   1.0078250  12.0000000   1.0078250   1.0078250   1.0078250  12.0000000  12.0000000
 NucSpn=           0           1           1           1           0           1           1           1           0           0
 AtZEff=  -0.0000000  -0.0000000  -0.0000000  -0.0000000  -0.0000000  -0.0000000  -0.0000000  -0.0000000  -0.0000000  -0.0000000
 NQMom=    0.0000000   0.0000000   0.0000000   0.0000000   0.0000000   0.0000000   0.0000000   0.0000000   0.0000000   0.0000000
 NMagM=    0.0000000   2.7928460   2.7928460   2.7928460   0.0000000   2.7928460   2.7928460   2.7928460   0.0000000   0.0000000
 AtZNuc=   6.0000000   1.0000000   1.0000000   1.0000000   6.0000000   1.0000000   1.0000000   1.0000000   6.0000000   6.0000000

  Atom        21          22          23          24          25          26          27          28          29          30
 IAtWgt=          12          12           1          12           1          12           1           1           1          12
 AtmWgt=  12.0000000  12.0000000   1.0078250  12.0000000   1.0078250  12.0000000   1.0078250   1.0078250   1.0078250  12.0000000
 NucSpn=           0           0           1           0           1           0           1           1           1           0
 AtZEff=  -0.0000000  -0.0000000  -0.0000000  -0.0000000  -0.0000000  -0.0000000  -0.0000000  -0.0000000  -0.0000000  -0.0000000
 NQMom=    0.0000000   0.0000000   0.0000000   0.0000000   0.0000000   0.0000000   0.0000000   0.0000000   0.0000000   0.0000000
 NMagM=    0.0000000   0.0000000   2.7928460   0.0000000   2.7928460   0.0000000   2.7928460   2.7928460   2.7928460   0.0000000
 AtZNuc=   6.0000000   6.0000000   1.0000000   6.0000000   1.0000000   6.0000000   1.0000000   1.0000000   1.0000000   6.0000000

  Atom        31          32          33          34          35          36          37          38          39          40
 IAtWgt=          12          12          12           1          12           1          12           1           1           1
 AtmWgt=  12.0000000  12.0000000  12.0000000   1.0078250  12.0000000   1.0078250  12.0000000   1.0078250   1.0078250   1.0078250
 NucSpn=           0           0           0           1           0           1           0           1           1           1
 AtZEff=  -0.0000000  -0.0000000  -0.0000000  -0.0000000  -0.0000000  -0.0000000  -0.0000000  -0.0000000  -0.0000000  -0.0000000
 NQMom=    0.0000000   0.0000000   0.0000000   0.0000000   0.0000000   0.0000000   0.0000000   0.0000000   0.0000000   0.0000000
 NMagM=    0.0000000   0.0000000   0.0000000   2.7928460   0.0000000   2.7928460   0.0000000   2.7928460   2.7928460   2.7928460
 AtZNuc=   6.0000000   6.0000000   6.0000000   1.0000000   6.0000000   1.0000000   6.0000000   1.0000000   1.0000000   1.0000000
 Leave Link  101 at Wed Jun 12 01:18:40 2019, MaxMem=   104857600 cpu:               6.8 elap:               0.2
 (Enter /project/6004141/group/g16/g16/l123.exe)
 IRC-IRC-IRC-IRC-IRC-IRC-IRC-IRC-IRC-IRC-IRC-IRC-IRC-IRC-IRC-IRC-IRC-IRC
 ------------------------------------------------------------------------
 INPUT DATA FOR L123
 ------------------------------------------------------------------------
 GENERAL PARAMETERS:
 Follow reaction path in both directions.
 Maximum points per path      =  20
 Step size                    =   0.100 bohr
 Integration scheme           = HPC                                 
    Redo corrector integration= Yes                                 
    DWI Weight Power          =  2
    DWI will use Hessian update vectors when possible.
    Max correction cycles     =  20
 Initial Hessian              = CalcFC
 Hessian evaluation           = Analytic every   3 predictor steps
                              = Update at all corrector steps
 Hessian updating method      = Bofill                              
 ------------------------------------------------------------------------
 IRC-IRC-IRC-IRC-IRC-IRC-IRC-IRC-IRC-IRC-IRC-IRC-IRC-IRC-IRC-IRC-IRC-IRC
 Leave Link  123 at Wed Jun 12 01:18:40 2019, MaxMem=   104857600 cpu:               1.9 elap:               0.1
 (Enter /project/6004141/group/g16/g16/l202.exe)
                          Input orientation:                          
 ---------------------------------------------------------------------
 Center     Atomic      Atomic             Coordinates (Angstroms)
 Number     Number       Type             X           Y           Z
 ---------------------------------------------------------------------
      1          6           0        0.040816   -0.778860    1.232213
      2          1           0       -3.565922   -1.894467   -1.880089
      3          6           0       -1.113422    0.265177   -0.246812
      4          8           0       -2.252548    0.234366    0.395707
      5          8           0       -0.879693   -1.781141    1.457223
      6          7           0       -4.163487   -1.354232   -0.200903
      7          1           0       -4.934704   -1.355113    0.464026
      8          7           0       -4.403411   -1.999988   -1.290296
      9          1           0       -1.750134   -1.326958    1.434747
     10          1           0       -3.314569   -0.694709   -0.015855
     11          6           0        0.089016    0.235655    2.350344
     12          1           0        0.731641    1.086234    2.125735
     13          1           0       -0.919604    0.614853    2.534882
     14          1           0        0.451688   -0.248863    3.265317
     15          6           0       -0.997745   -0.693196   -1.421704
     16          1           0       -1.668183   -0.348546   -2.218953
     17          1           0        0.007524   -0.772924   -1.833020
     18          1           0       -1.306637   -1.690509   -1.098273
     19          6           0        1.275972   -1.248483    0.605334
     20          6           0        1.333255   -2.524065   -0.001311
     21          6           0        2.431199   -0.437322    0.547379
     22          6           0        2.488171   -2.960841   -0.642126
     23          1           0        0.459466   -3.162755    0.044450
     24          6           0        3.583049   -0.878937   -0.098665
     25          1           0        2.425370    0.547119    0.998856
     26          6           0        3.620532   -2.140901   -0.698946
     27          1           0        2.508045   -3.946553   -1.098272
     28          1           0        4.456747   -0.234532   -0.132272
     29          1           0        4.520870   -2.482747   -1.200406
     30          6           0       -0.418318    1.581068   -0.338423
     31          6           0       -0.939739    2.682226    0.366285
     32          6           0        0.757198    1.767749   -1.089192
     33          6           0       -0.304384    3.920853    0.332278
     34          1           0       -1.852630    2.542707    0.933775
     35          6           0        1.393261    3.008707   -1.121485
     36          1           0        1.189447    0.941811   -1.640592
     37          6           0        0.868849    4.090561   -0.410030
     38          1           0       -0.725669    4.757932    0.881988
     39          1           0        2.301794    3.129429   -1.704491
     40          1           0        1.365416    5.055990   -0.437428
 ---------------------------------------------------------------------
                    Distance matrix (angstroms):
                    1          2          3          4          5
     1  C    0.000000
     2  H    4.892807   0.000000
     3  C    2.147043   3.653274   0.000000
     4  O    2.643083   3.381735   1.308200   0.000000
     5  O    1.379324   4.285595   2.673160   2.659665   0.000000
     6  N    4.478955   1.862419   3.453620   2.555636   3.703368
     7  H    5.067344   2.767552   4.211036   3.118505   4.196553
     8  N    5.254080   1.029747   4.128421   3.530036   4.473628
     9  H    1.883861   3.821948   2.401653   1.941586   0.982067
    10  H    3.580972   2.231136   2.412420   1.469848   3.046131
    11  C    1.510556   5.982688   2.862158   3.050169   2.409051
    12  H    2.180412   6.587887   3.115665   3.553035   3.356359
    13  H    2.135835   5.726400   2.810278   2.549035   2.627495
    14  H    2.140847   6.732340   3.879286   3.972539   2.718392
    15  C    2.851179   2.872055   1.520602   2.395388   3.079900
    16  H    3.875099   2.471055   2.138634   2.741845   4.023471
    17  H    3.065420   3.745609   2.202324   3.330133   3.553780
    18  H    2.842164   2.399417   2.141734   2.613784   2.592500
    19  C    1.462578   5.480745   2.954069   3.833176   2.378304
    20  C    2.497543   5.284708   3.718383   4.541426   2.752525
    21  C    2.509896   6.631842   3.699808   4.734095   3.687231
    22  C    3.776736   6.270706   4.851282   5.810410   4.140225
    23  H    2.696109   4.638551   3.782794   4.361059   2.387076
    24  C    3.785322   7.437241   4.836092   5.961379   4.811530
    25  H    2.738389   7.081331   3.762211   4.726999   4.068702
    26  C    4.289394   7.287040   5.329536   6.429092   5.003051
    27  H    4.642484   6.458744   5.619491   6.509632   4.764067
    28  H    4.653876   8.376960   5.593712   6.746352   5.778935
    29  H    5.375105   8.136599   6.340794   7.470574   6.059812
    30  C    2.871752   4.935938   1.491017   2.391015   3.839487
    31  C    3.700059   5.734906   2.499636   2.777832   4.595149
    32  C    3.519566   5.720726   2.542940   3.689818   4.664575
    33  C    4.797536   7.024966   3.788648   4.170078   5.840310
    34  H    3.834972   5.526456   2.669711   2.403724   4.462764
    35  C    4.659900   7.014990   3.817783   4.826050   5.895651
    36  H    3.540208   5.542145   2.775547   4.061320   4.614354
    37  C    5.205176   7.592682   4.311566   5.026189   6.404757
    38  H    5.600556   7.742772   4.648590   4.799008   6.566132
    39  H    5.386184   7.726607   4.689613   5.790877   6.650714
    40  H    6.211903   8.643392   5.397487   6.085379   7.441544
                    6          7          8          9         10
     6  N    0.000000
     7  H    1.018286   0.000000
     8  N    1.288930   1.943137   0.000000
     9  H    2.915539   3.329351   3.862474   0.000000
    10  H    1.090814   1.814182   2.124507   2.225184   0.000000
    11  C    5.207723   5.597008   6.199537   2.581192   4.248396
    12  H    5.944022   6.389751   6.896578   3.529896   4.912228
    13  H    4.678097   4.928513   5.797093   2.381325   3.735916
    14  H    5.876765   6.171243   6.884187   3.059623   5.014934
    15  C    3.456768   4.415174   3.650142   3.021102   2.709998
    16  H    3.363105   4.345309   3.327332   3.783323   2.772013
    17  H    4.516532   5.480965   4.610486   3.751615   3.787414
    18  H    3.013295   3.964359   3.118118   2.597123   2.488983
    19  C    5.499901   6.213198   6.034365   3.138694   4.665363
    20  C    5.623390   6.392988   5.903006   3.605914   4.994900
    21  C    6.700040   7.423329   7.247818   4.366053   5.779042
    22  C    6.857144   7.674699   6.988366   4.994618   6.260939
    23  H    4.970176   5.704444   5.175050   3.191459   4.509792
    24  C    7.761777   8.549590   8.152318   5.567308   6.900575
    25  H    6.961867   7.620710   7.639386   4.597499   5.959755
    26  C    7.839506   8.669604   8.046938   5.836026   7.117142
    27  H    7.213511   8.034354   7.182911   5.604512   6.756401
    28  H    8.692921   9.476847   9.108252   6.494175   7.785799
    29  H    8.814228   9.666942   8.937781   6.899665   8.123690
    30  C    4.760377   5.446359   5.441598   3.657114   3.697497
    31  C    5.196850   5.680617   6.055115   4.227518   4.146027
    32  C    5.894825   6.675515   6.392822   4.715315   4.878016
    33  C    6.557704   7.020900   7.381811   5.553841   5.521397
    34  H    4.670513   4.991277   5.664720   3.903304   3.676945
    35  C    7.124616   7.848561   7.662697   5.934075   6.091089
    36  H    5.999868   6.870990   6.329056   4.821427   5.060052
    37  C    7.417136   8.006283   8.103480   6.293789   6.368294
    38  H    7.095759   7.433706   7.994629   6.195237   6.102444
    39  H    8.010234   8.785243   8.452352   6.792078   7.001361
    40  H    8.468510   9.033625   9.153883   7.345319   7.426340
                   11         12         13         14         15
    11  C    0.000000
    12  H    1.089450   0.000000
    13  H    1.093234   1.765279   0.000000
    14  H    1.097025   1.777500   1.777634   0.000000
    15  C    4.033877   4.329142   4.167934   4.926099   0.000000
    16  H    4.930265   5.166630   4.907897   5.880562   1.097213
    17  H    4.303999   4.433120   4.675902   5.144411   1.089084
    18  H    4.189381   4.717956   4.320220   4.920464   1.093003
    19  C    2.580037   2.838806   3.466371   2.958749   3.096291
    20  C    3.833336   4.233264   4.621737   4.077323   3.286816
    21  C    3.031403   2.775055   4.035483   3.367665   3.962375
    22  C    4.992836   5.208192   5.872980   5.173993   4.231024
    23  H    4.123539   4.739170   4.730159   4.343364   3.220527
    24  C    4.410014   4.115869   5.425943   4.638835   4.771646
    25  H    2.716998   2.104571   3.681415   3.108996   4.372094
    26  C    5.236200   5.170968   6.218091   5.416342   4.893538
    27  H    5.935951   6.235285   6.764245   6.078028   4.793694
    28  H    5.045942   4.551860   6.061379   5.252077   5.623566
    29  H    6.295940   6.177305   7.290148   6.441363   5.805737
    30  C    3.049097   2.763936   3.072579   4.134308   2.584862
    31  C    3.313689   2.904542   2.996206   4.351062   3.820176
    32  C    3.824158   3.286468   4.156290   4.808514   3.040829
    33  C    4.219957   3.510684   4.019900   5.153726   4.984641
    34  H    3.331538   3.196958   2.674080   4.305674   4.092698
    35  C    4.630817   3.831198   4.944583   5.544579   4.417140
    36  H    4.199664   3.796796   4.689305   5.101954   2.739520
    37  C    4.805008   3.933816   4.894039   5.702000   5.233736
    38  H    4.823979   4.141500   4.464837   5.668723   5.924172
    39  H    5.450872   4.616347   5.888360   6.287666   5.057607
    40  H    5.712836   4.767645   5.812026   6.533505   6.293367
                   16         17         18         19         20
    16  H    0.000000
    17  H    1.771168   0.000000
    18  H    1.785358   1.763189   0.000000
    19  C    4.177862   2.789388   3.125305   0.000000
    20  C    4.319658   2.859933   2.977780   1.413651   0.000000
    21  C    4.946252   3.413668   4.272010   1.412760   2.420958
    22  C    5.156137   3.515511   4.027702   2.440851   1.391132
    23  H    4.191617   3.072529   2.567575   2.155391   1.083294
    24  C    5.687915   3.975375   5.056372   2.440242   2.788816
    25  H    5.283340   3.950698   4.830404   2.167986   3.409578
    26  C    5.787354   4.026327   4.963800   2.827458   2.421806
    27  H    5.625163   4.106626   4.431877   3.420506   2.146375
    28  H    6.471631   4.793537   6.022427   3.418989   3.874960
    29  H    6.625453   4.867647   5.881999   3.913243   3.405940
    30  C    2.970179   2.820716   3.474147   3.430402   4.475910
    31  C    4.049650   4.203845   4.626052   4.518517   5.692723
    32  C    3.411384   2.751420   4.027288   3.498314   4.464862
    33  C    5.157179   5.178547   5.876935   5.412404   6.658086
    34  H    4.281712   4.701993   4.727308   4.926372   6.057758
    35  C    4.674187   4.089900   5.419651   4.595577   5.645348
    36  H    3.188349   2.091480   3.667922   3.138321   3.836694
    37  C    5.423505   5.140065   6.215077   5.449964   6.643493
    38  H    6.048164   6.204773   6.770624   6.337202   7.618849
    39  H    5.302990   4.528637   6.051452   5.055068   5.983384
    40  H    6.448687   6.145550   7.286414   6.390754   7.592659
                   21         22         23         24         25
    21  C    0.000000
    22  C    2.790397   0.000000
    23  H    3.401272   2.151232   0.000000
    24  C    1.392535   2.414215   3.872090   0.000000
    25  H    1.083046   3.873312   4.305675   2.139722   0.000000
    26  C    2.422812   1.399204   3.404286   1.397961   3.396527
    27  H    3.876696   1.086321   2.473222   3.400752   4.959624
    28  H    2.146135   3.401177   4.958223   1.086156   2.452941
    29  H    3.406647   2.161508   4.301986   2.159988   4.290450
    30  C    3.602539   5.400819   4.839520   4.703195   3.308161
    31  C    4.596477   6.679196   6.018734   5.775264   4.035193
    32  C    3.216051   5.055264   5.067905   3.996439   2.938142
    33  C    5.150085   7.490363   7.130485   6.191594   4.390668
    34  H    5.232692   7.184362   6.220047   6.505397   4.721005
    35  C    3.967057   6.088031   6.349671   4.577675   3.408887
    36  H    2.869002   4.232530   4.496632   3.379644   2.941084
    37  C    4.884598   7.238670   7.279062   5.670956   4.118701
    38  H    6.088386   8.498891   8.052534   7.162473   5.260575
    39  H    4.220116   6.185042   6.785613   4.504141   3.740546
    40  H    5.681744   8.097658   8.282555   6.344763   4.849364
                   26         27         28         29         30
    26  C    0.000000
    27  H    2.158117   0.000000
    28  H    2.157456   4.302290   0.000000
    29  H    1.085785   2.490908   2.489878   0.000000
    30  C    5.504120   6.300442   5.206262   6.453928   0.000000
    31  C    6.722599   7.613991   6.154518   7.677872   1.407495
    32  C    4.860917   5.976520   4.314103   5.678407   1.407246
    33  C    7.294741   8.476574   6.336513   8.163228   2.436681
    34  H    7.386302   8.078069   6.975511   8.392343   2.144875
    35  C    5.626521   7.044070   4.569692   6.320145   2.435807
    36  H    4.037324   5.092044   3.786035   4.797889   2.165457
    37  C    6.818090   8.231394   5.626419   7.561106   2.821255
    38  H    8.305583   9.494546   7.267108   9.180957   3.417065
    39  H    5.525085   7.104897   4.293242   6.055982   3.415051
    40  H    7.546468   9.098796   6.135069   8.208019   3.907249
                   31         32         33         34         35
    31  C    0.000000
    32  C    2.415425   0.000000
    33  C    1.392490   2.789873   0.000000
    34  H    1.083919   3.391778   2.158275   0.000000
    35  C    2.786205   1.394846   2.414008   3.870020   0.000000
    36  H    3.404414   1.083077   3.872782   4.294702   2.140811
    37  C    2.420137   2.422640   1.398677   3.407068   1.396991
    38  H    2.149496   3.876292   1.086445   2.485949   3.400523
    39  H    3.872420   2.149079   3.401021   4.956201   1.086233
    40  H    3.405062   3.406942   2.160837   4.307274   2.158721
                   36         37         38         39         40
    36  H    0.000000
    37  C    3.395835   0.000000
    38  H    4.959220   2.158051   0.000000
    39  H    2.455009   2.157020   4.302026   0.000000
    40  H    4.290109   1.085994   2.490448   2.488753   0.000000
 Symmetry turned off by external request.
 Stoichiometry    C16H20N2O2
 Framework group  C1[X(C16H20N2O2)]
 Deg. of freedom   114
 Full point group                 C1      NOp   1
 Rotational constants (GHZ):           0.3494550           0.3195684           0.2035747
 Leave Link  202 at Wed Jun 12 01:18:40 2019, MaxMem=   104857600 cpu:               3.1 elap:               0.1
 (Enter /project/6004141/group/g16/g16/l301.exe)
 Standard basis: 6-31G(d,p) (6D, 7F)
 Ernie: Thresh=  0.10000D-02 Tol=  0.10000D-05 Strict=F.
   400 basis functions,   700 primitive gaussians,   400 cartesian basis functions
    73 alpha electrons       73 beta electrons
       nuclear repulsion energy      1576.4296142000 Hartrees.
 IExCor=  402 DFT=T Ex+Corr=B3LYP ExCW=0 ScaHFX=  0.200000
 ScaDFX=  0.800000  0.720000  1.000000  0.810000 ScalE2=  1.000000  1.000000
 IRadAn=      5 IRanWt=     -1 IRanGd=            0 ICorTp=0 IEmpDi=131
 NAtoms=   40 NActive=   40 NUniq=   40 SFac= 1.00D+00 NAtFMM=   60 NAOKFM=F Big=F
 Integral buffers will be    131072 words long.
 Raffenetti 2 integral format.
 Two-electron integral symmetry is turned off.
 R6Disp:  Grimme-D3 Dispersion energy=       -0.0487435833 Hartrees.
 Nuclear repulsion after empirical dispersion term =     1576.3808706168 Hartrees.
 Force inversion solution in PCM.
 ------------------------------------------------------------------------------
 Polarizable Continuum Model (PCM)
 =================================
 Model                : PCM.
 Atomic radii         : UFF (Universal Force Field).
 Polarization charges : Total charges.
 Charge compensation  : None.
 Solution method      : Matrix inversion.
 Cavity type          : Scaled VdW (van der Waals Surface) (Alpha=1.100).
 Cavity algorithm     : GePol (No added spheres)
                        Default sphere list used, NSphG=   40.
                        Lebedev-Laikov grids with approx.  5.0 points / Ang**2.
                        Smoothing algorithm: York/Karplus (Gamma=1.0000).
                        Polarization charges: spherical gaussians, with
                                              point-specific exponents (IZeta= 3).
                        Self-potential: point-specific (ISelfS= 7).
                        Self-field    : sphere-specific E.n sum rule (ISelfD= 2).
 1st derivatives      : Analytical E(r).r(x)/FMM algorithm (CHGder, D1EAlg=3).
                        Cavity 1st derivative terms included.
 2nd derivatives      : Analytical E(r).r(xy)/FMM algorithm (CHGder, D2EAlg=3).
                        Cavity 2nd derivative terms included.
 Solvent              : Acetonitrile, Eps=  35.688000 Eps(inf)=   1.806874
 ------------------------------------------------------------------------------
 GePol: Number of generator spheres                  =      40
 GePol: Total number of spheres                      =      40
 GePol: Number of exposed spheres                    =      40 (100.00%)
 GePol: Number of points                             =    2728
 GePol: Average weight of points                     =       0.13
 GePol: Minimum weight of points                     =   0.12D-09
 GePol: Maximum weight of points                     =    0.20577
 GePol: Number of points with low weight             =     183
 GePol: Fraction of low-weight points (<1% of avg)   =       6.71%
 GePol: Cavity surface area                          =    352.669 Ang**2
 GePol: Cavity volume                                =    400.714 Ang**3
 Leave Link  301 at Wed Jun 12 01:18:41 2019, MaxMem=   104857600 cpu:              10.1 elap:               0.3
 (Enter /project/6004141/group/g16/g16/l302.exe)
 NPDir=0 NMtPBC=     1 NCelOv=     1 NCel=       1 NClECP=     1 NCelD=      1
         NCelK=      1 NCelE2=     1 NClLst=     1 CellRange=     0.0.
 One-electron integrals computed using PRISM.
 PrsmSu:  requested number of processors reduced to:  27 ShMem   1 Linda.
 NBasis=   400 RedAO= T EigKep=  4.45D-04  NBF=   400
 NBsUse=   400 1.00D-06 EigRej= -1.00D+00 NBFU=   400
 Precomputing XC quadrature grid using
 IXCGrd= 4 IRadAn=           5 IRanWt=          -1 IRanGd=           0 AccXCQ= 0.00D+00.
 Generated NRdTot=       0 NPtTot=           0 NUsed=           0 NTot=          32
 NSgBfM=   398   398   398   398   398 MxSgAt=    40 MxSgA2=    40.
 Leave Link  302 at Wed Jun 12 01:18:42 2019, MaxMem=   104857600 cpu:              24.4 elap:               0.7
 (Enter /project/6004141/group/g16/g16/l303.exe)
 DipDrv:  MaxL=1.
 Leave Link  303 at Wed Jun 12 01:18:43 2019, MaxMem=   104857600 cpu:               9.9 elap:               0.3
 (Enter /project/6004141/group/g16/g16/l401.exe)
 ExpMin= 1.61D-01 ExpMax= 5.48D+03 ExpMxC= 8.25D+02 IAcc=3 IRadAn=         5 AccDes= 0.00D+00
 Harris functional with IExCor=  402 and IRadAn=       5 diagonalized for initial guess.
 HarFok:  IExCor=  402 AccDes= 0.00D+00 IRadAn=         5 IDoV= 1 UseB2=F ITyADJ=14
 ICtDFT=  3500011 ScaDFX=  1.000000  1.000000  1.000000  1.000000
 FoFCou: FMM=F IPFlag=           0 FMFlag=      100000 FMFlg1=           0
         NFxFlg=           0 DoJE=T BraDBF=F KetDBF=T FulRan=T
         wScrn=  0.000000 ICntrl=       500 IOpCl=  0 I1Cent=   200000004 NGrid=           0
         NMat0=    1 NMatS0=      1 NMatT0=    0 NMatD0=    1 NMtDS0=    0 NMtDT0=    0
 Symmetry not used in FoFCou.
 Harris En= -881.732828847750    
 JPrj=0 DoOrth=F DoCkMO=T.
 Mixing orbitals, IMix= 1 IMixAn=  0 NRI=1 NE=   73 Coef=  7.07106781D-01  7.07106781D-01
 Mixing orbitals, IMix= 1 IMixAn=  0 NRI=1 NE=   73 Coef= -7.07106781D-01  7.07106781D-01
 Initial guess <Sx>= 0.0000 <Sy>= 0.0000 <Sz>= 0.0000 <S**2>= 1.0000 S= 0.6180
 Leave Link  401 at Wed Jun 12 01:18:44 2019, MaxMem=   104857600 cpu:              42.8 elap:               1.1
 (Enter /project/6004141/group/g16/g16/l502.exe)
 Two-electron integral symmetry not used.
 UHF open shell SCF:
 Using DIIS extrapolation, IDIIS=  1040.
 NGot=   104857600 LenX=   104518188 LenY=   104357747
 Requested convergence on RMS density matrix=1.00D-08 within 128 cycles.
 Requested convergence on MAX density matrix=1.00D-06.
 Requested convergence on             energy=1.00D-06.
 No special actions if energy rises.
 Fock matrices will be formed incrementally for  20 cycles.

 Cycle   1  Pass 1  IDiag  1:
 FoFJK:  IHMeth= 1 ICntrl=       0 DoSepK=F KAlg= 0 I1Cent=           0 FoldK=F
 IRaf= 790000000 NMat=       1 IRICut=       1 DoRegI=T DoRafI=F ISym2E= 0 IDoP0=0 IntGTp=1.
 FoFCou: FMM=F IPFlag=           0 FMFlag=      100000 FMFlg1=           0
         NFxFlg=           0 DoJE=F BraDBF=F KetDBF=F FulRan=T
         wScrn=  0.000000 ICntrl=         0 IOpCl=  1 I1Cent=           0 NGrid=           0
         NMat0=    1 NMatS0=      1 NMatT0=    0 NMatD0=    1 NMtDS0=    0 NMtDT0=    0
 Symmetry not used in FoFCou.
 CoulSu:  requested number of processors reduced to:  39 ShMem   1 Linda.
 Inv3:  Mode=1 IEnd=    22325952.
 Iteration    1 A*A^-1 deviation from unit magnitude is 3.33D-15 for   1536.
 Iteration    1 A*A^-1 deviation from orthogonality  is 1.99D-15 for   2028     83.
 Iteration    1 A^-1*A deviation from unit magnitude is 3.77D-15 for   1536.
 Iteration    1 A^-1*A deviation from orthogonality  is 2.57D-15 for   2194     86.
 CoulSu:  requested number of processors reduced to:  39 ShMem   1 Linda.
 CoulSu:  requested number of processors reduced to:  39 ShMem   1 Linda.
 E= -881.120161425114    
 DIIS: error= 2.71D-02 at cycle   1 NSaved=   1.
 NSaved= 1 IEnMin= 1 EnMin= -881.120161425114     IErMin= 1 ErrMin= 2.71D-02
 ErrMax= 2.71D-02  0.00D+00 EMaxC= 1.00D-01 BMatC= 2.00D+00 BMatP= 2.00D+00
 IDIUse=3 WtCom= 7.29D-01 WtEn= 2.71D-01
 Coeff-Com:  0.100D+01
 Coeff-En:   0.100D+01
 Coeff:      0.100D+01
 Gap=     0.024 Goal=   None    Shift=    0.000
 Gap=     0.029 Goal=   None    Shift=    0.000
 GapD=    0.024 DampG=0.250 DampE=0.500 DampFc=0.2500 IDamp=-1.
 Damping current iteration by 2.50D-01
 RMSDP=4.16D-03 MaxDP=1.74D-01              OVMax= 6.06D-01

 Cycle   2  Pass 1  IDiag  1:
 RMSU=  1.02D-03    CP:  9.87D-01
 E= -881.311152552245     Delta-E=       -0.190991127130 Rises=F Damp=T
 DIIS: error= 1.57D-02 at cycle   2 NSaved=   2.
 NSaved= 2 IEnMin= 2 EnMin= -881.311152552245     IErMin= 2 ErrMin= 1.57D-02
 ErrMax= 1.57D-02  0.00D+00 EMaxC= 1.00D-01 BMatC= 5.25D-01 BMatP= 2.00D+00
 IDIUse=3 WtCom= 8.43D-01 WtEn= 1.57D-01
 Coeff-Com: -0.724D+00 0.172D+01
 Coeff-En:   0.000D+00 0.100D+01
 Coeff:     -0.610D+00 0.161D+01
 Gap=     0.119 Goal=   None    Shift=    0.000
 Gap=     0.154 Goal=   None    Shift=    0.000
 RMSDP=2.03D-03 MaxDP=7.48D-02 DE=-1.91D-01 OVMax= 8.37D-01

 Cycle   3  Pass 1  IDiag  1:
 RMSU=  1.99D-03    CP:  9.67D-01  1.24D+00
 E= -881.332728435799     Delta-E=       -0.021575883555 Rises=F Damp=F
 DIIS: error= 2.62D-02 at cycle   3 NSaved=   3.
 NSaved= 3 IEnMin= 3 EnMin= -881.332728435799     IErMin= 2 ErrMin= 1.57D-02
 ErrMax= 2.62D-02  0.00D+00 EMaxC= 1.00D-01 BMatC= 9.13D-01 BMatP= 5.25D-01
 IDIUse=2 WtCom= 0.00D+00 WtEn= 1.00D+00
 Coeff-En:   0.000D+00 0.466D+00 0.534D+00
 Coeff:      0.000D+00 0.466D+00 0.534D+00
 Gap=    -0.079 Goal=   None    Shift=    0.000
 Gap=    -0.101 Goal=   None    Shift=    0.000
 RMSDP=3.46D-03 MaxDP=1.98D-01 DE=-2.16D-02 OVMax= 7.79D-01

 Cycle   4  Pass 1  IDiag  1:
 RMSU=  1.09D-03    CP:  9.61D-01  2.95D+00 -3.93D-01
 E= -881.207502352557     Delta-E=        0.125226083243 Rises=F Damp=F
 DIIS: error= 4.31D-02 at cycle   4 NSaved=   4.
 NSaved= 4 IEnMin= 3 EnMin= -881.332728435799     IErMin= 2 ErrMin= 1.57D-02
 ErrMax= 4.31D-02  0.00D+00 EMaxC= 1.00D-01 BMatC= 1.70D+00 BMatP= 5.25D-01
 IDIUse=2 WtCom= 0.00D+00 WtEn= 1.00D+00
 Coeff-En:   0.000D+00 0.000D+00 0.556D+00 0.444D+00
 Coeff:      0.000D+00 0.000D+00 0.556D+00 0.444D+00
 Gap=     0.250 Goal=   None    Shift=    0.000
 Gap=     0.250 Goal=   None    Shift=    0.000
 RMSDP=1.74D-03 MaxDP=1.09D-01 DE= 1.25D-01 OVMax= 2.11D-01

 Cycle   5  Pass 1  IDiag  1:
 RMSU=  1.25D-03    CP:  9.65D-01  2.15D+00 -5.94D-02  4.55D-01
 E= -881.604171336201     Delta-E=       -0.396668983644 Rises=F Damp=F
 DIIS: error= 1.28D-02 at cycle   5 NSaved=   5.
 NSaved= 5 IEnMin= 5 EnMin= -881.604171336201     IErMin= 5 ErrMin= 1.28D-02
 ErrMax= 1.28D-02  0.00D+00 EMaxC= 1.00D-01 BMatC= 1.62D-01 BMatP= 5.25D-01
 IDIUse=3 WtCom= 8.72D-01 WtEn= 1.28D-01
 Coeff-Com: -0.455D+00 0.780D+00 0.238D+00-0.600D-01 0.497D+00
 Coeff-En:   0.000D+00 0.000D+00 0.204D+00 0.000D+00 0.796D+00
 Coeff:     -0.397D+00 0.680D+00 0.233D+00-0.523D-01 0.535D+00
 Gap=     0.039 Goal=   None    Shift=    0.000
 Gap=     0.041 Goal=   None    Shift=    0.000
 RMSDP=6.02D-04 MaxDP=2.08D-02 DE=-3.97D-01 OVMax= 1.45D-01

 Cycle   6  Pass 1  IDiag  1:
 RMSU=  4.68D-04    CP:  9.64D-01  2.36D+00  1.75D-02  2.62D-01  8.64D-01
 E= -881.633399341627     Delta-E=       -0.029228005426 Rises=F Damp=F
 DIIS: error= 4.96D-03 at cycle   6 NSaved=   6.
 NSaved= 6 IEnMin= 6 EnMin= -881.633399341627     IErMin= 6 ErrMin= 4.96D-03
 ErrMax= 4.96D-03  0.00D+00 EMaxC= 1.00D-01 BMatC= 6.40D-02 BMatP= 1.62D-01
 IDIUse=3 WtCom= 9.50D-01 WtEn= 4.96D-02
 Coeff-Com: -0.230D+00 0.345D+00 0.115D+00-0.152D+00 0.305D+00 0.617D+00
 Coeff-En:   0.000D+00 0.000D+00 0.129D+00 0.000D+00 0.000D+00 0.871D+00
 Coeff:     -0.218D+00 0.328D+00 0.116D+00-0.144D+00 0.289D+00 0.629D+00
 Gap=     0.024 Goal=   None    Shift=    0.000
 Gap=     0.028 Goal=   None    Shift=    0.000
 RMSDP=7.12D-04 MaxDP=4.38D-02 DE=-2.92D-02 OVMax= 2.52D-01

 Cycle   7  Pass 1  IDiag  1:
 RMSU=  4.94D-04    CP:  9.65D-01  2.13D+00  1.93D-01  9.01D-02  9.34D-01
                    CP:  1.45D+00
 E= -881.656309195683     Delta-E=       -0.022909854056 Rises=F Damp=F
 DIIS: error= 2.44D-03 at cycle   7 NSaved=   7.
 NSaved= 7 IEnMin= 7 EnMin= -881.656309195683     IErMin= 7 ErrMin= 2.44D-03
 ErrMax= 2.44D-03  0.00D+00 EMaxC= 1.00D-01 BMatC= 3.00D-03 BMatP= 6.40D-02
 IDIUse=3 WtCom= 9.76D-01 WtEn= 2.44D-02
 Coeff-Com: -0.576D-01 0.791D-01 0.432D-01-0.463D-01 0.120D+00 0.287D+00
 Coeff-Com:  0.574D+00
 Coeff-En:   0.000D+00 0.000D+00 0.000D+00 0.000D+00 0.000D+00 0.000D+00
 Coeff-En:   0.100D+01
 Coeff:     -0.562D-01 0.772D-01 0.422D-01-0.452D-01 0.117D+00 0.280D+00
 Coeff:      0.584D+00
 Gap=     0.028 Goal=   None    Shift=    0.000
 Gap=     0.047 Goal=   None    Shift=    0.000
 RMSDP=3.31D-04 MaxDP=2.29D-02 DE=-2.29D-02 OVMax= 1.42D-01

 Cycle   8  Pass 1  IDiag  1:
 RMSU=  1.62D-04    CP:  9.65D-01  2.03D+00  2.59D-01  1.00D-01  8.31D-01
                    CP:  1.70D+00  1.32D+00
 E= -881.655969987906     Delta-E=        0.000339207777 Rises=F Damp=F
 DIIS: error= 4.90D-03 at cycle   8 NSaved=   8.
 NSaved= 8 IEnMin= 7 EnMin= -881.656309195683     IErMin= 7 ErrMin= 2.44D-03
 ErrMax= 4.90D-03  0.00D+00 EMaxC= 1.00D-01 BMatC= 9.34D-03 BMatP= 3.00D-03
 IDIUse=3 WtCom= 9.76D-01 WtEn= 2.44D-02
 Coeff-Com: -0.553D-01 0.753D-01 0.252D-01-0.140D-01 0.132D+00 0.149D+00
 Coeff-Com:  0.260D+00 0.429D+00
 Coeff-En:   0.000D+00 0.000D+00 0.000D+00 0.000D+00 0.000D+00 0.000D+00
 Coeff-En:   0.616D+00 0.384D+00
 Coeff:     -0.539D-01 0.735D-01 0.246D-01-0.137D-01 0.129D+00 0.145D+00
 Coeff:      0.268D+00 0.428D+00
 Gap=     0.030 Goal=   None    Shift=    0.000
 Gap=     0.062 Goal=   None    Shift=    0.000
 RMSDP=9.99D-05 MaxDP=4.69D-03 DE= 3.39D-04 OVMax= 2.55D-02

 Cycle   9  Pass 1  IDiag  1:
 RMSU=  6.24D-05    CP:  9.65D-01  2.01D+00  2.55D-01  1.19D-01  7.83D-01
                    CP:  1.66D+00  1.34D+00  1.22D+00
 E= -881.657380811401     Delta-E=       -0.001410823495 Rises=F Damp=F
 DIIS: error= 3.88D-03 at cycle   9 NSaved=   9.
 NSaved= 9 IEnMin= 9 EnMin= -881.657380811401     IErMin= 7 ErrMin= 2.44D-03
 ErrMax= 3.88D-03  0.00D+00 EMaxC= 1.00D-01 BMatC= 5.19D-03 BMatP= 3.00D-03
 IDIUse=3 WtCom= 9.76D-01 WtEn= 2.44D-02
 Coeff-Com: -0.655D-01 0.904D-01 0.242D-01-0.172D-01 0.141D+00 0.134D+00
 Coeff-Com: -0.191D-01-0.507D-01 0.763D+00
 Coeff-En:   0.000D+00 0.000D+00 0.000D+00 0.000D+00 0.000D+00 0.000D+00
 Coeff-En:   0.000D+00 0.000D+00 0.100D+01
 Coeff:     -0.639D-01 0.882D-01 0.236D-01-0.167D-01 0.137D+00 0.131D+00
 Coeff:     -0.186D-01-0.495D-01 0.769D+00
 Gap=     0.031 Goal=   None    Shift=    0.000
 Gap=     0.074 Goal=   None    Shift=    0.000
 RMSDP=8.20D-05 MaxDP=4.61D-03 DE=-1.41D-03 OVMax= 2.53D-02

 Cycle  10  Pass 1  IDiag  1:
 RMSU=  2.58D-05    CP:  9.65D-01  2.00D+00  2.51D-01  1.33D-01  7.46D-01
                    CP:  1.61D+00  1.33D+00  1.42D+00  1.68D+00
 E= -881.658397061519     Delta-E=       -0.001016250117 Rises=F Damp=F
 DIIS: error= 2.56D-03 at cycle  10 NSaved=  10.
 NSaved=10 IEnMin=10 EnMin= -881.658397061519     IErMin= 7 ErrMin= 2.44D-03
 ErrMax= 2.56D-03  0.00D+00 EMaxC= 1.00D-01 BMatC= 2.13D-03 BMatP= 3.00D-03
 IDIUse=3 WtCom= 9.76D-01 WtEn= 2.44D-02
 Coeff-Com: -0.329D-01 0.442D-01 0.781D-02-0.108D-01 0.643D-01 0.321D-01
 Coeff-Com: -0.514D+00-0.103D+01 0.797D+00 0.164D+01
 Coeff-En:   0.000D+00 0.000D+00 0.000D+00 0.000D+00 0.000D+00 0.000D+00
 Coeff-En:   0.000D+00 0.000D+00 0.000D+00 0.100D+01
 Coeff:     -0.320D-01 0.431D-01 0.762D-02-0.106D-01 0.628D-01 0.313D-01
 Coeff:     -0.501D+00-0.100D+01 0.777D+00 0.163D+01
 Gap=     0.034 Goal=   None    Shift=    0.000
 Gap=     0.114 Goal=   None    Shift=    0.000
 RMSDP=2.56D-04 MaxDP=1.42D-02 DE=-1.02D-03 OVMax= 7.39D-02

 Cycle  11  Pass 1  IDiag  1:
 RMSU=  4.10D-05    CP:  9.66D-01  1.95D+00  2.59D-01  1.94D-01  6.17D-01
                    CP:  1.54D+00  1.46D+00  2.20D+00  3.00D+00  1.71D+00
 E= -881.659337264960     Delta-E=       -0.000940203441 Rises=F Damp=F
 DIIS: error= 3.19D-04 at cycle  11 NSaved=  11.
 NSaved=11 IEnMin=11 EnMin= -881.659337264960     IErMin=11 ErrMin= 3.19D-04
 ErrMax= 3.19D-04  0.00D+00 EMaxC= 1.00D-01 BMatC= 6.08D-05 BMatP= 2.13D-03
 IDIUse=3 WtCom= 9.97D-01 WtEn= 3.19D-03
 Coeff-Com: -0.382D-02 0.447D-02-0.116D-03-0.204D-02 0.947D-02-0.164D-02
 Coeff-Com: -0.206D+00-0.432D+00 0.142D+00 0.826D+00 0.663D+00
 Coeff-En:   0.000D+00 0.000D+00 0.000D+00 0.000D+00 0.000D+00 0.000D+00
 Coeff-En:   0.000D+00 0.000D+00 0.000D+00 0.000D+00 0.100D+01
 Coeff:     -0.381D-02 0.446D-02-0.115D-03-0.204D-02 0.944D-02-0.163D-02
 Coeff:     -0.205D+00-0.430D+00 0.142D+00 0.823D+00 0.664D+00
 Gap=     0.035 Goal=   None    Shift=    0.000
 Gap=     0.119 Goal=   None    Shift=    0.000
 RMSDP=4.22D-05 MaxDP=2.45D-03 DE=-9.40D-04 OVMax= 1.40D-02

 Cycle  12  Pass 1  IDiag  1:
 RMSU=  1.66D-05    CP:  9.66D-01  1.94D+00  2.61D-01  2.04D-01  5.99D-01
                    CP:  1.54D+00  1.49D+00  2.31D+00  3.00D+00  1.67D+00
                    CP:  1.30D+00
 E= -881.659362241497     Delta-E=       -0.000024976537 Rises=F Damp=F
 DIIS: error= 1.15D-04 at cycle  12 NSaved=  12.
 NSaved=12 IEnMin=12 EnMin= -881.659362241497     IErMin=12 ErrMin= 1.15D-04
 ErrMax= 1.15D-04  0.00D+00 EMaxC= 1.00D-01 BMatC= 1.71D-05 BMatP= 6.08D-05
 IDIUse=3 WtCom= 9.99D-01 WtEn= 1.15D-03
 Coeff-Com:  0.224D-02-0.311D-02-0.692D-03 0.326D-03-0.276D-02 0.650D-02
 Coeff-Com:  0.122D+00 0.233D+00-0.177D+00-0.309D+00 0.286D+00 0.842D+00
 Coeff-En:   0.000D+00 0.000D+00 0.000D+00 0.000D+00 0.000D+00 0.000D+00
 Coeff-En:   0.000D+00 0.000D+00 0.000D+00 0.000D+00 0.000D+00 0.100D+01
 Coeff:      0.223D-02-0.311D-02-0.691D-03 0.326D-03-0.276D-02 0.650D-02
 Coeff:      0.122D+00 0.233D+00-0.177D+00-0.309D+00 0.286D+00 0.842D+00
 Gap=     0.034 Goal=   None    Shift=    0.000
 Gap=     0.114 Goal=   None    Shift=    0.000
 RMSDP=3.57D-05 MaxDP=2.02D-03 DE=-2.50D-05 OVMax= 1.17D-02

 Cycle  13  Pass 1  IDiag  1:
 RMSU=  1.29D-05    CP:  9.66D-01  1.95D+00  2.58D-01  1.96D-01  6.15D-01
                    CP:  1.55D+00  1.48D+00  2.19D+00  3.00D+00  1.75D+00
                    CP:  1.32D+00  6.42D-01
 E= -881.659367725834     Delta-E=       -0.000005484337 Rises=F Damp=F
 DIIS: error= 2.11D-04 at cycle  13 NSaved=  13.
 NSaved=13 IEnMin=13 EnMin= -881.659367725834     IErMin=12 ErrMin= 1.15D-04
 ErrMax= 2.11D-04  0.00D+00 EMaxC= 1.00D-01 BMatC= 1.95D-05 BMatP= 1.71D-05
 IDIUse=3 WtCom= 9.99D-01 WtEn= 1.15D-03
 Coeff-Com:  0.585D-03-0.735D-03 0.366D-05 0.343D-03-0.848D-03 0.303D-02
 Coeff-Com:  0.929D-01 0.201D+00-0.119D+00-0.357D+00-0.176D-02 0.438D+00
 Coeff-Com:  0.744D+00
 Coeff-En:   0.000D+00 0.000D+00 0.000D+00 0.000D+00 0.000D+00 0.000D+00
 Coeff-En:   0.000D+00 0.000D+00 0.000D+00 0.000D+00 0.000D+00 0.000D+00
 Coeff-En:   0.100D+01
 Coeff:      0.584D-03-0.735D-03 0.366D-05 0.342D-03-0.847D-03 0.303D-02
 Coeff:      0.928D-01 0.201D+00-0.119D+00-0.357D+00-0.176D-02 0.437D+00
 Coeff:      0.745D+00
 Gap=     0.035 Goal=   None    Shift=    0.000
 Gap=     0.116 Goal=   None    Shift=    0.000
 RMSDP=1.01D-05 MaxDP=6.37D-04 DE=-5.48D-06 OVMax= 1.45D-03

 Cycle  14  Pass 1  IDiag  1:
 RMSU=  4.79D-06    CP:  9.66D-01  1.95D+00  2.57D-01  1.98D-01  6.12D-01
                    CP:  1.54D+00  1.48D+00  2.20D+00  3.00D+00  1.85D+00
                    CP:  1.45D+00  8.00D-01  1.08D+00
 E= -881.659375678617     Delta-E=       -0.000007952783 Rises=F Damp=F
 DIIS: error= 2.85D-05 at cycle  14 NSaved=  14.
 NSaved=14 IEnMin=14 EnMin= -881.659375678617     IErMin=14 ErrMin= 2.85D-05
 ErrMax= 2.85D-05  0.00D+00 EMaxC= 1.00D-01 BMatC= 1.07D-06 BMatP= 1.71D-05
 IDIUse=1 WtCom= 1.00D+00 WtEn= 0.00D+00
 Coeff-Com:  0.524D-03-0.616D-03 0.241D-03 0.497D-03-0.113D-02-0.125D-02
 Coeff-Com:  0.218D-01 0.508D-01-0.368D-01-0.104D+00-0.710D-01-0.856D-02
 Coeff-Com:  0.357D+00 0.792D+00
 Coeff:      0.524D-03-0.616D-03 0.241D-03 0.497D-03-0.113D-02-0.125D-02
 Coeff:      0.218D-01 0.508D-01-0.368D-01-0.104D+00-0.710D-01-0.856D-02
 Coeff:      0.357D+00 0.792D+00
 Gap=     0.035 Goal=   None    Shift=    0.000
 Gap=     0.116 Goal=   None    Shift=    0.000
 RMSDP=8.65D-06 MaxDP=6.86D-04 DE=-7.95D-06 OVMax= 2.95D-03

 Cycle  15  Pass 1  IDiag  1:
 RMSU=  2.99D-06    CP:  9.66D-01  1.95D+00  2.58D-01  1.99D-01  6.09D-01
                    CP:  1.54D+00  1.48D+00  2.23D+00  3.00D+00  1.87D+00
                    CP:  1.52D+00  9.16D-01  1.16D+00  1.07D+00
 E= -881.659377416974     Delta-E=       -0.000001738357 Rises=F Damp=F
 DIIS: error= 2.39D-05 at cycle  15 NSaved=  15.
 NSaved=15 IEnMin=15 EnMin= -881.659377416974     IErMin=15 ErrMin= 2.39D-05
 ErrMax= 2.39D-05  0.00D+00 EMaxC= 1.00D-01 BMatC= 5.30D-07 BMatP= 1.07D-06
 IDIUse=1 WtCom= 1.00D+00 WtEn= 0.00D+00
 Coeff-Com:  0.231D-03-0.258D-03 0.228D-03 0.274D-03-0.539D-03-0.143D-02
 Coeff-Com: -0.365D-02-0.721D-02-0.104D-02 0.202D-02-0.432D-01-0.102D+00
 Coeff-Com:  0.440D-01 0.484D+00 0.629D+00
 Coeff:      0.231D-03-0.258D-03 0.228D-03 0.274D-03-0.539D-03-0.143D-02
 Coeff:     -0.365D-02-0.721D-02-0.104D-02 0.202D-02-0.432D-01-0.102D+00
 Coeff:      0.440D-01 0.484D+00 0.629D+00
 Gap=     0.035 Goal=   None    Shift=    0.000
 Gap=     0.117 Goal=   None    Shift=    0.000
 RMSDP=4.18D-06 MaxDP=3.15D-04 DE=-1.74D-06 OVMax= 1.47D-03

 Cycle  16  Pass 1  IDiag  1:
 RMSU=  1.19D-06    CP:  9.66D-01  1.94D+00  2.58D-01  2.00D-01  6.07D-01
                    CP:  1.54D+00  1.48D+00  2.24D+00  3.00D+00  1.86D+00
                    CP:  1.55D+00  9.73D-01  1.18D+00  1.26D+00  1.26D+00
 E= -881.659377791600     Delta-E=       -0.000000374626 Rises=F Damp=F
 DIIS: error= 2.89D-05 at cycle  16 NSaved=  16.
 NSaved=16 IEnMin=16 EnMin= -881.659377791600     IErMin=15 ErrMin= 2.39D-05
 ErrMax= 2.89D-05  0.00D+00 EMaxC= 1.00D-01 BMatC= 3.34D-07 BMatP= 5.30D-07
 IDIUse=1 WtCom= 1.00D+00 WtEn= 0.00D+00
 Coeff-Com: -0.218D-03 0.276D-03 0.743D-04-0.797D-04 0.493D-03 0.119D-04
 Coeff-Com: -0.501D-02-0.124D-01 0.717D-02 0.140D-01 0.740D-02-0.230D-01
 Coeff-Com: -0.809D-01-0.343D-01 0.230D+00 0.896D+00
 Coeff:     -0.218D-03 0.276D-03 0.743D-04-0.797D-04 0.493D-03 0.119D-04
 Coeff:     -0.501D-02-0.124D-01 0.717D-02 0.140D-01 0.740D-02-0.230D-01
 Coeff:     -0.809D-01-0.343D-01 0.230D+00 0.896D+00
 Gap=     0.035 Goal=   None    Shift=    0.000
 Gap=     0.117 Goal=   None    Shift=    0.000
 RMSDP=2.71D-06 MaxDP=1.46D-04 DE=-3.75D-07 OVMax= 7.41D-04

 Cycle  17  Pass 1  IDiag  1:
 RMSU=  5.24D-07    CP:  9.66D-01  1.94D+00  2.58D-01  2.00D-01  6.06D-01
                    CP:  1.54D+00  1.49D+00  2.25D+00  3.00D+00  1.87D+00
                    CP:  1.57D+00  1.00D+00  1.17D+00  1.36D+00  1.51D+00
                    CP:  1.03D+00
 E= -881.659377940493     Delta-E=       -0.000000148892 Rises=F Damp=F
 DIIS: error= 6.20D-06 at cycle  17 NSaved=  17.
 NSaved=17 IEnMin=17 EnMin= -881.659377940493     IErMin=17 ErrMin= 6.20D-06
 ErrMax= 6.20D-06  0.00D+00 EMaxC= 1.00D-01 BMatC= 3.60D-08 BMatP= 3.34D-07
 IDIUse=1 WtCom= 1.00D+00 WtEn= 0.00D+00
 Coeff-Com: -0.196D-03 0.242D-03-0.128D-04-0.102D-03 0.431D-03 0.353D-03
 Coeff-Com: -0.132D-02-0.420D-02 0.296D-02 0.526D-02 0.119D-01 0.791D-02
 Coeff-Com: -0.489D-01-0.961D-01-0.771D-03 0.449D+00 0.673D+00
 Coeff:     -0.196D-03 0.242D-03-0.128D-04-0.102D-03 0.431D-03 0.353D-03
 Coeff:     -0.132D-02-0.420D-02 0.296D-02 0.526D-02 0.119D-01 0.791D-02
 Coeff:     -0.489D-01-0.961D-01-0.771D-03 0.449D+00 0.673D+00
 Gap=     0.035 Goal=   None    Shift=    0.000
 Gap=     0.117 Goal=   None    Shift=    0.000
 RMSDP=5.38D-07 MaxDP=2.84D-05 DE=-1.49D-07 OVMax= 9.16D-05

 Cycle  18  Pass 1  IDiag  1:
 RMSU=  2.96D-07    CP:  9.66D-01  1.94D+00  2.58D-01  2.00D-01  6.05D-01
                    CP:  1.54D+00  1.49D+00  2.25D+00  3.00D+00  1.87D+00
                    CP:  1.57D+00  1.01D+00  1.17D+00  1.40D+00  1.56D+00
                    CP:  1.14D+00  1.22D+00
 E= -881.659377957942     Delta-E=       -0.000000017450 Rises=F Damp=F
 DIIS: error= 2.31D-06 at cycle  18 NSaved=  18.
 NSaved=18 IEnMin=18 EnMin= -881.659377957942     IErMin=18 ErrMin= 2.31D-06
 ErrMax= 2.31D-06  0.00D+00 EMaxC= 1.00D-01 BMatC= 6.59D-09 BMatP= 3.60D-08
 IDIUse=1 WtCom= 1.00D+00 WtEn= 0.00D+00
 Coeff-Com:  0.520D-05-0.290D-05-0.486D-04-0.684D-05-0.549D-04 0.106D-03
 Coeff-Com:  0.351D-03 0.295D-03-0.154D-02 0.370D-02 0.830D-03 0.300D-02
 Coeff-Com:  0.665D-02-0.163D-02-0.721D-01-0.201D+00 0.272D+00 0.989D+00
 Coeff:      0.520D-05-0.290D-05-0.486D-04-0.684D-05-0.549D-04 0.106D-03
 Coeff:      0.351D-03 0.295D-03-0.154D-02 0.370D-02 0.830D-03 0.300D-02
 Coeff:      0.665D-02-0.163D-02-0.721D-01-0.201D+00 0.272D+00 0.989D+00
 Gap=     0.035 Goal=   None    Shift=    0.000
 Gap=     0.117 Goal=   None    Shift=    0.000
 RMSDP=4.05D-07 MaxDP=2.30D-05 DE=-1.74D-08 OVMax= 8.04D-05

 Cycle  19  Pass 1  IDiag  1:
 RMSU=  1.62D-07    CP:  9.66D-01  1.94D+00  2.58D-01  2.00D-01  6.05D-01
                    CP:  1.54D+00  1.49D+00  2.25D+00  3.00D+00  1.87D+00
                    CP:  1.57D+00  1.00D+00  1.18D+00  1.42D+00  1.58D+00
                    CP:  1.18D+00  1.68D+00  1.28D+00
 E= -881.659377966707     Delta-E=       -0.000000008765 Rises=F Damp=F
 DIIS: error= 1.28D-06 at cycle  19 NSaved=  19.
 NSaved=19 IEnMin=19 EnMin= -881.659377966707     IErMin=19 ErrMin= 1.28D-06
 ErrMax= 1.28D-06  0.00D+00 EMaxC= 1.00D-01 BMatC= 1.88D-09 BMatP= 6.59D-09
 IDIUse=1 WtCom= 1.00D+00 WtEn= 0.00D+00
 Coeff-Com:  0.397D-04-0.483D-04-0.213D-04 0.137D-04-0.113D-03-0.122D-04
 Coeff-Com:  0.170D-03 0.719D-03-0.136D-02 0.185D-02-0.325D-02-0.165D-02
 Coeff-Com:  0.139D-01 0.253D-01-0.312D-01-0.213D+00-0.489D-01 0.463D+00
 Coeff-Com:  0.795D+00
 Coeff:      0.397D-04-0.483D-04-0.213D-04 0.137D-04-0.113D-03-0.122D-04
 Coeff:      0.170D-03 0.719D-03-0.136D-02 0.185D-02-0.325D-02-0.165D-02
 Coeff:      0.139D-01 0.253D-01-0.312D-01-0.213D+00-0.489D-01 0.463D+00
 Coeff:      0.795D+00
 Gap=     0.035 Goal=   None    Shift=    0.000
 Gap=     0.117 Goal=   None    Shift=    0.000
 RMSDP=2.77D-07 MaxDP=1.96D-05 DE=-8.76D-09 OVMax= 8.88D-05

 Cycle  20  Pass 1  IDiag  1:
 RMSU=  7.82D-08    CP:  9.66D-01  1.94D+00  2.58D-01  2.00D-01  6.05D-01
                    CP:  1.54D+00  1.49D+00  2.24D+00  3.00D+00  1.87D+00
                    CP:  1.57D+00  1.00D+00  1.19D+00  1.43D+00  1.59D+00
                    CP:  1.20D+00  1.88D+00  1.60D+00  1.13D+00
 E= -881.659377968812     Delta-E=       -0.000000002105 Rises=F Damp=F
 DIIS: error= 1.40D-06 at cycle  20 NSaved=  20.
 NSaved=20 IEnMin=20 EnMin= -881.659377968812     IErMin=19 ErrMin= 1.28D-06
 ErrMax= 1.40D-06  0.00D+00 EMaxC= 1.00D-01 BMatC= 1.37D-09 BMatP= 1.88D-09
 IDIUse=1 WtCom= 1.00D+00 WtEn= 0.00D+00
 Coeff-Com:  0.169D-04-0.230D-04 0.576D-05 0.347D-05-0.340D-04-0.253D-04
 Coeff-Com: -0.309D-03-0.300D-03 0.127D-03 0.115D-02-0.197D-02-0.282D-02
 Coeff-Com:  0.263D-02 0.127D-01 0.947D-02-0.350D-01-0.103D+00-0.835D-01
 Coeff-Com:  0.408D+00 0.792D+00
 Coeff:      0.169D-04-0.230D-04 0.576D-05 0.347D-05-0.340D-04-0.253D-04
 Coeff:     -0.309D-03-0.300D-03 0.127D-03 0.115D-02-0.197D-02-0.282D-02
 Coeff:      0.263D-02 0.127D-01 0.947D-02-0.350D-01-0.103D+00-0.835D-01
 Coeff:      0.408D+00 0.792D+00
 Gap=     0.035 Goal=   None    Shift=    0.000
 Gap=     0.117 Goal=   None    Shift=    0.000
 RMSDP=1.52D-07 MaxDP=9.23D-06 DE=-2.11D-09 OVMax= 3.78D-05

 Cycle  21  Pass 1  IDiag  1:
 Restarting incremental Fock formation.
 E= -881.659377969416     Delta-E=       -0.000000000604 Rises=F Damp=F
 DIIS: error= 3.27D-07 at cycle  21 NSaved=  20.
 NSaved=20 IEnMin=20 EnMin= -881.659377969416     IErMin=20 ErrMin= 3.27D-07
 ErrMax= 3.27D-07  0.00D+00 EMaxC= 1.00D-01 BMatC= 1.44D-10 BMatP= 1.37D-09
 IDIUse=1 WtCom= 1.00D+00 WtEn= 0.00D+00
 Coeff-Com: -0.597D-06 0.770D-05-0.935D-06 0.572D-05-0.113D-04-0.963D-04
 Coeff-Com: -0.195D-04 0.301D-03-0.365D-03-0.354D-03-0.274D-03-0.507D-03
 Coeff-Com: -0.260D-03 0.744D-02 0.239D-01-0.345D-01-0.118D+00 0.374D-01
 Coeff-Com:  0.339D+00 0.746D+00
 Coeff:     -0.597D-06 0.770D-05-0.935D-06 0.572D-05-0.113D-04-0.963D-04
 Coeff:     -0.195D-04 0.301D-03-0.365D-03-0.354D-03-0.274D-03-0.507D-03
 Coeff:     -0.260D-03 0.744D-02 0.239D-01-0.345D-01-0.118D+00 0.374D-01
 Coeff:      0.339D+00 0.746D+00
 Gap=     0.035 Goal=   None    Shift=    0.000
 Gap=     0.117 Goal=   None    Shift=    0.000
 RMSDP=3.03D-08 MaxDP=1.72D-06 DE=-6.04D-10 OVMax= 5.24D-06

 Cycle  22  Pass 1  IDiag  1:
 RMSU=  3.03D-08    CP:  1.00D+00
 E= -881.659377969455     Delta-E=       -0.000000000040 Rises=F Damp=F
 DIIS: error= 2.44D-07 at cycle  22 NSaved=  20.
 NSaved=20 IEnMin=20 EnMin= -881.659377969455     IErMin=20 ErrMin= 2.44D-07
 ErrMax= 2.44D-07  0.00D+00 EMaxC= 1.00D-01 BMatC= 6.41D-11 BMatP= 1.44D-10
 IDIUse=1 WtCom= 1.00D+00 WtEn= 0.00D+00
 Coeff-Com:  0.405D-07 0.272D-05 0.287D-05-0.719D-05 0.327D-04 0.907D-04
 Coeff-Com:  0.119D-03-0.492D-03 0.250D-03 0.546D-03-0.458D-03-0.312D-02
 Coeff-Com:  0.776D-03 0.184D-01 0.375D-02-0.392D-01-0.658D-01-0.303D-02
 Coeff-Com:  0.403D+00 0.685D+00
 Coeff:      0.405D-07 0.272D-05 0.287D-05-0.719D-05 0.327D-04 0.907D-04
 Coeff:      0.119D-03-0.492D-03 0.250D-03 0.546D-03-0.458D-03-0.312D-02
 Coeff:      0.776D-03 0.184D-01 0.375D-02-0.392D-01-0.658D-01-0.303D-02
 Coeff:      0.403D+00 0.685D+00
 Gap=     0.035 Goal=   None    Shift=    0.000
 Gap=     0.117 Goal=   None    Shift=    0.000
 RMSDP=3.02D-08 MaxDP=2.04D-06 DE=-3.96D-11 OVMax= 1.21D-05

 Cycle  23  Pass 1  IDiag  1:
 RMSU=  2.99D-08    CP:  1.00D+00  8.47D-01
 E= -881.659377969494     Delta-E=       -0.000000000039 Rises=F Damp=F
 DIIS: error= 1.01D-07 at cycle  23 NSaved=  20.
 NSaved=20 IEnMin=20 EnMin= -881.659377969494     IErMin=20 ErrMin= 1.01D-07
 ErrMax= 1.01D-07  0.00D+00 EMaxC= 1.00D-01 BMatC= 5.19D-12 BMatP= 6.41D-11
 IDIUse=1 WtCom= 1.00D+00 WtEn= 0.00D+00
 Coeff-Com: -0.231D-06 0.621D-06-0.824D-06 0.421D-04 0.666D-04-0.184D-04
 Coeff-Com: -0.220D-03 0.192D-03 0.386D-03 0.301D-04-0.150D-02-0.154D-02
 Coeff-Com:  0.276D-02 0.831D-02 0.812D-02-0.316D-01-0.675D-01 0.373D-02
 Coeff-Com:  0.229D+00 0.850D+00
 Coeff:     -0.231D-06 0.621D-06-0.824D-06 0.421D-04 0.666D-04-0.184D-04
 Coeff:     -0.220D-03 0.192D-03 0.386D-03 0.301D-04-0.150D-02-0.154D-02
 Coeff:      0.276D-02 0.831D-02 0.812D-02-0.316D-01-0.675D-01 0.373D-02
 Coeff:      0.229D+00 0.850D+00
 Gap=     0.035 Goal=   None    Shift=    0.000
 Gap=     0.117 Goal=   None    Shift=    0.000
 RMSDP=2.63D-08 MaxDP=1.73D-06 DE=-3.89D-11 OVMax= 1.01D-05

 Cycle  24  Pass 1  IDiag  1:
 RMSU=  1.17D-08    CP:  1.00D+00  6.30D-01  1.76D+00
 E= -881.659377969500     Delta-E=       -0.000000000006 Rises=F Damp=F
 DIIS: error= 1.21D-07 at cycle  24 NSaved=  20.
 NSaved=20 IEnMin=20 EnMin= -881.659377969500     IErMin=19 ErrMin= 1.01D-07
 ErrMax= 1.21D-07  0.00D+00 EMaxC= 1.00D-01 BMatC= 6.66D-12 BMatP= 5.19D-12
 IDIUse=1 WtCom= 1.00D+00 WtEn= 0.00D+00
 Coeff-Com:  0.309D-06 0.114D-05 0.191D-04 0.284D-04-0.364D-04-0.699D-04
 Coeff-Com:  0.289D-04 0.659D-04 0.111D-03 0.801D-04-0.407D-03-0.119D-02
 Coeff-Com:  0.123D-02 0.629D-02-0.502D-02-0.209D-01-0.451D-01 0.248D-01
 Coeff-Com:  0.391D+00 0.649D+00
 Coeff:      0.309D-06 0.114D-05 0.191D-04 0.284D-04-0.364D-04-0.699D-04
 Coeff:      0.289D-04 0.659D-04 0.111D-03 0.801D-04-0.407D-03-0.119D-02
 Coeff:      0.123D-02 0.629D-02-0.502D-02-0.209D-01-0.451D-01 0.248D-01
 Coeff:      0.391D+00 0.649D+00
 Gap=     0.035 Goal=   None    Shift=    0.000
 Gap=     0.117 Goal=   None    Shift=    0.000
 RMSDP=3.59D-09 MaxDP=1.46D-07 DE=-6.14D-12 OVMax= 5.30D-07

 Error on total polarization charges =  0.01022
 SCF Done:  E(UB3LYP) =  -881.659377970     A.U. after   24 cycles
            NFock= 24  Conv=0.36D-08     -V/T= 2.0096
 <Sx>= 0.0000 <Sy>= 0.0000 <Sz>= 0.0000 <S**2>= 0.4873 S= 0.3586
 <L.S>=  0.00000000000    
 KE= 8.733182679169D+02 PE=-5.202951163064D+03 EE= 1.871592646561D+03
 Annihilation of the first spin contaminant:
 S**2 before annihilation     0.4873,   after     0.0122
 Leave Link  502 at Wed Jun 12 01:19:44 2019, MaxMem=   104857600 cpu:            2343.2 elap:              60.0
 (Enter /project/6004141/group/g16/g16/l801.exe)
 DoSCS=F DFT=T ScalE2(SS,OS)=  1.000000  1.000000
 Range of M.O.s used for correlation:     1   400
 NBasis=   400 NAE=    73 NBE=    73 NFC=     0 NFV=     0
 NROrb=    400 NOA=    73 NOB=    73 NVA=   327 NVB=   327

 **** Warning!!: The smallest alpha delta epsilon is  0.34912398D-01

 Leave Link  801 at Wed Jun 12 01:19:45 2019, MaxMem=   104857600 cpu:               2.3 elap:               0.2
 (Enter /project/6004141/group/g16/g16/l1101.exe)
 Using compressed storage, NAtomX=    40.
 Will process     41 centers per pass.
 PrsmSu:  requested number of processors reduced to:  25 ShMem   1 Linda.
 PrsmSu:  requested number of processors reduced to:   8 ShMem   1 Linda.
 R6Disp: Adding Grimme-D3 dispersion energy 1st derivatives to the gradient.
 Leave Link 1101 at Wed Jun 12 01:19:46 2019, MaxMem=   104857600 cpu:              24.4 elap:               0.8
 (Enter /project/6004141/group/g16/g16/l1102.exe)
 Symmetrizing basis deriv contribution to polar:
 IMax=3 JMax=2 DiffMx= 0.00D+00
 Leave Link 1102 at Wed Jun 12 01:19:47 2019, MaxMem=   104857600 cpu:               4.4 elap:               0.2
 (Enter /project/6004141/group/g16/g16/l1110.exe)
 Forming Gx(P) for the SCF density, NAtomX=    40.
 Integral derivatives from FoFJK, PRISM(SPDF).
 Do as many integral derivatives as possible in FoFJK.
 G2DrvN: MDV=     104854584.
 G2DrvN: will do     1 centers at a time, making   41 passes.
 Estimated number of processors is:   32
 G2DrvN:  IPasSy=1 do centers    0 through    0.
 Calling FoFCou, ICntrl=  3107 FMM=F I1Cent=   0 AccDes= 0.00D+00.
 FoFJK:  IHMeth= 1 ICntrl=    3107 DoSepK=F KAlg= 0 I1Cent=           0 FoldK=F
 IRaf=         0 NMat=       1 IRICut=       1 DoRegI=T DoRafI=F ISym2E= 0 IDoP0=0 IntGTp=1.
 FoFCou: FMM=F IPFlag=           0 FMFlag=      100000 FMFlg1=           0
         NFxFlg=           0 DoJE=F BraDBF=F KetDBF=F FulRan=T
         wScrn=  0.000000 ICntrl=      3107 IOpCl=  1 I1Cent=           0 NGrid=           0
         NMat0=    1 NMatS0=      1 NMatT0=    0 NMatD0=    1 NMtDS0=    0 NMtDT0=    0
 Symmetry not used in FoFCou.
 CoulSu:  requested number of processors reduced to:  37 ShMem   1 Linda.
 G2DrvN:  IPasSy=1 do centers    1 through    1.
 Calling FoFCou, ICntrl=  3107 FMM=F I1Cent=   0 AccDes= 0.00D+00.
 CoulSu:  requested number of processors reduced to:  32 ShMem   1 Linda.
 G2DrvN:  IPasSy=1 do centers    2 through    2.
 Calling FoFCou, ICntrl=  3107 FMM=F I1Cent=   0 AccDes= 0.00D+00.
 CoulSu:  requested number of processors reduced to:  32 ShMem   1 Linda.
 G2DrvN:  IPasSy=1 do centers    3 through    3.
 Calling FoFCou, ICntrl=  3107 FMM=F I1Cent=   0 AccDes= 0.00D+00.
 CoulSu:  requested number of processors reduced to:  32 ShMem   1 Linda.
 G2DrvN:  IPasSy=1 do centers    4 through    4.
 Calling FoFCou, ICntrl=  3107 FMM=F I1Cent=   0 AccDes= 0.00D+00.
 CoulSu:  requested number of processors reduced to:  32 ShMem   1 Linda.
 G2DrvN:  IPasSy=1 do centers    5 through    5.
 Calling FoFCou, ICntrl=  3107 FMM=F I1Cent=   0 AccDes= 0.00D+00.
 CoulSu:  requested number of processors reduced to:  32 ShMem   1 Linda.
 G2DrvN:  IPasSy=1 do centers    6 through    6.
 Calling FoFCou, ICntrl=  3107 FMM=F I1Cent=   0 AccDes= 0.00D+00.
 CoulSu:  requested number of processors reduced to:  32 ShMem   1 Linda.
 G2DrvN:  IPasSy=1 do centers    7 through    7.
 Calling FoFCou, ICntrl=  3107 FMM=F I1Cent=   0 AccDes= 0.00D+00.
 CoulSu:  requested number of processors reduced to:  32 ShMem   1 Linda.
 G2DrvN:  IPasSy=1 do centers    8 through    8.
 Calling FoFCou, ICntrl=  3107 FMM=F I1Cent=   0 AccDes= 0.00D+00.
 CoulSu:  requested number of processors reduced to:  32 ShMem   1 Linda.
 G2DrvN:  IPasSy=1 do centers    9 through    9.
 Calling FoFCou, ICntrl=  3107 FMM=F I1Cent=   0 AccDes= 0.00D+00.
 CoulSu:  requested number of processors reduced to:  32 ShMem   1 Linda.
 G2DrvN:  IPasSy=1 do centers   10 through   10.
 Calling FoFCou, ICntrl=  3107 FMM=F I1Cent=   0 AccDes= 0.00D+00.
 CoulSu:  requested number of processors reduced to:  32 ShMem   1 Linda.
 G2DrvN:  IPasSy=1 do centers   11 through   11.
 Calling FoFCou, ICntrl=  3107 FMM=F I1Cent=   0 AccDes= 0.00D+00.
 CoulSu:  requested number of processors reduced to:  32 ShMem   1 Linda.
 G2DrvN:  IPasSy=1 do centers   12 through   12.
 Calling FoFCou, ICntrl=  3107 FMM=F I1Cent=   0 AccDes= 0.00D+00.
 CoulSu:  requested number of processors reduced to:  32 ShMem   1 Linda.
 G2DrvN:  IPasSy=1 do centers   13 through   13.
 Calling FoFCou, ICntrl=  3107 FMM=F I1Cent=   0 AccDes= 0.00D+00.
 CoulSu:  requested number of processors reduced to:  32 ShMem   1 Linda.
 G2DrvN:  IPasSy=1 do centers   14 through   14.
 Calling FoFCou, ICntrl=  3107 FMM=F I1Cent=   0 AccDes= 0.00D+00.
 CoulSu:  requested number of processors reduced to:  32 ShMem   1 Linda.
 G2DrvN:  IPasSy=1 do centers   15 through   15.
 Calling FoFCou, ICntrl=  3107 FMM=F I1Cent=   0 AccDes= 0.00D+00.
 CoulSu:  requested number of processors reduced to:  32 ShMem   1 Linda.
 G2DrvN:  IPasSy=1 do centers   16 through   16.
 Calling FoFCou, ICntrl=  3107 FMM=F I1Cent=   0 AccDes= 0.00D+00.
 CoulSu:  requested number of processors reduced to:  32 ShMem   1 Linda.
 G2DrvN:  IPasSy=1 do centers   17 through   17.
 Calling FoFCou, ICntrl=  3107 FMM=F I1Cent=   0 AccDes= 0.00D+00.
 CoulSu:  requested number of processors reduced to:  32 ShMem   1 Linda.
 G2DrvN:  IPasSy=1 do centers   18 through   18.
 Calling FoFCou, ICntrl=  3107 FMM=F I1Cent=   0 AccDes= 0.00D+00.
 CoulSu:  requested number of processors reduced to:  32 ShMem   1 Linda.
 G2DrvN:  IPasSy=1 do centers   19 through   19.
 Calling FoFCou, ICntrl=  3107 FMM=F I1Cent=   0 AccDes= 0.00D+00.
 CoulSu:  requested number of processors reduced to:  32 ShMem   1 Linda.
 G2DrvN:  IPasSy=1 do centers   20 through   20.
 Calling FoFCou, ICntrl=  3107 FMM=F I1Cent=   0 AccDes= 0.00D+00.
 CoulSu:  requested number of processors reduced to:  32 ShMem   1 Linda.
 G2DrvN:  IPasSy=1 do centers   21 through   21.
 Calling FoFCou, ICntrl=  3107 FMM=F I1Cent=   0 AccDes= 0.00D+00.
 CoulSu:  requested number of processors reduced to:  32 ShMem   1 Linda.
 G2DrvN:  IPasSy=1 do centers   22 through   22.
 Calling FoFCou, ICntrl=  3107 FMM=F I1Cent=   0 AccDes= 0.00D+00.
 CoulSu:  requested number of processors reduced to:  32 ShMem   1 Linda.
 G2DrvN:  IPasSy=1 do centers   23 through   23.
 Calling FoFCou, ICntrl=  3107 FMM=F I1Cent=   0 AccDes= 0.00D+00.
 CoulSu:  requested number of processors reduced to:  32 ShMem   1 Linda.
 G2DrvN:  IPasSy=1 do centers   24 through   24.
 Calling FoFCou, ICntrl=  3107 FMM=F I1Cent=   0 AccDes= 0.00D+00.
 CoulSu:  requested number of processors reduced to:  32 ShMem   1 Linda.
 G2DrvN:  IPasSy=1 do centers   25 through   25.
 Calling FoFCou, ICntrl=  3107 FMM=F I1Cent=   0 AccDes= 0.00D+00.
 CoulSu:  requested number of processors reduced to:  32 ShMem   1 Linda.
 G2DrvN:  IPasSy=1 do centers   26 through   26.
 Calling FoFCou, ICntrl=  3107 FMM=F I1Cent=   0 AccDes= 0.00D+00.
 CoulSu:  requested number of processors reduced to:  32 ShMem   1 Linda.
 G2DrvN:  IPasSy=1 do centers   27 through   27.
 Calling FoFCou, ICntrl=  3107 FMM=F I1Cent=   0 AccDes= 0.00D+00.
 CoulSu:  requested number of processors reduced to:  32 ShMem   1 Linda.
 G2DrvN:  IPasSy=1 do centers   28 through   28.
 Calling FoFCou, ICntrl=  3107 FMM=F I1Cent=   0 AccDes= 0.00D+00.
 CoulSu:  requested number of processors reduced to:  32 ShMem   1 Linda.
 G2DrvN:  IPasSy=1 do centers   29 through   29.
 Calling FoFCou, ICntrl=  3107 FMM=F I1Cent=   0 AccDes= 0.00D+00.
 CoulSu:  requested number of processors reduced to:  32 ShMem   1 Linda.
 G2DrvN:  IPasSy=1 do centers   30 through   30.
 Calling FoFCou, ICntrl=  3107 FMM=F I1Cent=   0 AccDes= 0.00D+00.
 CoulSu:  requested number of processors reduced to:  32 ShMem   1 Linda.
 G2DrvN:  IPasSy=1 do centers   31 through   31.
 Calling FoFCou, ICntrl=  3107 FMM=F I1Cent=   0 AccDes= 0.00D+00.
 CoulSu:  requested number of processors reduced to:  32 ShMem   1 Linda.
 G2DrvN:  IPasSy=1 do centers   32 through   32.
 Calling FoFCou, ICntrl=  3107 FMM=F I1Cent=   0 AccDes= 0.00D+00.
 CoulSu:  requested number of processors reduced to:  32 ShMem   1 Linda.
 G2DrvN:  IPasSy=1 do centers   33 through   33.
 Calling FoFCou, ICntrl=  3107 FMM=F I1Cent=   0 AccDes= 0.00D+00.
 CoulSu:  requested number of processors reduced to:  32 ShMem   1 Linda.
 G2DrvN:  IPasSy=1 do centers   34 through   34.
 Calling FoFCou, ICntrl=  3107 FMM=F I1Cent=   0 AccDes= 0.00D+00.
 CoulSu:  requested number of processors reduced to:  32 ShMem   1 Linda.
 G2DrvN:  IPasSy=1 do centers   35 through   35.
 Calling FoFCou, ICntrl=  3107 FMM=F I1Cent=   0 AccDes= 0.00D+00.
 CoulSu:  requested number of processors reduced to:  32 ShMem   1 Linda.
 G2DrvN:  IPasSy=1 do centers   36 through   36.
 Calling FoFCou, ICntrl=  3107 FMM=F I1Cent=   0 AccDes= 0.00D+00.
 CoulSu:  requested number of processors reduced to:  32 ShMem   1 Linda.
 G2DrvN:  IPasSy=1 do centers   37 through   37.
 Calling FoFCou, ICntrl=  3107 FMM=F I1Cent=   0 AccDes= 0.00D+00.
 CoulSu:  requested number of processors reduced to:  32 ShMem   1 Linda.
 G2DrvN:  IPasSy=1 do centers   38 through   38.
 Calling FoFCou, ICntrl=  3107 FMM=F I1Cent=   0 AccDes= 0.00D+00.
 CoulSu:  requested number of processors reduced to:  32 ShMem   1 Linda.
 G2DrvN:  IPasSy=1 do centers   39 through   39.
 Calling FoFCou, ICntrl=  3107 FMM=F I1Cent=   0 AccDes= 0.00D+00.
 CoulSu:  requested number of processors reduced to:  32 ShMem   1 Linda.
 G2DrvN:  IPasSy=1 do centers   40 through   40.
 Calling FoFCou, ICntrl=  3107 FMM=F I1Cent=   0 AccDes= 0.00D+00.
 CoulSu:  requested number of processors reduced to:  32 ShMem   1 Linda.
 NEqPCM:  Using equilibrium solvation (IEInf=0, Eps=  35.6880, EpsInf=   1.8069)
 G2PCM: DoFxE=T DoFxN=T DoGrad=T DoDP/DQ/DG/TGxP=FFFF NFrqRd=   0 IEInf=0 SqF1=F DoCFld=F IF1Alg=4.
 GePol: Maximum number of non-zero 1st derivatives   =     227
 CoulSu:  requested number of processors reduced to:  30 ShMem   1 Linda.
 CoulSu:  requested number of processors reduced to:  38 ShMem   1 Linda.
 CoulSu:  requested number of processors reduced to:  29 ShMem   1 Linda.
 CoulSu:  requested number of processors reduced to:  30 ShMem   1 Linda.
 CoulSu:  requested number of processors reduced to:  34 ShMem   1 Linda.
 CoulSu:  requested number of processors reduced to:  30 ShMem   1 Linda.
 CoulSu:  requested number of processors reduced to:  34 ShMem   1 Linda.
 CoulSu:  requested number of processors reduced to:  30 ShMem   1 Linda.
 CoulSu:  requested number of processors reduced to:  34 ShMem   1 Linda.
 CoulSu:  requested number of processors reduced to:  30 ShMem   1 Linda.
 CoulSu:  requested number of processors reduced to:  34 ShMem   1 Linda.
 CoulSu:  requested number of processors reduced to:  30 ShMem   1 Linda.
 CoulSu:  requested number of processors reduced to:  34 ShMem   1 Linda.
 CoulSu:  requested number of processors reduced to:  30 ShMem   1 Linda.
 CoulSu:  requested number of processors reduced to:  34 ShMem   1 Linda.
 CoulSu:  requested number of processors reduced to:  30 ShMem   1 Linda.
 CoulSu:  requested number of processors reduced to:  34 ShMem   1 Linda.
 CoulSu:  requested number of processors reduced to:  30 ShMem   1 Linda.
 CoulSu:  requested number of processors reduced to:  34 ShMem   1 Linda.
 CoulSu:  requested number of processors reduced to:  30 ShMem   1 Linda.
 CoulSu:  requested number of processors reduced to:  34 ShMem   1 Linda.
 CoulSu:  requested number of processors reduced to:  30 ShMem   1 Linda.
 CoulSu:  requested number of processors reduced to:  34 ShMem   1 Linda.
 CoulSu:  requested number of processors reduced to:  30 ShMem   1 Linda.
 CoulSu:  requested number of processors reduced to:  34 ShMem   1 Linda.
 CoulSu:  requested number of processors reduced to:  30 ShMem   1 Linda.
 CoulSu:  requested number of processors reduced to:  34 ShMem   1 Linda.
 CoulSu:  requested number of processors reduced to:  30 ShMem   1 Linda.
 CoulSu:  requested number of processors reduced to:  34 ShMem   1 Linda.
 CoulSu:  requested number of processors reduced to:  30 ShMem   1 Linda.
 CoulSu:  requested number of processors reduced to:  39 ShMem   1 Linda.
 CoulSu:  requested number of processors reduced to:  27 ShMem   1 Linda.
 CoulSu:  requested number of processors reduced to:  28 ShMem   1 Linda.
 CoulSu:  requested number of processors reduced to:  27 ShMem   1 Linda.
 CoulSu:  requested number of processors reduced to:  28 ShMem   1 Linda.
 End of G2Drv F.D. properties file   721 does not exist.
 End of G2Drv F.D. properties file   722 does not exist.
 End of G2Drv F.D. properties file   788 does not exist.
 Leave Link 1110 at Wed Jun 12 01:23:23 2019, MaxMem=   104857600 cpu:            8218.5 elap:             216.5
 (Enter /project/6004141/group/g16/g16/l1002.exe)
 Minotr:  UHF open shell wavefunction.
          IDoAtm=1111111111111111111111111111111111111111
 NEqPCM:  Using equilibrium solvation (IEInf=0, Eps=  35.6880, EpsInf=   1.8069)
          Direct CPHF calculation.
          Differentiating once with respect to nuclear coordinates.
          Requested convergence is 1.0D-08 RMS, and 1.0D-07 maximum.
          Secondary convergence is 1.0D-12 RMS, and 1.0D-12 maximum.
          NewPWx=T KeepS1=F KeepF1=F KeepIn=T MapXYZ=F SortEE=F KeepMc=T.
        12026 words used for storage of precomputed grid.
 Two-electron integral symmetry not used.
          MDV=     104857600 using IRadAn=       1.
          Solving linear equations simultaneously, MaxMat=     360.
 FoF2E skips out because all densities are zero.
 CalDSu exits because no D1Ps are significant.
 FoFJK:  IHMeth= 1 ICntrl=       0 DoSepK=F KAlg= 0 I1Cent=           0 FoldK=F
 IRaf= 760000000 NMat=       4 IRICut=       1 DoRegI=T DoRafI=F ISym2E= 0 IDoP0=0 IntGTp=1.
          There are   123 degrees of freedom in the 1st order CPHF.  IDoFFX=6 NUNeed=     0.
    120 vectors produced by pass  0 Test12= 4.77D-14 1.00D-09 XBig12= 5.47D-01 5.38D-01.
 AX will form     4 AO Fock derivatives at one time.
    118 vectors produced by pass  1 Test12= 4.77D-14 1.00D-09 XBig12= 1.13D-01 6.16D-02.
    117 vectors produced by pass  2 Test12= 4.77D-14 1.00D-09 XBig12= 1.37D-03 5.08D-03.
    117 vectors produced by pass  3 Test12= 4.77D-14 1.00D-09 XBig12= 1.30D-05 6.20D-04.
    117 vectors produced by pass  4 Test12= 4.77D-14 1.00D-09 XBig12= 5.62D-08 2.58D-05.
    117 vectors produced by pass  5 Test12= 4.77D-14 1.00D-09 XBig12= 2.48D-10 1.02D-06.
     79 vectors produced by pass  6 Test12= 4.77D-14 1.00D-09 XBig12= 8.58D-13 5.69D-08.
     17 vectors produced by pass  7 Test12= 4.77D-14 1.00D-09 XBig12= 3.70D-15 4.76D-09.
      5 vectors produced by pass  8 Test12= 4.77D-14 1.00D-09 XBig12= 1.16D-15 2.01D-09.
      3 vectors produced by pass  9 Test12= 4.77D-14 1.00D-09 XBig12= 6.54D-16 1.10D-09.
      2 vectors produced by pass 10 Test12= 4.77D-14 1.00D-09 XBig12= 5.97D-16 1.33D-09.
 InvSVY:  IOpt=1 It=  1 EMax= 2.44D-15
 Solved reduced A of dimension   812 with   123 vectors.
 End of Minotr F.D. properties file   721 does not exist.
 End of Minotr F.D. properties file   722 does not exist.
 End of Minotr F.D. properties file   788 does not exist.
 Leave Link 1002 at Wed Jun 12 01:33:15 2019, MaxMem=   104857600 cpu:           23574.5 elap:             592.7
 (Enter /project/6004141/group/g16/g16/l601.exe)
 Copying SCF densities to generalized density rwf, IOpCl= 1 IROHF=0.

 **********************************************************************

            Population analysis using the SCF density.

 **********************************************************************

 Alpha  occ. eigenvalues --  -19.15910 -19.11650 -14.41613 -14.38789 -10.25597
 Alpha  occ. eigenvalues --  -10.25083 -10.19797 -10.19247 -10.19043 -10.19000
 Alpha  occ. eigenvalues --  -10.18944 -10.18926 -10.18925 -10.18878 -10.18824
 Alpha  occ. eigenvalues --  -10.18810 -10.18677 -10.18412 -10.17779 -10.17594
 Alpha  occ. eigenvalues --   -1.04270  -1.03156  -0.99158  -0.85431  -0.84975
 Alpha  occ. eigenvalues --   -0.77648  -0.75955  -0.74557  -0.74401  -0.74177
 Alpha  occ. eigenvalues --   -0.72180  -0.71608  -0.63652  -0.62368  -0.60259
 Alpha  occ. eigenvalues --   -0.59690  -0.58111  -0.56611  -0.53900  -0.51430
 Alpha  occ. eigenvalues --   -0.50437  -0.50347  -0.49076  -0.46297  -0.45475
 Alpha  occ. eigenvalues --   -0.45118  -0.44837  -0.44079  -0.43666  -0.42300
 Alpha  occ. eigenvalues --   -0.41797  -0.41686  -0.41528  -0.40587  -0.40303
 Alpha  occ. eigenvalues --   -0.38087  -0.37941  -0.37495  -0.36346  -0.36248
 Alpha  occ. eigenvalues --   -0.35095  -0.34584  -0.33769  -0.33699  -0.31849
 Alpha  occ. eigenvalues --   -0.31490  -0.29560  -0.26477  -0.25317  -0.25061
 Alpha  occ. eigenvalues --   -0.24632  -0.24225  -0.16001
 Alpha virt. eigenvalues --   -0.12510  -0.02548  -0.00615   0.00745   0.01371
 Alpha virt. eigenvalues --    0.07310   0.08169   0.09715   0.09950   0.10499
 Alpha virt. eigenvalues --    0.12480   0.13474   0.14051   0.14137   0.15119
 Alpha virt. eigenvalues --    0.15565   0.15988   0.16442   0.17309   0.18190
 Alpha virt. eigenvalues --    0.18344   0.18480   0.19407   0.20540   0.21364
 Alpha virt. eigenvalues --    0.22890   0.23552   0.24135   0.24512   0.26051
 Alpha virt. eigenvalues --    0.27173   0.27808   0.28342   0.29603   0.30575
 Alpha virt. eigenvalues --    0.30812   0.33648   0.34188   0.34688   0.35413
 Alpha virt. eigenvalues --    0.36162   0.38281   0.40621   0.46244   0.48388
 Alpha virt. eigenvalues --    0.48594   0.49513   0.52555   0.52648   0.53089
 Alpha virt. eigenvalues --    0.53299   0.53697   0.54223   0.54762   0.55147
 Alpha virt. eigenvalues --    0.56113   0.56312   0.57764   0.58405   0.58741
 Alpha virt. eigenvalues --    0.60009   0.60705   0.60805   0.60927   0.61028
 Alpha virt. eigenvalues --    0.61187   0.61550   0.62376   0.62859   0.63052
 Alpha virt. eigenvalues --    0.63810   0.64802   0.65459   0.66318   0.67288
 Alpha virt. eigenvalues --    0.68345   0.69577   0.70415   0.71028   0.71702
 Alpha virt. eigenvalues --    0.73385   0.74730   0.76416   0.77535   0.78530
 Alpha virt. eigenvalues --    0.79598   0.80993   0.81580   0.82116   0.82447
 Alpha virt. eigenvalues --    0.82718   0.82806   0.83274   0.84267   0.84804
 Alpha virt. eigenvalues --    0.85262   0.86221   0.86621   0.88057   0.89365
 Alpha virt. eigenvalues --    0.89559   0.89932   0.90295   0.91383   0.93005
 Alpha virt. eigenvalues --    0.93409   0.94963   0.95322   0.96595   0.97831
 Alpha virt. eigenvalues --    0.98117   0.99374   0.99674   1.00524   1.01419
 Alpha virt. eigenvalues --    1.04287   1.04894   1.06751   1.08151   1.08714
 Alpha virt. eigenvalues --    1.10121   1.11104   1.12813   1.12847   1.13871
 Alpha virt. eigenvalues --    1.15595   1.16727   1.18754   1.19188   1.20076
 Alpha virt. eigenvalues --    1.23393   1.25120   1.26175   1.27613   1.28205
 Alpha virt. eigenvalues --    1.29782   1.33366   1.34404   1.35321   1.36322
 Alpha virt. eigenvalues --    1.36750   1.38608   1.39345   1.39714   1.40180
 Alpha virt. eigenvalues --    1.40741   1.41221   1.41822   1.42686   1.43124
 Alpha virt. eigenvalues --    1.43732   1.44026   1.45796   1.47295   1.48708
 Alpha virt. eigenvalues --    1.50249   1.51034   1.52868   1.55036   1.57384
 Alpha virt. eigenvalues --    1.62192   1.66278   1.68701   1.72540   1.73535
 Alpha virt. eigenvalues --    1.76479   1.77158   1.78535   1.79684   1.80189
 Alpha virt. eigenvalues --    1.80639   1.82156   1.82737   1.84332   1.86561
 Alpha virt. eigenvalues --    1.87728   1.88036   1.89693   1.90146   1.92651
 Alpha virt. eigenvalues --    1.93089   1.93922   1.94767   1.95909   1.96737
 Alpha virt. eigenvalues --    1.98082   1.98629   1.99663   2.00107   2.00237
 Alpha virt. eigenvalues --    2.00891   2.01734   2.02315   2.04042   2.05143
 Alpha virt. eigenvalues --    2.06259   2.07155   2.08215   2.08461   2.08570
 Alpha virt. eigenvalues --    2.09526   2.10393   2.11177   2.12737   2.13598
 Alpha virt. eigenvalues --    2.13940   2.15512   2.18097   2.19407   2.20461
[...]
 DIIS: error= 1.77D-05 at cycle  15 NSaved=  15.
 NSaved=15 IEnMin=15 EnMin= -881.674152634551     IErMin=15 ErrMin= 1.77D-05
 ErrMax= 1.77D-05  0.00D+00 EMaxC= 1.00D-01 BMatC= 3.79D-07 BMatP= 9.78D-07
 IDIUse=1 WtCom= 1.00D+00 WtEn= 0.00D+00
 Coeff-Com: -0.204D-03 0.233D-03 0.218D-03-0.213D-03 0.122D-03-0.147D-02
 Coeff-Com:  0.368D-02-0.302D-02 0.107D-01 0.337D-01-0.451D-01-0.135D+00
 Coeff-Com: -0.645D-01 0.342D+00 0.859D+00
 Coeff:     -0.204D-03 0.233D-03 0.218D-03-0.213D-03 0.122D-03-0.147D-02
 Coeff:      0.368D-02-0.302D-02 0.107D-01 0.337D-01-0.451D-01-0.135D+00
 Coeff:     -0.645D-01 0.342D+00 0.859D+00
 Gap=     0.069 Goal=   None    Shift=    0.000
 Gap=     0.105 Goal=   None    Shift=    0.000
 RMSDP=2.61D-06 MaxDP=1.45D-04 DE=-7.93D-07 OVMax= 6.22D-04

 Cycle  16  Pass 1  IDiag  1:
 RMSU=  1.12D-06    CP:  9.62D-01  1.87D+00  3.82D-01  4.63D-01  1.77D-01
                    CP:  6.65D-01  1.58D+00  1.81D+00  2.12D+00  1.70D+00
                    CP:  1.82D+00  1.42D+00  1.15D+00  1.44D+00  1.30D+00
 E= -881.674152960488     Delta-E=       -0.000000325937 Rises=F Damp=F
 DIIS: error= 9.74D-06 at cycle  16 NSaved=  16.
 NSaved=16 IEnMin=16 EnMin= -881.674152960488     IErMin=16 ErrMin= 9.74D-06
 ErrMax= 9.74D-06  0.00D+00 EMaxC= 1.00D-01 BMatC= 1.52D-07 BMatP= 3.79D-07
 IDIUse=1 WtCom= 1.00D+00 WtEn= 0.00D+00
 Coeff-Com:  0.250D-04-0.560D-04-0.142D-04 0.110D-04-0.118D-03 0.157D-03
 Coeff-Com:  0.762D-02-0.153D-01 0.421D-02 0.308D-01-0.962D-02-0.702D-01
 Coeff-Com: -0.118D+00-0.136D+00 0.486D+00 0.819D+00
 Coeff:      0.250D-04-0.560D-04-0.142D-04 0.110D-04-0.118D-03 0.157D-03
 Coeff:      0.762D-02-0.153D-01 0.421D-02 0.308D-01-0.962D-02-0.702D-01
 Coeff:     -0.118D+00-0.136D+00 0.486D+00 0.819D+00
 Gap=     0.069 Goal=   None    Shift=    0.000
 Gap=     0.105 Goal=   None    Shift=    0.000
 RMSDP=1.34D-06 MaxDP=8.35D-05 DE=-3.26D-07 OVMax= 2.60D-04

 Cycle  17  Pass 1  IDiag  1:
 RMSU=  5.44D-07    CP:  9.62D-01  1.87D+00  3.82D-01  4.63D-01  1.77D-01
                    CP:  6.65D-01  1.58D+00  1.81D+00  2.12D+00  1.70D+00
                    CP:  1.82D+00  1.43D+00  1.19D+00  1.59D+00  1.75D+00
                    CP:  1.27D+00
 E= -881.674153069001     Delta-E=       -0.000000108513 Rises=F Damp=F
 DIIS: error= 4.96D-06 at cycle  17 NSaved=  17.
 NSaved=17 IEnMin=17 EnMin= -881.674153069001     IErMin=17 ErrMin= 4.96D-06
 ErrMax= 4.96D-06  0.00D+00 EMaxC= 1.00D-01 BMatC= 2.15D-08 BMatP= 1.52D-07
 IDIUse=1 WtCom= 1.00D+00 WtEn= 0.00D+00
 Coeff-Com:  0.127D-03-0.166D-03-0.275D-04 0.389D-04-0.205D-03 0.475D-03
 Coeff-Com:  0.218D-02-0.524D-02-0.158D-02 0.417D-02 0.561D-02 0.403D-02
 Coeff-Com: -0.329D-01-0.125D+00-0.566D-03 0.317D+00 0.832D+00
 Coeff:      0.127D-03-0.166D-03-0.275D-04 0.389D-04-0.205D-03 0.475D-03
 Coeff:      0.218D-02-0.524D-02-0.158D-02 0.417D-02 0.561D-02 0.403D-02
 Coeff:     -0.329D-01-0.125D+00-0.566D-03 0.317D+00 0.832D+00
 Gap=     0.069 Goal=   None    Shift=    0.000
 Gap=     0.105 Goal=   None    Shift=    0.000
 RMSDP=7.03D-07 MaxDP=4.38D-05 DE=-1.09D-07 OVMax= 1.76D-04

 Cycle  18  Pass 1  IDiag  1:
 RMSU=  2.51D-07    CP:  9.62D-01  1.87D+00  3.82D-01  4.63D-01  1.77D-01
                    CP:  6.65D-01  1.58D+00  1.81D+00  2.12D+00  1.70D+00
                    CP:  1.82D+00  1.43D+00  1.20D+00  1.64D+00  1.93D+00
                    CP:  1.53D+00  1.19D+00
 E= -881.674153090326     Delta-E=       -0.000000021325 Rises=F Damp=F
 DIIS: error= 2.33D-06 at cycle  18 NSaved=  18.
 NSaved=18 IEnMin=18 EnMin= -881.674153090326     IErMin=18 ErrMin= 2.33D-06
 ErrMax= 2.33D-06  0.00D+00 EMaxC= 1.00D-01 BMatC= 9.14D-09 BMatP= 2.15D-08
 IDIUse=1 WtCom= 1.00D+00 WtEn= 0.00D+00
 Coeff-Com:  0.831D-04-0.104D-03-0.931D-05 0.216D-04-0.129D-03 0.332D-03
 Coeff-Com:  0.138D-03-0.105D-02-0.165D-02-0.225D-02 0.502D-02 0.150D-01
 Coeff-Com:  0.251D-02-0.403D-01-0.956D-01 0.143D-01 0.464D+00 0.640D+00
 Coeff:      0.831D-04-0.104D-03-0.931D-05 0.216D-04-0.129D-03 0.332D-03
 Coeff:      0.138D-03-0.105D-02-0.165D-02-0.225D-02 0.502D-02 0.150D-01
 Coeff:      0.251D-02-0.403D-01-0.956D-01 0.143D-01 0.464D+00 0.640D+00
 Gap=     0.069 Goal=   None    Shift=    0.000
 Gap=     0.105 Goal=   None    Shift=    0.000
 RMSDP=3.27D-07 MaxDP=1.61D-05 DE=-2.13D-08 OVMax= 1.14D-04

 Cycle  19  Pass 1  IDiag  1:
 RMSU=  1.17D-07    CP:  9.62D-01  1.87D+00  3.82D-01  4.63D-01  1.77D-01
                    CP:  6.65D-01  1.58D+00  1.81D+00  2.12D+00  1.70D+00
                    CP:  1.82D+00  1.43D+00  1.20D+00  1.65D+00  1.98D+00
                    CP:  1.63D+00  1.34D+00  9.71D-01
 E= -881.674153095103     Delta-E=       -0.000000004777 Rises=F Damp=F
 DIIS: error= 1.17D-06 at cycle  19 NSaved=  19.
 NSaved=19 IEnMin=19 EnMin= -881.674153095103     IErMin=19 ErrMin= 1.17D-06
 ErrMax= 1.17D-06  0.00D+00 EMaxC= 1.00D-01 BMatC= 1.60D-09 BMatP= 9.14D-09
 IDIUse=1 WtCom= 1.00D+00 WtEn= 0.00D+00
 Coeff-Com:  0.290D-05-0.277D-05 0.380D-05-0.356D-05-0.131D-04 0.264D-04
 Coeff-Com: -0.178D-03 0.166D-03 0.116D-03-0.413D-03-0.763D-04 0.182D-02
 Coeff-Com:  0.594D-02 0.177D-01-0.248D-01-0.597D-01-0.757D-01 0.187D+00
 Coeff-Com:  0.948D+00
 Coeff:      0.290D-05-0.277D-05 0.380D-05-0.356D-05-0.131D-04 0.264D-04
 Coeff:     -0.178D-03 0.166D-03 0.116D-03-0.413D-03-0.763D-04 0.182D-02
 Coeff:      0.594D-02 0.177D-01-0.248D-01-0.597D-01-0.757D-01 0.187D+00
 Coeff:      0.948D+00
 Gap=     0.069 Goal=   None    Shift=    0.000
 Gap=     0.105 Goal=   None    Shift=    0.000
 RMSDP=1.93D-07 MaxDP=8.82D-06 DE=-4.78D-09 OVMax= 7.22D-05

 Cycle  20  Pass 1  IDiag  1:
 RMSU=  4.54D-08    CP:  9.62D-01  1.87D+00  3.82D-01  4.63D-01  1.77D-01
                    CP:  6.65D-01  1.58D+00  1.81D+00  2.12D+00  1.70D+00
                    CP:  1.82D+00  1.43D+00  1.20D+00  1.66D+00  2.00D+00
                    CP:  1.68D+00  1.44D+00  1.18D+00  1.09D+00
 E= -881.674153096034     Delta-E=       -0.000000000931 Rises=F Damp=F
 DIIS: error= 3.43D-07 at cycle  20 NSaved=  20.
 NSaved=20 IEnMin=20 EnMin= -881.674153096034     IErMin=20 ErrMin= 3.43D-07
 ErrMax= 3.43D-07  0.00D+00 EMaxC= 1.00D-01 BMatC= 2.84D-10 BMatP= 1.60D-09
 IDIUse=1 WtCom= 1.00D+00 WtEn= 0.00D+00
 Coeff-Com: -0.529D-05 0.619D-05 0.210D-05-0.337D-05 0.559D-05-0.253D-04
 Coeff-Com: -0.703D-04 0.129D-03 0.294D-03 0.204D-03-0.644D-03-0.105D-02
 Coeff-Com:  0.243D-02 0.140D-01-0.189D-02-0.306D-01-0.102D+00 0.275D-01
 Coeff-Com:  0.508D+00 0.584D+00
 Coeff:     -0.529D-05 0.619D-05 0.210D-05-0.337D-05 0.559D-05-0.253D-04
 Coeff:     -0.703D-04 0.129D-03 0.294D-03 0.204D-03-0.644D-03-0.105D-02
 Coeff:      0.243D-02 0.140D-01-0.189D-02-0.306D-01-0.102D+00 0.275D-01
 Coeff:      0.508D+00 0.584D+00
 Gap=     0.069 Goal=   None    Shift=    0.000
 Gap=     0.105 Goal=   None    Shift=    0.000
 RMSDP=4.07D-08 MaxDP=1.94D-06 DE=-9.31D-10 OVMax= 1.03D-05

 Cycle  21  Pass 1  IDiag  1:
 Restarting incremental Fock formation.
 E= -881.674153096129     Delta-E=       -0.000000000095 Rises=F Damp=F
 DIIS: error= 1.33D-07 at cycle  21 NSaved=  20.
 NSaved=20 IEnMin=20 EnMin= -881.674153096129     IErMin=20 ErrMin= 1.33D-07
 ErrMax= 1.33D-07  0.00D+00 EMaxC= 1.00D-01 BMatC= 4.21D-11 BMatP= 2.84D-10
 IDIUse=1 WtCom= 1.00D+00 WtEn= 0.00D+00
 Coeff-Com: -0.733D-06 0.397D-06 0.156D-06 0.197D-05-0.291D-04-0.198D-04
 Coeff-Com:  0.111D-03 0.106D-03 0.125D-03-0.335D-03-0.924D-03-0.189D-03
 Coeff-Com:  0.300D-02 0.398D-02 0.214D-03-0.325D-01-0.194D-01 0.168D-01
 Coeff-Com:  0.266D+00 0.763D+00
 Coeff:     -0.733D-06 0.397D-06 0.156D-06 0.197D-05-0.291D-04-0.198D-04
 Coeff:      0.111D-03 0.106D-03 0.125D-03-0.335D-03-0.924D-03-0.189D-03
 Coeff:      0.300D-02 0.398D-02 0.214D-03-0.325D-01-0.194D-01 0.168D-01
 Coeff:      0.266D+00 0.763D+00
 Gap=     0.069 Goal=   None    Shift=    0.000
 Gap=     0.105 Goal=   None    Shift=    0.000
 RMSDP=1.42D-08 MaxDP=7.88D-07 DE=-9.48D-11 OVMax= 1.74D-06

 Cycle  22  Pass 1  IDiag  1:
 RMSU=  1.42D-08    CP:  1.00D+00
 E= -881.674153096136     Delta-E=       -0.000000000007 Rises=F Damp=F
 DIIS: error= 8.25D-08 at cycle  22 NSaved=  20.
 NSaved=20 IEnMin=20 EnMin= -881.674153096136     IErMin=20 ErrMin= 8.25D-08
 ErrMax= 8.25D-08  0.00D+00 EMaxC= 1.00D-01 BMatC= 1.12D-11 BMatP= 4.21D-11
 IDIUse=1 WtCom= 1.00D+00 WtEn= 0.00D+00
 Coeff-Com:  0.977D-07-0.252D-06 0.650D-06-0.734D-05-0.147D-04 0.741D-04
 Coeff-Com: -0.222D-04-0.568D-04 0.187D-05-0.548D-04-0.446D-03-0.153D-02
 Coeff-Com:  0.125D-02 0.635D-02 0.705D-02-0.946D-02-0.101D+00-0.124D-01
 Coeff-Com:  0.347D+00 0.763D+00
 Coeff:      0.977D-07-0.252D-06 0.650D-06-0.734D-05-0.147D-04 0.741D-04
 Coeff:     -0.222D-04-0.568D-04 0.187D-05-0.548D-04-0.446D-03-0.153D-02
 Coeff:      0.125D-02 0.635D-02 0.705D-02-0.946D-02-0.101D+00-0.124D-01
 Coeff:      0.347D+00 0.763D+00
 Gap=     0.069 Goal=   None    Shift=    0.000
 Gap=     0.105 Goal=   None    Shift=    0.000
 RMSDP=1.04D-08 MaxDP=4.28D-07 DE=-6.59D-12 OVMax= 2.76D-06

 Cycle  23  Pass 1  IDiag  1:
 RMSU=  1.03D-08    CP:  1.00D+00  1.14D+00
 E= -881.674153096144     Delta-E=       -0.000000000009 Rises=F Damp=F
 DIIS: error= 3.36D-08 at cycle  23 NSaved=  20.
 NSaved=20 IEnMin=20 EnMin= -881.674153096144     IErMin=20 ErrMin= 3.36D-08
 ErrMax= 3.36D-08  0.00D+00 EMaxC= 1.00D-01 BMatC= 2.26D-12 BMatP= 1.12D-11
 IDIUse=1 WtCom= 1.00D+00 WtEn= 0.00D+00
 Coeff-Com:  0.107D-06 0.574D-06 0.173D-05-0.823D-05 0.278D-04-0.331D-04
 Coeff-Com: -0.642D-04 0.634D-04 0.159D-03-0.176D-03-0.137D-02-0.203D-03
 Coeff-Com:  0.308D-02 0.106D-01 0.504D-04-0.550D-01-0.693D-01 0.102D-01
 Coeff-Com:  0.411D+00 0.691D+00
 Coeff:      0.107D-06 0.574D-06 0.173D-05-0.823D-05 0.278D-04-0.331D-04
 Coeff:     -0.642D-04 0.634D-04 0.159D-03-0.176D-03-0.137D-02-0.203D-03
 Coeff:      0.308D-02 0.106D-01 0.504D-04-0.550D-01-0.693D-01 0.102D-01
 Coeff:      0.411D+00 0.691D+00
 Gap=     0.069 Goal=   None    Shift=    0.000
 Gap=     0.105 Goal=   None    Shift=    0.000
 RMSDP=4.84D-09 MaxDP=2.06D-07 DE=-8.64D-12 OVMax= 1.29D-06

 Error on total polarization charges =  0.01022
 SCF Done:  E(UB3LYP) =  -881.674153096     A.U. after   23 cycles
            NFock= 23  Conv=0.48D-08     -V/T= 2.0093
 <Sx>= 0.0000 <Sy>= 0.0000 <Sz>= 0.0000 <S**2>= 1.0128 S= 0.6238
 <L.S>=  0.00000000000    
 KE= 8.735272956638D+02 PE=-5.179588757624D+03 EE= 1.859163129070D+03
 Annihilation of the first spin contaminant:
 S**2 before annihilation     1.0128,   after     0.1695
 Leave Link  502 at Wed Jun 12 02:38:40 2019, MaxMem=   104857600 cpu:            2206.2 elap:              56.4
 (Enter /project/6004141/group/g16/g16/l801.exe)
 DoSCS=F DFT=T ScalE2(SS,OS)=  1.000000  1.000000
 Range of M.O.s used for correlation:     1   400
 NBasis=   400 NAE=    73 NBE=    73 NFC=     0 NFV=     0
 NROrb=    400 NOA=    73 NOB=    73 NVA=   327 NVB=   327

 **** Warning!!: The smallest alpha delta epsilon is  0.68608646D-01

 Leave Link  801 at Wed Jun 12 02:38:40 2019, MaxMem=   104857600 cpu:               1.8 elap:               0.1
 (Enter /project/6004141/group/g16/g16/l1101.exe)
 Using compressed storage, NAtomX=    40.
 Will process     41 centers per pass.
 PrsmSu:  requested number of processors reduced to:  25 ShMem   1 Linda.
 PrsmSu:  requested number of processors reduced to:   8 ShMem   1 Linda.
 R6Disp: Adding Grimme-D3 dispersion energy 1st derivatives to the gradient.
 Leave Link 1101 at Wed Jun 12 02:38:40 2019, MaxMem=   104857600 cpu:              16.0 elap:               0.6
 (Enter /project/6004141/group/g16/g16/l1102.exe)
 Symmetrizing basis deriv contribution to polar:
 IMax=3 JMax=2 DiffMx= 0.00D+00
 Leave Link 1102 at Wed Jun 12 02:38:40 2019, MaxMem=   104857600 cpu:               2.2 elap:               0.1
 (Enter /project/6004141/group/g16/g16/l1110.exe)
 Forming Gx(P) for the SCF density, NAtomX=    40.
 Integral derivatives from FoFJK, PRISM(SPDF).
 Do as many integral derivatives as possible in FoFJK.
 G2DrvN: MDV=     104854584.
 G2DrvN: will do     1 centers at a time, making   41 passes.
 Estimated number of processors is:   32
 G2DrvN:  IPasSy=1 do centers    0 through    0.
 Calling FoFCou, ICntrl=  3107 FMM=F I1Cent=   0 AccDes= 0.00D+00.
 FoFJK:  IHMeth= 1 ICntrl=    3107 DoSepK=F KAlg= 0 I1Cent=           0 FoldK=F
 IRaf=         0 NMat=       1 IRICut=       1 DoRegI=T DoRafI=F ISym2E= 0 IDoP0=0 IntGTp=1.
 FoFCou: FMM=F IPFlag=           0 FMFlag=      100000 FMFlg1=           0
         NFxFlg=           0 DoJE=F BraDBF=F KetDBF=F FulRan=T
         wScrn=  0.000000 ICntrl=      3107 IOpCl=  1 I1Cent=           0 NGrid=           0
         NMat0=    1 NMatS0=      1 NMatT0=    0 NMatD0=    1 NMtDS0=    0 NMtDT0=    0
 Symmetry not used in FoFCou.
 CoulSu:  requested number of processors reduced to:  37 ShMem   1 Linda.
 G2DrvN:  IPasSy=1 do centers    1 through    1.
 Calling FoFCou, ICntrl=  3107 FMM=F I1Cent=   0 AccDes= 0.00D+00.
 CoulSu:  requested number of processors reduced to:  32 ShMem   1 Linda.
 G2DrvN:  IPasSy=1 do centers    2 through    2.
 Calling FoFCou, ICntrl=  3107 FMM=F I1Cent=   0 AccDes= 0.00D+00.
 CoulSu:  requested number of processors reduced to:  32 ShMem   1 Linda.
 G2DrvN:  IPasSy=1 do centers    3 through    3.
 Calling FoFCou, ICntrl=  3107 FMM=F I1Cent=   0 AccDes= 0.00D+00.
 CoulSu:  requested number of processors reduced to:  32 ShMem   1 Linda.
 G2DrvN:  IPasSy=1 do centers    4 through    4.
 Calling FoFCou, ICntrl=  3107 FMM=F I1Cent=   0 AccDes= 0.00D+00.
 CoulSu:  requested number of processors reduced to:  32 ShMem   1 Linda.
 G2DrvN:  IPasSy=1 do centers    5 through    5.
 Calling FoFCou, ICntrl=  3107 FMM=F I1Cent=   0 AccDes= 0.00D+00.
 CoulSu:  requested number of processors reduced to:  32 ShMem   1 Linda.
 G2DrvN:  IPasSy=1 do centers    6 through    6.
 Calling FoFCou, ICntrl=  3107 FMM=F I1Cent=   0 AccDes= 0.00D+00.
 CoulSu:  requested number of processors reduced to:  32 ShMem   1 Linda.
 G2DrvN:  IPasSy=1 do centers    7 through    7.
 Calling FoFCou, ICntrl=  3107 FMM=F I1Cent=   0 AccDes= 0.00D+00.
 CoulSu:  requested number of processors reduced to:  32 ShMem   1 Linda.
 G2DrvN:  IPasSy=1 do centers    8 through    8.
 Calling FoFCou, ICntrl=  3107 FMM=F I1Cent=   0 AccDes= 0.00D+00.
 CoulSu:  requested number of processors reduced to:  32 ShMem   1 Linda.
 G2DrvN:  IPasSy=1 do centers    9 through    9.
 Calling FoFCou, ICntrl=  3107 FMM=F I1Cent=   0 AccDes= 0.00D+00.
 CoulSu:  requested number of processors reduced to:  32 ShMem   1 Linda.
 G2DrvN:  IPasSy=1 do centers   10 through   10.
 Calling FoFCou, ICntrl=  3107 FMM=F I1Cent=   0 AccDes= 0.00D+00.
 CoulSu:  requested number of processors reduced to:  32 ShMem   1 Linda.
 G2DrvN:  IPasSy=1 do centers   11 through   11.
 Calling FoFCou, ICntrl=  3107 FMM=F I1Cent=   0 AccDes= 0.00D+00.
 CoulSu:  requested number of processors reduced to:  32 ShMem   1 Linda.
 G2DrvN:  IPasSy=1 do centers   12 through   12.
 Calling FoFCou, ICntrl=  3107 FMM=F I1Cent=   0 AccDes= 0.00D+00.
 CoulSu:  requested number of processors reduced to:  32 ShMem   1 Linda.
 G2DrvN:  IPasSy=1 do centers   13 through   13.
 Calling FoFCou, ICntrl=  3107 FMM=F I1Cent=   0 AccDes= 0.00D+00.
 CoulSu:  requested number of processors reduced to:  32 ShMem   1 Linda.
 G2DrvN:  IPasSy=1 do centers   14 through   14.
 Calling FoFCou, ICntrl=  3107 FMM=F I1Cent=   0 AccDes= 0.00D+00.
 CoulSu:  requested number of processors reduced to:  32 ShMem   1 Linda.
 G2DrvN:  IPasSy=1 do centers   15 through   15.
 Calling FoFCou, ICntrl=  3107 FMM=F I1Cent=   0 AccDes= 0.00D+00.
 CoulSu:  requested number of processors reduced to:  32 ShMem   1 Linda.
 G2DrvN:  IPasSy=1 do centers   16 through   16.
 Calling FoFCou, ICntrl=  3107 FMM=F I1Cent=   0 AccDes= 0.00D+00.
 CoulSu:  requested number of processors reduced to:  32 ShMem   1 Linda.
 G2DrvN:  IPasSy=1 do centers   17 through   17.
 Calling FoFCou, ICntrl=  3107 FMM=F I1Cent=   0 AccDes= 0.00D+00.
 CoulSu:  requested number of processors reduced to:  32 ShMem   1 Linda.
 G2DrvN:  IPasSy=1 do centers   18 through   18.
 Calling FoFCou, ICntrl=  3107 FMM=F I1Cent=   0 AccDes= 0.00D+00.
 CoulSu:  requested number of processors reduced to:  32 ShMem   1 Linda.
 G2DrvN:  IPasSy=1 do centers   19 through   19.
 Calling FoFCou, ICntrl=  3107 FMM=F I1Cent=   0 AccDes= 0.00D+00.
 CoulSu:  requested number of processors reduced to:  32 ShMem   1 Linda.
 G2DrvN:  IPasSy=1 do centers   20 through   20.
 Calling FoFCou, ICntrl=  3107 FMM=F I1Cent=   0 AccDes= 0.00D+00.
 CoulSu:  requested number of processors reduced to:  32 ShMem   1 Linda.
 G2DrvN:  IPasSy=1 do centers   21 through   21.
 Calling FoFCou, ICntrl=  3107 FMM=F I1Cent=   0 AccDes= 0.00D+00.
 CoulSu:  requested number of processors reduced to:  32 ShMem   1 Linda.
 G2DrvN:  IPasSy=1 do centers   22 through   22.
 Calling FoFCou, ICntrl=  3107 FMM=F I1Cent=   0 AccDes= 0.00D+00.
 CoulSu:  requested number of processors reduced to:  32 ShMem   1 Linda.
 G2DrvN:  IPasSy=1 do centers   23 through   23.
 Calling FoFCou, ICntrl=  3107 FMM=F I1Cent=   0 AccDes= 0.00D+00.
 CoulSu:  requested number of processors reduced to:  32 ShMem   1 Linda.
 G2DrvN:  IPasSy=1 do centers   24 through   24.
 Calling FoFCou, ICntrl=  3107 FMM=F I1Cent=   0 AccDes= 0.00D+00.
 CoulSu:  requested number of processors reduced to:  32 ShMem   1 Linda.
 G2DrvN:  IPasSy=1 do centers   25 through   25.
 Calling FoFCou, ICntrl=  3107 FMM=F I1Cent=   0 AccDes= 0.00D+00.
 CoulSu:  requested number of processors reduced to:  32 ShMem   1 Linda.
 G2DrvN:  IPasSy=1 do centers   26 through   26.
 Calling FoFCou, ICntrl=  3107 FMM=F I1Cent=   0 AccDes= 0.00D+00.
 CoulSu:  requested number of processors reduced to:  32 ShMem   1 Linda.
 G2DrvN:  IPasSy=1 do centers   27 through   27.
 Calling FoFCou, ICntrl=  3107 FMM=F I1Cent=   0 AccDes= 0.00D+00.
 CoulSu:  requested number of processors reduced to:  32 ShMem   1 Linda.
 G2DrvN:  IPasSy=1 do centers   28 through   28.
 Calling FoFCou, ICntrl=  3107 FMM=F I1Cent=   0 AccDes= 0.00D+00.
 CoulSu:  requested number of processors reduced to:  32 ShMem   1 Linda.
 G2DrvN:  IPasSy=1 do centers   29 through   29.
 Calling FoFCou, ICntrl=  3107 FMM=F I1Cent=   0 AccDes= 0.00D+00.
 CoulSu:  requested number of processors reduced to:  32 ShMem   1 Linda.
 G2DrvN:  IPasSy=1 do centers   30 through   30.
 Calling FoFCou, ICntrl=  3107 FMM=F I1Cent=   0 AccDes= 0.00D+00.
 CoulSu:  requested number of processors reduced to:  32 ShMem   1 Linda.
 G2DrvN:  IPasSy=1 do centers   31 through   31.
 Calling FoFCou, ICntrl=  3107 FMM=F I1Cent=   0 AccDes= 0.00D+00.
 CoulSu:  requested number of processors reduced to:  32 ShMem   1 Linda.
 G2DrvN:  IPasSy=1 do centers   32 through   32.
 Calling FoFCou, ICntrl=  3107 FMM=F I1Cent=   0 AccDes= 0.00D+00.
 CoulSu:  requested number of processors reduced to:  32 ShMem   1 Linda.
 G2DrvN:  IPasSy=1 do centers   33 through   33.
 Calling FoFCou, ICntrl=  3107 FMM=F I1Cent=   0 AccDes= 0.00D+00.
 CoulSu:  requested number of processors reduced to:  32 ShMem   1 Linda.
 G2DrvN:  IPasSy=1 do centers   34 through   34.
 Calling FoFCou, ICntrl=  3107 FMM=F I1Cent=   0 AccDes= 0.00D+00.
 CoulSu:  requested number of processors reduced to:  32 ShMem   1 Linda.
 G2DrvN:  IPasSy=1 do centers   35 through   35.
 Calling FoFCou, ICntrl=  3107 FMM=F I1Cent=   0 AccDes= 0.00D+00.
 CoulSu:  requested number of processors reduced to:  32 ShMem   1 Linda.
 G2DrvN:  IPasSy=1 do centers   36 through   36.
 Calling FoFCou, ICntrl=  3107 FMM=F I1Cent=   0 AccDes= 0.00D+00.
 CoulSu:  requested number of processors reduced to:  32 ShMem   1 Linda.
 G2DrvN:  IPasSy=1 do centers   37 through   37.
 Calling FoFCou, ICntrl=  3107 FMM=F I1Cent=   0 AccDes= 0.00D+00.
 CoulSu:  requested number of processors reduced to:  32 ShMem   1 Linda.
 G2DrvN:  IPasSy=1 do centers   38 through   38.
 Calling FoFCou, ICntrl=  3107 FMM=F I1Cent=   0 AccDes= 0.00D+00.
 CoulSu:  requested number of processors reduced to:  32 ShMem   1 Linda.
