 Entering Gaussian System, Link 0=g16
 Initial command:
 /project/6004141/group/g16/g16/l1.exe "/scratch/rzk/Gau-246015.inp" -scrdir="/scratch/rzk/"
 Entering Link 1 = /project/6004141/group/g16/g16/l1.exe PID=    246020.
  
 Copyright (c) 1988,1990,1992,1993,1995,1998,2003,2009,2016,
            Gaussian, Inc.  All Rights Reserved.
  
 This is part of the Gaussian(R) 16 program.  It is based on
 the Gaussian(R) 09 system (copyright 2009, Gaussian, Inc.),
 the Gaussian(R) 03 system (copyright 2003, Gaussian, Inc.),
 the Gaussian(R) 98 system (copyright 1998, Gaussian, Inc.),
 the Gaussian(R) 94 system (copyright 1995, Gaussian, Inc.),
 the Gaussian 92(TM) system (copyright 1992, Gaussian, Inc.),
 the Gaussian 90(TM) system (copyright 1990, Gaussian, Inc.),
 the Gaussian 88(TM) system (copyright 1988, Gaussian, Inc.),
 the Gaussian 86(TM) system (copyright 1986, Carnegie Mellon
 University), and the Gaussian 82(TM) system (copyright 1983,
 Carnegie Mellon University). Gaussian is a federally registered
 trademark of Gaussian, Inc.
  
 This software contains proprietary and confidential information,
 including trade secrets, belonging to Gaussian, Inc.
  
 This software is provided under written license and may be
 used, copied, transmitted, or stored only in accord with that
 written license.
  
 The following legend is applicable only to US Government
 contracts under FAR:
  
                    RESTRICTED RIGHTS LEGEND
  
 Use, reproduction and disclosure by the US Government is
 subject to restrictions as set forth in subparagraphs (a)
 and (c) of the Commercial Computer Software - Restricted
 Rights clause in FAR 52.227-19.
  
 Gaussian, Inc.
 340 Quinnipiac St., Bldg. 40, Wallingford CT 06492
  
  
 ---------------------------------------------------------------
 Warning -- This program may not be used in any manner that
 competes with the business of Gaussian, Inc. or will provide
 assistance to any competitor of Gaussian, Inc.  The licensee
 of this program is prohibited from giving any competitor of
 Gaussian, Inc. access to this program.  By using this program,
 the user acknowledges that Gaussian, Inc. is engaged in the
 business of creating and licensing software in the field of
 computational chemistry and represents and warrants to the
 licensee that it is not a competitor of Gaussian, Inc. and that
 it will not use this program in any manner prohibited above.
 ---------------------------------------------------------------
  

 Cite this work as:
 Gaussian 16, Revision A.03,
 M. J. Frisch, G. W. Trucks, H. B. Schlegel, G. E. Scuseria, 
 M. A. Robb, J. R. Cheeseman, G. Scalmani, V. Barone, 
 G. A. Petersson, H. Nakatsuji, X. Li, M. Caricato, A. V. Marenich, 
 J. Bloino, B. G. Janesko, R. Gomperts, B. Mennucci, H. P. Hratchian, 
 J. V. Ortiz, A. F. Izmaylov, J. L. Sonnenberg, D. Williams-Young, 
 F. Ding, F. Lipparini, F. Egidi, J. Goings, B. Peng, A. Petrone, 
 T. Henderson, D. Ranasinghe, V. G. Zakrzewski, J. Gao, N. Rega, 
 G. Zheng, W. Liang, M. Hada, M. Ehara, K. Toyota, R. Fukuda, 
 J. Hasegawa, M. Ishida, T. Nakajima, Y. Honda, O. Kitao, H. Nakai, 
 T. Vreven, K. Throssell, J. A. Montgomery, Jr., J. E. Peralta, 
 F. Ogliaro, M. J. Bearpark, J. J. Heyd, E. N. Brothers, K. N. Kudin, 
 V. N. Staroverov, T. A. Keith, R. Kobayashi, J. Normand, 
 K. Raghavachari, A. P. Rendell, J. C. Burant, S. S. Iyengar, 
 J. Tomasi, M. Cossi, J. M. Millam, M. Klene, C. Adamo, R. Cammi, 
 J. W. Ochterski, R. L. Martin, K. Morokuma, O. Farkas, 
 J. B. Foresman, and D. J. Fox, Gaussian, Inc., Wallingford CT, 2016.
 
 ******************************************
 Gaussian 16:  ES64L-G16RevA.03 25-Dec-2016
                11-Jun-2019 
 ******************************************
 %NProcShared=40
 Will use up to   40 processors via shared memory.
 %chk=AABH-2.chk
 ----------------------------------------------------------------------
 #p opt=(calcfc,ts,noeigentest) ub3lyp/6-31g(d,p) scrf=(iefpcm,solvent=
 acetonitrile) guess=(mix,always) empiricaldispersion=gd3
 ----------------------------------------------------------------------
 1/5=1,10=4,11=1,18=20,26=3,38=1/1,3;
 2/9=110,12=2,17=6,18=5,40=1/2;
 3/5=1,6=6,7=101,11=2,25=1,30=1,70=2201,71=2,72=2,74=-5,116=2,124=31,140=1/1,2,3;
 4/13=-1/1;
 5/5=2,38=5,53=2/2;
 8/6=4,10=90,11=11/1;
 11/6=1,8=1,9=11,15=111,16=1/1,2,10;
 10/6=1,13=1/2;
 6/7=2,8=2,9=2,10=2,28=1/1;
 7/10=1,18=20,25=1/1,2,3,16;
 1/5=1,10=4,11=1,18=20,26=3/3(2);
 2/9=110/2;
 99//99;
 2/9=110/2;
 3/5=1,6=6,7=101,11=2,25=1,30=1,70=2205,71=1,72=2,74=-5,116=2,124=31/1,2,3;
 4/13=-1/1;
 5/5=2,38=5,53=2/2;
 7//1,2,3,16;
 1/5=1,11=1,18=20,26=3/3(-5);
 2/9=110/2;
 6/7=2,8=2,9=2,10=2,19=2,28=1/1;
 99/9=1/99;
 Leave Link    1 at Tue Jun 11 20:47:36 2019, MaxMem=           0 cpu:              11.2 elap:               0.3
 (Enter /project/6004141/group/g16/g16/l101.exe)
 -------------------
 Title Card Required
 -------------------
 Symbolic Z-matrix:
 Charge =  0 Multiplicity = 1
 C                    -0.29724  -0.73241  -1.26687 
 H                     3.17772  -2.22962   2.00826 
 C                     1.15374  -0.0412    0.18731 
 O                     2.22676  -0.35159  -0.49494 
 O                     0.33873  -1.92155  -1.55115 
 N                     3.67903  -2.34761   0.21906 
 H                     4.30788  -2.77712  -0.45723 
 N                     3.8469   -2.75655   1.42953 
 H                     1.29184  -1.68489  -1.54809 
 H                     3.05789  -1.4939   -0.08633 
 C                    -0.12322   0.30471  -2.35085 
 H                    -0.52772   1.27862  -2.07542 
 H                     0.94265   0.42906  -2.55987 
 H                    -0.62029  -0.03729  -3.26718 
 C                     0.81703  -0.95389   1.3537 
 H                     1.55457  -0.79528   2.15055 
 H                    -0.17213  -0.78122   1.77614 
 H                     0.86455  -1.99271   1.01894 
 C                    -1.58719  -0.9042   -0.60108 
 C                    -1.93379  -2.14786  -0.02174 
 C                    -2.50549   0.16127  -0.47391 
 C                    -3.13656  -2.31078   0.65771 
 H                    -1.24519  -2.97866  -0.11909 
 C                    -3.70539  -0.00686   0.21227 
 H                    -2.27487   1.12882  -0.90254 
 C                    -4.0297   -1.24096   0.78357 
 H                    -3.38085  -3.27614   1.09172 
 H                    -4.39248   0.82976   0.29922 
 H                    -4.96736  -1.36898   1.31595 
 C                     0.82565   1.40753   0.30659 
 C                     1.60688   2.34758  -0.39402 
 C                    -0.25018   1.88062   1.07867 
 C                     1.31529   3.7079   -0.33414 
 H                     2.44456   1.98523  -0.97901 
 C                    -0.54288   3.24294   1.13522 
 H                    -0.87451   1.18619   1.62718 
 C                     0.2351    4.16343   0.42861 
 H                     1.93232   4.41621  -0.87999 
 H                    -1.38217   3.58545   1.73355 
 H                     0.00584   5.22389   0.47572 
 
 Add virtual bond connecting atoms H10        and O4         Dist= 2.78D+00.
 Add virtual bond connecting atoms H9         and O4         Dist= 3.66D+00.
 ITRead=  0  0  0  0  0  0  0  0  0  0  0  0  0  0  0  0  0  0  0  0
 ITRead=  0  0  0  0  0  0  0  0  0  0  0  0  0  0  0  0  0  0  0  0
 MicOpt= -1 -1 -1 -1 -1 -1 -1 -1 -1 -1 -1 -1 -1 -1 -1 -1 -1 -1 -1 -1
 MicOpt= -1 -1 -1 -1 -1 -1 -1 -1 -1 -1 -1 -1 -1 -1 -1 -1 -1 -1 -1 -1
 NAtoms=     40 NQM=       40 NQMF=       0 NMMI=      0 NMMIF=      0
                NMic=       0 NMicF=      0.
                    Isotopes and Nuclear Properties:
 (Nuclear quadrupole moments (NQMom) in fm**2, nuclear magnetic moments (NMagM)
  in nuclear magnetons)

  Atom         1           2           3           4           5           6           7           8           9          10
 IAtWgt=          12           1          12          16          16          14           1          14           1           1
 AtmWgt=  12.0000000   1.0078250  12.0000000  15.9949146  15.9949146  14.0030740   1.0078250  14.0030740   1.0078250   1.0078250
 NucSpn=           0           1           0           0           0           2           1           2           1           1
 AtZEff=  -0.0000000  -0.0000000  -0.0000000  -0.0000000  -0.0000000  -0.0000000  -0.0000000  -0.0000000  -0.0000000  -0.0000000
 NQMom=    0.0000000   0.0000000   0.0000000   0.0000000   0.0000000   2.0440000   0.0000000   2.0440000   0.0000000   0.0000000
 NMagM=    0.0000000   2.7928460   0.0000000   0.0000000   0.0000000   0.4037610   2.7928460   0.4037610   2.7928460   2.7928460
 AtZNuc=   6.0000000   1.0000000   6.0000000   8.0000000   8.0000000   7.0000000   1.0000000   7.0000000   1.0000000   1.0000000

  Atom        11          12          13          14          15          16          17          18          19          20
 IAtWgt=          12           1           1           1          12           1           1           1          12          12
 AtmWgt=  12.0000000   1.0078250   1.0078250   1.0078250  12.0000000   1.0078250   1.0078250   1.0078250  12.0000000  12.0000000
 NucSpn=           0           1           1           1           0           1           1           1           0           0
 AtZEff=  -0.0000000  -0.0000000  -0.0000000  -0.0000000  -0.0000000  -0.0000000  -0.0000000  -0.0000000  -0.0000000  -0.0000000
 NQMom=    0.0000000   0.0000000   0.0000000   0.0000000   0.0000000   0.0000000   0.0000000   0.0000000   0.0000000   0.0000000
 NMagM=    0.0000000   2.7928460   2.7928460   2.7928460   0.0000000   2.7928460   2.7928460   2.7928460   0.0000000   0.0000000
 AtZNuc=   6.0000000   1.0000000   1.0000000   1.0000000   6.0000000   1.0000000   1.0000000   1.0000000   6.0000000   6.0000000

  Atom        21          22          23          24          25          26          27          28          29          30
 IAtWgt=          12          12           1          12           1          12           1           1           1          12
 AtmWgt=  12.0000000  12.0000000   1.0078250  12.0000000   1.0078250  12.0000000   1.0078250   1.0078250   1.0078250  12.0000000
 NucSpn=           0           0           1           0           1           0           1           1           1           0
 AtZEff=  -0.0000000  -0.0000000  -0.0000000  -0.0000000  -0.0000000  -0.0000000  -0.0000000  -0.0000000  -0.0000000  -0.0000000
 NQMom=    0.0000000   0.0000000   0.0000000   0.0000000   0.0000000   0.0000000   0.0000000   0.0000000   0.0000000   0.0000000
 NMagM=    0.0000000   0.0000000   2.7928460   0.0000000   2.7928460   0.0000000   2.7928460   2.7928460   2.7928460   0.0000000
 AtZNuc=   6.0000000   6.0000000   1.0000000   6.0000000   1.0000000   6.0000000   1.0000000   1.0000000   1.0000000   6.0000000

  Atom        31          32          33          34          35          36          37          38          39          40
 IAtWgt=          12          12          12           1          12           1          12           1           1           1
 AtmWgt=  12.0000000  12.0000000  12.0000000   1.0078250  12.0000000   1.0078250  12.0000000   1.0078250   1.0078250   1.0078250
 NucSpn=           0           0           0           1           0           1           0           1           1           1
 AtZEff=  -0.0000000  -0.0000000  -0.0000000  -0.0000000  -0.0000000  -0.0000000  -0.0000000  -0.0000000  -0.0000000  -0.0000000
 NQMom=    0.0000000   0.0000000   0.0000000   0.0000000   0.0000000   0.0000000   0.0000000   0.0000000   0.0000000   0.0000000
 NMagM=    0.0000000   0.0000000   0.0000000   2.7928460   0.0000000   2.7928460   0.0000000   2.7928460   2.7928460   2.7928460
 AtZNuc=   6.0000000   6.0000000   6.0000000   1.0000000   6.0000000   1.0000000   6.0000000   1.0000000   1.0000000   1.0000000
 Leave Link  101 at Tue Jun 11 20:47:37 2019, MaxMem=   104857600 cpu:               8.7 elap:               0.3
 (Enter /project/6004141/group/g16/g16/l103.exe)

 GradGradGradGradGradGradGradGradGradGradGradGradGradGradGradGradGradGrad
 Berny optimization.
 Initialization pass.
                           ----------------------------
                           !    Initial Parameters    !
                           ! (Angstroms and Degrees)  !
 --------------------------                            --------------------------
 ! Name  Definition              Value          Derivative Info.                !
 --------------------------------------------------------------------------------
 ! R1    R(1,5)                  1.3782         calculate D2E/DX2 analytically  !
 ! R2    R(1,11)                 1.5103         calculate D2E/DX2 analytically  !
 ! R3    R(1,19)                 1.4618         calculate D2E/DX2 analytically  !
 ! R4    R(2,8)                  1.0297         calculate D2E/DX2 analytically  !
 ! R5    R(3,4)                  1.3089         calculate D2E/DX2 analytically  !
 ! R6    R(3,15)                 1.5188         calculate D2E/DX2 analytically  !
 ! R7    R(3,30)                 1.4902         calculate D2E/DX2 analytically  !
 ! R8    R(4,9)                  1.9393         calculate D2E/DX2 analytically  !
 ! R9    R(4,10)                 1.4706         calculate D2E/DX2 analytically  !
 ! R10   R(5,9)                  0.9821         calculate D2E/DX2 analytically  !
 ! R11   R(6,7)                  1.0185         calculate D2E/DX2 analytically  !
 ! R12   R(6,8)                  1.2887         calculate D2E/DX2 analytically  !
 ! R13   R(6,10)                 1.099          calculate D2E/DX2 analytically  !
 ! R14   R(11,12)                1.09           calculate D2E/DX2 analytically  !
 ! R15   R(11,13)                1.0933         calculate D2E/DX2 analytically  !
 ! R16   R(11,14)                1.0971         calculate D2E/DX2 analytically  !
 ! R17   R(15,16)                1.0973         calculate D2E/DX2 analytically  !
 ! R18   R(15,17)                1.0894         calculate D2E/DX2 analytically  !
 ! R19   R(15,18)                1.0925         calculate D2E/DX2 analytically  !
 ! R20   R(19,20)                1.4151         calculate D2E/DX2 analytically  !
 ! R21   R(19,21)                1.4123         calculate D2E/DX2 analytically  !
 ! R22   R(20,22)                1.391          calculate D2E/DX2 analytically  !
 ! R23   R(20,23)                1.0835         calculate D2E/DX2 analytically  !
 ! R24   R(21,24)                1.3924         calculate D2E/DX2 analytically  !
 ! R25   R(21,25)                1.0831         calculate D2E/DX2 analytically  !
 ! R26   R(22,26)                1.3993         calculate D2E/DX2 analytically  !
 ! R27   R(22,27)                1.0863         calculate D2E/DX2 analytically  !
 ! R28   R(24,26)                1.3981         calculate D2E/DX2 analytically  !
 ! R29   R(24,28)                1.0861         calculate D2E/DX2 analytically  !
 ! R30   R(26,29)                1.0858         calculate D2E/DX2 analytically  !
 ! R31   R(30,31)                1.4089         calculate D2E/DX2 analytically  !
 ! R32   R(30,32)                1.4062         calculate D2E/DX2 analytically  !
 ! R33   R(31,33)                1.3925         calculate D2E/DX2 analytically  !
 ! R34   R(31,34)                1.0841         calculate D2E/DX2 analytically  !
 ! R35   R(32,35)                1.3946         calculate D2E/DX2 analytically  !
 ! R36   R(32,36)                1.083          calculate D2E/DX2 analytically  !
 ! R37   R(33,37)                1.3986         calculate D2E/DX2 analytically  !
 ! R38   R(33,38)                1.0865         calculate D2E/DX2 analytically  !
 ! R39   R(35,37)                1.3971         calculate D2E/DX2 analytically  !
 ! R40   R(35,39)                1.0862         calculate D2E/DX2 analytically  !
 ! R41   R(37,40)                1.086          calculate D2E/DX2 analytically  !
 ! A1    A(5,1,11)             113.0353         calculate D2E/DX2 analytically  !
 ! A2    A(5,1,19)             113.564          calculate D2E/DX2 analytically  !
 ! A3    A(11,1,19)            120.6164         calculate D2E/DX2 analytically  !
 ! A4    A(4,3,15)             116.0739         calculate D2E/DX2 analytically  !
 ! A5    A(4,3,30)             116.921          calculate D2E/DX2 analytically  !
 ! A6    A(15,3,30)            118.2889         calculate D2E/DX2 analytically  !
 ! A7    A(3,4,9)               92.9171         calculate D2E/DX2 analytically  !
 ! A8    A(3,4,10)             120.1785         calculate D2E/DX2 analytically  !
 ! A9    A(9,4,10)              83.6452         calculate D2E/DX2 analytically  !
 ! A10   A(1,5,9)              103.844          calculate D2E/DX2 analytically  !
 ! A11   A(7,6,8)              114.1712         calculate D2E/DX2 analytically  !
 ! A12   A(7,6,10)             119.4747         calculate D2E/DX2 analytically  !
 ! A13   A(8,6,10)             125.5295         calculate D2E/DX2 analytically  !
 ! A14   A(2,8,6)              106.3126         calculate D2E/DX2 analytically  !
 ! A15   A(4,9,5)              129.4392         calculate D2E/DX2 analytically  !
 ! A16   A(1,11,12)            112.9211         calculate D2E/DX2 analytically  !
 ! A17   A(1,11,13)            109.1268         calculate D2E/DX2 analytically  !
 ! A18   A(1,11,14)            109.4629         calculate D2E/DX2 analytically  !
 ! A19   A(12,11,13)           107.9688         calculate D2E/DX2 analytically  !
 ! A20   A(12,11,14)           108.7514         calculate D2E/DX2 analytically  !
 ! A21   A(13,11,14)           108.5108         calculate D2E/DX2 analytically  !
 ! A22   A(3,15,16)            108.7727         calculate D2E/DX2 analytically  !
 ! A23   A(3,15,17)            113.8197         calculate D2E/DX2 analytically  !
 ! A24   A(3,15,18)            109.0536         calculate D2E/DX2 analytically  !
 ! A25   A(16,15,17)           107.8055         calculate D2E/DX2 analytically  !
 ! A26   A(16,15,18)           109.3135         calculate D2E/DX2 analytically  !
 ! A27   A(17,15,18)           108.0011         calculate D2E/DX2 analytically  !
 ! A28   A(1,19,20)            120.3909         calculate D2E/DX2 analytically  !
 ! A29   A(1,19,21)            121.7443         calculate D2E/DX2 analytically  !
 ! A30   A(20,19,21)           117.8335         calculate D2E/DX2 analytically  !
 ! A31   A(19,20,22)           120.9776         calculate D2E/DX2 analytically  !
 ! A32   A(19,20,23)           118.7814         calculate D2E/DX2 analytically  !
 ! A33   A(22,20,23)           120.2406         calculate D2E/DX2 analytically  !
 ! A34   A(19,21,24)           120.9025         calculate D2E/DX2 analytically  !
 ! A35   A(19,21,25)           119.9905         calculate D2E/DX2 analytically  !
 ! A36   A(24,21,25)           119.1025         calculate D2E/DX2 analytically  !
 ! A37   A(20,22,26)           120.4175         calculate D2E/DX2 analytically  !
 ! A38   A(20,22,27)           119.5848         calculate D2E/DX2 analytically  !
 ! A39   A(26,22,27)           119.9977         calculate D2E/DX2 analytically  !
 ! A40   A(21,24,26)           120.5211         calculate D2E/DX2 analytically  !
 ! A41   A(21,24,28)           119.4458         calculate D2E/DX2 analytically  !
 ! A42   A(26,24,28)           120.0329         calculate D2E/DX2 analytically  !
 ! A43   A(22,26,24)           119.3443         calculate D2E/DX2 analytically  !
 ! A44   A(22,26,29)           120.3408         calculate D2E/DX2 analytically  !
 ! A45   A(24,26,29)           120.3144         calculate D2E/DX2 analytically  !
 ! A46   A(3,30,31)            119.1296         calculate D2E/DX2 analytically  !
 ! A47   A(3,30,32)            122.6475         calculate D2E/DX2 analytically  !
 ! A48   A(31,30,32)           118.2164         calculate D2E/DX2 analytically  !
 ! A49   A(30,31,33)           120.9525         calculate D2E/DX2 analytically  !
 ! A50   A(30,31,34)           118.2817         calculate D2E/DX2 analytically  !
 ! A51   A(33,31,34)           120.7654         calculate D2E/DX2 analytically  !
 ! A52   A(30,32,35)           120.7641         calculate D2E/DX2 analytically  !
 ! A53   A(30,32,36)           120.2263         calculate D2E/DX2 analytically  !
 ! A54   A(35,32,36)           119.0026         calculate D2E/DX2 analytically  !
 ! A55   A(31,33,37)           120.2215         calculate D2E/DX2 analytically  !
 ! A56   A(31,33,38)           119.7587         calculate D2E/DX2 analytically  !
 ! A57   A(37,33,38)           120.0195         calculate D2E/DX2 analytically  !
 ! A58   A(32,35,37)           120.4141         calculate D2E/DX2 analytically  !
 ! A59   A(32,35,39)           119.5102         calculate D2E/DX2 analytically  !
 ! A60   A(37,35,39)           120.0758         calculate D2E/DX2 analytically  !
 ! A61   A(33,37,35)           119.4274         calculate D2E/DX2 analytically  !
 ! A62   A(33,37,40)           120.315          calculate D2E/DX2 analytically  !
 ! A63   A(35,37,40)           120.2568         calculate D2E/DX2 analytically  !
 ! A64   L(4,10,6,16,-1)       180.0            calculate D2E/DX2 analytically  !
 ! A65   L(4,10,6,16,-2)       180.0            calculate D2E/DX2 analytically  !
 ! D1    D(11,1,5,9)            65.6293         calculate D2E/DX2 analytically  !
 ! D2    D(19,1,5,9)          -152.2592         calculate D2E/DX2 analytically  !
 ! D3    D(5,1,11,12)         -173.3938         calculate D2E/DX2 analytically  !
 ! D4    D(5,1,11,13)          -53.3168         calculate D2E/DX2 analytically  !
 ! D5    D(5,1,11,14)           65.3005         calculate D2E/DX2 analytically  !
 ! D6    D(19,1,11,12)          47.4578         calculate D2E/DX2 analytically  !
 ! D7    D(19,1,11,13)         167.5348         calculate D2E/DX2 analytically  !
 ! D8    D(19,1,11,14)         -73.8479         calculate D2E/DX2 analytically  !
 ! D9    D(5,1,19,20)           15.1777         calculate D2E/DX2 analytically  !
 ! D10   D(5,1,19,21)         -166.9046         calculate D2E/DX2 analytically  !
 ! D11   D(11,1,19,20)         154.1285         calculate D2E/DX2 analytically  !
 ! D12   D(11,1,19,21)         -27.9537         calculate D2E/DX2 analytically  !
 ! D13   D(15,3,4,9)            81.9682         calculate D2E/DX2 analytically  !
 ! D14   D(15,3,4,10)           -2.3748         calculate D2E/DX2 analytically  !
 ! D15   D(30,3,4,9)          -130.8689         calculate D2E/DX2 analytically  !
 ! D16   D(30,3,4,10)          144.7882         calculate D2E/DX2 analytically  !
 ! D17   D(4,3,15,16)           70.802          calculate D2E/DX2 analytically  !
 ! D18   D(4,3,15,17)         -168.9933         calculate D2E/DX2 analytically  !
 ! D19   D(4,3,15,18)          -48.3388         calculate D2E/DX2 analytically  !
 ! D20   D(30,3,15,16)         -75.8952         calculate D2E/DX2 analytically  !
 ! D21   D(30,3,15,17)          44.3095         calculate D2E/DX2 analytically  !
 ! D22   D(30,3,15,18)         164.964          calculate D2E/DX2 analytically  !
 ! D23   D(4,3,30,31)            4.9426         calculate D2E/DX2 analytically  !
 ! D24   D(4,3,30,32)         -176.0064         calculate D2E/DX2 analytically  !
 ! D25   D(15,3,30,31)         151.3609         calculate D2E/DX2 analytically  !
 ! D26   D(15,3,30,32)         -29.5881         calculate D2E/DX2 analytically  !
 ! D27   D(3,4,6,7)            159.5075         calculate D2E/DX2 analytically  !
 ! D28   D(3,4,6,8)            -31.5223         calculate D2E/DX2 analytically  !
 ! D29   D(9,4,6,7)             69.8244         calculate D2E/DX2 analytically  !
 ! D30   D(9,4,6,8)           -121.2055         calculate D2E/DX2 analytically  !
 ! D31   D(3,4,9,5)              4.2444         calculate D2E/DX2 analytically  !
 ! D32   D(10,4,9,5)           124.2963         calculate D2E/DX2 analytically  !
 ! D33   D(1,5,9,4)             32.1645         calculate D2E/DX2 analytically  !
 ! D34   D(7,6,8,2)            178.3036         calculate D2E/DX2 analytically  !
 ! D35   D(10,6,8,2)             8.8228         calculate D2E/DX2 analytically  !
 ! D36   D(1,19,20,22)         177.5976         calculate D2E/DX2 analytically  !
 ! D37   D(1,19,20,23)          -2.6352         calculate D2E/DX2 analytically  !
 ! D38   D(21,19,20,22)         -0.4            calculate D2E/DX2 analytically  !
 ! D39   D(21,19,20,23)        179.3672         calculate D2E/DX2 analytically  !
 ! D40   D(1,19,21,24)        -177.3016         calculate D2E/DX2 analytically  !
 ! D41   D(1,19,21,25)           1.9231         calculate D2E/DX2 analytically  !
 ! D42   D(20,19,21,24)          0.6673         calculate D2E/DX2 analytically  !
 ! D43   D(20,19,21,25)        179.892          calculate D2E/DX2 analytically  !
 ! D44   D(19,20,22,26)         -0.121          calculate D2E/DX2 analytically  !
 ! D45   D(19,20,22,27)        179.8566         calculate D2E/DX2 analytically  !
 ! D46   D(23,20,22,26)       -179.8848         calculate D2E/DX2 analytically  !
 ! D47   D(23,20,22,27)          0.0928         calculate D2E/DX2 analytically  !
 ! D48   D(19,21,24,26)         -0.4169         calculate D2E/DX2 analytically  !
 ! D49   D(19,21,24,28)        179.7467         calculate D2E/DX2 analytically  !
 ! D50   D(25,21,24,26)       -179.6484         calculate D2E/DX2 analytically  !
 ! D51   D(25,21,24,28)          0.5153         calculate D2E/DX2 analytically  !
 ! D52   D(20,22,26,24)          0.3861         calculate D2E/DX2 analytically  !
 ! D53   D(20,22,26,29)       -179.8758         calculate D2E/DX2 analytically  !
 ! D54   D(27,22,26,24)       -179.5914         calculate D2E/DX2 analytically  !
 ! D55   D(27,22,26,29)          0.1467         calculate D2E/DX2 analytically  !
 ! D56   D(21,24,26,22)         -0.1192         calculate D2E/DX2 analytically  !
 ! D57   D(21,24,26,29)       -179.8573         calculate D2E/DX2 analytically  !
 ! D58   D(28,24,26,22)        179.7162         calculate D2E/DX2 analytically  !
 ! D59   D(28,24,26,29)         -0.022          calculate D2E/DX2 analytically  !
 ! D60   D(3,30,31,33)         178.5224         calculate D2E/DX2 analytically  !
 ! D61   D(3,30,31,34)          -1.7061         calculate D2E/DX2 analytically  !
 ! D62   D(32,30,31,33)         -0.5707         calculate D2E/DX2 analytically  !
 ! D63   D(32,30,31,34)        179.2008         calculate D2E/DX2 analytically  !
 ! D64   D(3,30,32,35)        -178.3401         calculate D2E/DX2 analytically  !
 ! D65   D(3,30,32,36)           0.6895         calculate D2E/DX2 analytically  !
 ! D66   D(31,30,32,35)          0.7191         calculate D2E/DX2 analytically  !
 ! D67   D(31,30,32,36)        179.7487         calculate D2E/DX2 analytically  !
 ! D68   D(30,31,33,37)          0.0316         calculate D2E/DX2 analytically  !
 ! D69   D(30,31,33,38)        179.8322         calculate D2E/DX2 analytically  !
 ! D70   D(34,31,33,37)       -179.7342         calculate D2E/DX2 analytically  !
 ! D71   D(34,31,33,38)          0.0664         calculate D2E/DX2 analytically  !
 ! D72   D(30,32,35,37)         -0.3313         calculate D2E/DX2 analytically  !
 ! D73   D(30,32,35,39)        179.6518         calculate D2E/DX2 analytically  !
 ! D74   D(36,32,35,37)       -179.3727         calculate D2E/DX2 analytically  !
 ! D75   D(36,32,35,39)          0.6104         calculate D2E/DX2 analytically  !
 ! D76   D(31,33,37,35)          0.3708         calculate D2E/DX2 analytically  !
 ! D77   D(31,33,37,40)       -179.9493         calculate D2E/DX2 analytically  !
 ! D78   D(38,33,37,35)       -179.4292         calculate D2E/DX2 analytically  !
 ! D79   D(38,33,37,40)          0.2507         calculate D2E/DX2 analytically  !
 ! D80   D(32,35,37,33)         -0.2225         calculate D2E/DX2 analytically  !
 ! D81   D(32,35,37,40)       -179.9026         calculate D2E/DX2 analytically  !
 ! D82   D(39,35,37,33)        179.7945         calculate D2E/DX2 analytically  !
 ! D83   D(39,35,37,40)          0.1144         calculate D2E/DX2 analytically  !
 --------------------------------------------------------------------------------
 Trust Radius=3.00D-01 FncErr=1.00D-07 GrdErr=1.00D-06 EigMax=2.50D+02 EigMin=1.00D-04
 Number of steps in this run=    199 maximum allowed number of steps=    240.
 Search for a saddle point of order  1.
 GradGradGradGradGradGradGradGradGradGradGradGradGradGradGradGradGradGrad

 Leave Link  103 at Tue Jun 11 20:47:37 2019, MaxMem=   104857600 cpu:               1.9 elap:               0.1
 (Enter /project/6004141/group/g16/g16/l202.exe)
                          Input orientation:                          
 ---------------------------------------------------------------------
 Center     Atomic      Atomic             Coordinates (Angstroms)
 Number     Number       Type             X           Y           Z
 ---------------------------------------------------------------------
      1          6           0       -0.297237   -0.732413   -1.266865
      2          1           0        3.177721   -2.229622    2.008260
      3          6           0        1.153744   -0.041198    0.187313
      4          8           0        2.226761   -0.351592   -0.494940
      5          8           0        0.338732   -1.921553   -1.551154
      6          7           0        3.679029   -2.347605    0.219055
      7          1           0        4.307877   -2.777121   -0.457228
      8          7           0        3.846898   -2.756546    1.429527
      9          1           0        1.291840   -1.684888   -1.548091
     10          1           0        3.057886   -1.493899   -0.086325
     11          6           0       -0.123222    0.304710   -2.350854
     12          1           0       -0.527721    1.278623   -2.075416
     13          1           0        0.942646    0.429058   -2.559866
     14          1           0       -0.620285   -0.037292   -3.267184
     15          6           0        0.817034   -0.953886    1.353697
     16          1           0        1.554567   -0.795279    2.150550
     17          1           0       -0.172131   -0.781222    1.776144
     18          1           0        0.864545   -1.992714    1.018939
     19          6           0       -1.587191   -0.904203   -0.601083
     20          6           0       -1.933786   -2.147862   -0.021743
     21          6           0       -2.505489    0.161270   -0.473914
     22          6           0       -3.136564   -2.310783    0.657705
     23          1           0       -1.245191   -2.978662   -0.119086
     24          6           0       -3.705385   -0.006855    0.212271
     25          1           0       -2.274869    1.128823   -0.902542
     26          6           0       -4.029702   -1.240964    0.783571
     27          1           0       -3.380848   -3.276141    1.091724
     28          1           0       -4.392478    0.829756    0.299215
     29          1           0       -4.967359   -1.368978    1.315952
     30          6           0        0.825647    1.407528    0.306591
     31          6           0        1.606875    2.347579   -0.394018
     32          6           0       -0.250181    1.880616    1.078669
     33          6           0        1.315293    3.707901   -0.334138
     34          1           0        2.444562    1.985230   -0.979014
     35          6           0       -0.542884    3.242935    1.135216
     36          1           0       -0.874508    1.186194    1.627184
     37          6           0        0.235102    4.163426    0.428610
     38          1           0        1.932322    4.416206   -0.879990
     39          1           0       -1.382172    3.585447    1.733550
     40          1           0        0.005839    5.223885    0.475724
 ---------------------------------------------------------------------
                    Distance matrix (angstroms):
                    1          2          3          4          5
     1  C    0.000000
     2  H    5.004339   0.000000
     3  C    2.167431   3.493069   0.000000
     4  O    2.666732   3.270678   1.308885   0.000000
     5  O    1.378162   4.563353   2.687424   2.673017   0.000000
     6  N    4.541750   1.861850   3.420173   2.569618   3.804306
     7  H    5.103275   2.766883   4.224839   3.196194   4.205090
     8  N    5.342424   1.029747   4.021105   3.480262   4.678558
     9  H    1.873890   4.062132   2.394246   1.939299   0.982056
    10  H    3.637360   2.223271   2.410596   1.470578   3.118078
    11  C    1.510277   6.026686   2.862269   3.065545   2.410222
    12  H    2.179712   6.535633   3.112747   3.569689   3.356593
    13  H    2.134989   5.738634   2.795120   2.553876   2.628228
    14  H    2.142155   6.860136   3.883393   3.986200   2.723034
    15  C    2.856220   2.762028   1.518823   2.401572   3.098921
    16  H    3.887397   2.170764   2.140934   2.765379   4.055781
    17  H    3.045971   3.656945   2.197718   3.331229   3.554187
    18  H    2.857096   2.526987   2.140947   2.615481   2.624294
    19  C    1.461766   5.591940   2.979777   3.855240   2.376303
    20  C    2.496421   5.500464   3.743605   4.556386   2.748573
    21  C    2.510740   6.646535   3.724003   4.760006   3.686216
    22  C    3.775844   6.457614   4.876374   5.825142   4.136211
    23  H    2.694745   4.964757   3.804926   4.370036   2.382669
    24  C    3.785466   7.452746   4.859314   5.984091   4.809430
    25  H    2.740066   7.034391   3.783136   4.756305   4.068956
    26  C    4.288847   7.377280   5.353791   6.447395   4.999736
    27  H    4.641352   6.704481   5.643168   6.520412   4.759726
    28  H    4.654458   8.341975   5.615306   6.770568   5.777362
    29  H    5.374588   8.219631   6.364332   7.487975   6.056421
    30  C    2.883744   4.653686   1.490195   2.387483   3.843317
    31  C    3.724762   5.402709   2.499906   2.771276   4.601374
    32  C    3.511647   5.432192   2.541435   3.687037   4.660394
    33  C    4.815249   6.649033   3.788635   4.163666   5.841708
    34  H    3.871163   5.217883   2.670756   2.396352   4.474910
    35  C    4.651207   6.674877   3.816097   4.821718   5.887764
    36  H    3.519917   5.313528   2.773721   4.060304   4.607806
    37  C    5.208384   7.212861   4.310567   5.020462   6.399779
    38  H    5.623956   7.352553   4.649061   4.792375   6.569412
    39  H    5.368751   7.394803   4.687672   5.787127   6.639114
    40  H    6.213369   8.244044   5.396477   6.079525   7.434806
                    6          7          8          9         10
     6  N    0.000000
     7  H    1.018476   0.000000
     8  N    1.288664   1.942362   0.000000
     9  H    3.043135   3.388131   4.067306   0.000000
    10  H    1.099040   1.829400   2.124765   2.300468   0.000000
    11  C    5.300596   5.719977   6.278887   2.570083   4.299132
    12  H    6.009232   6.515412   6.906845   3.517282   4.949741
    13  H    4.787489   5.101514   5.873501   2.369471   3.780266
    14  H    5.997959   6.299944   7.029165   3.053862   5.076269
    15  C    3.379479   4.334700   3.526388   3.029881   2.717848
    16  H    3.264005   4.278892   3.101810   3.813184   2.784178
    17  H    4.439540   5.389066   4.491619   3.743042   3.796012
    18  H    2.947386   3.827649   3.105874   2.620492   2.506226
    19  C    5.521694   6.187111   6.089653   3.129714   4.710569
    20  C    5.621528   6.288400   5.991076   3.598437   5.034742
    21  C    6.709912   7.419998   7.244968   4.356818   5.817298
    22  C    6.829793   7.541900   7.040110   4.986787   6.292225
    23  H    4.975994   5.567003   5.326998   3.186288   4.552150
    24  C    7.746530   8.504997   8.128929   5.557601   6.931255
    25  H    6.985158   7.667284   7.616474   4.588585   5.998596
    26  C    7.808192   8.568231   8.047054   5.826880   7.145250
    27  H    7.173952   7.859056   7.254268   5.597743   6.783913
    28  H    8.674749   9.448701   9.056847   6.484400   7.813830
    29  H    8.770457   9.547619   8.923529   6.890582   8.147794
    30  C    4.717041   5.497330   5.265782   3.635962   3.681787
    31  C    5.168601   5.793268   5.864735   4.206177   4.117895
    32  C    5.835707   6.695475   6.197776   4.689405   4.867019
    33  C    6.523988   7.143264   7.163003   5.527785   5.491518
    34  H    4.661838   5.140447   5.500187   3.888751   3.643816
    35  C    7.065270   7.893468   7.439797   5.903371   6.074150
    36  H    5.933402   6.849070   6.154343   4.797765   5.057938
    37  C    7.368722   8.095888   7.869747   6.263132   6.343390
    38  H    7.071635   7.587222   7.774821   6.170893   6.068454
    39  H    7.944215   8.812402   8.225356   6.759877   6.987547
    40  H    8.419362   9.132033   8.907904   7.313055   7.399967
                   11         12         13         14         15
    11  C    0.000000
    12  H    1.089950   0.000000
    13  H    1.093263   1.765908   0.000000
    14  H    1.097132   1.777783   1.777789   0.000000
    15  C    4.023909   4.307120   4.152624   4.925299   0.000000
    16  H    4.928244   5.147405   4.905249   5.886966   1.097308
    17  H    4.267757   4.382228   4.637724   5.117561   1.089368
    18  H    4.196349   4.713288   4.321912   4.939559   1.092467
    19  C    2.581932   2.839166   3.466193   2.965558   3.099021
    20  C    3.836406   4.235020   4.621304   4.088114   3.299155
    21  C    3.036227   2.779362   4.038879   3.375763   3.952581
    22  C    4.997245   5.211511   5.873623   5.187020   4.237512
    23  H    4.125547   4.739880   4.728276   4.353468   3.243698
    24  C    4.415719   4.121106   5.429453   4.650309   4.759411
    25  H    2.721462   2.109644   3.686299   3.112717   4.357540
    26  C    5.241595   5.175519   6.220272   5.429693   4.888589
    27  H    5.940199   6.238348   6.764260   6.091874   4.804551
    28  H    5.052236   4.558147   6.066173   5.263118   5.606454
    29  H    6.301774   6.182358   7.292672   6.455662   5.799390
    30  C    3.029616   2.742659   3.031117   4.117049   2.583173
    31  C    3.315985   2.919977   2.968640   4.347750   3.818118
    32  C    3.776404   3.222992   4.094972   4.764639   3.041215
    33  C    4.209297   3.511430   3.980395   5.135727   4.982901
    34  H    3.361489   3.245898   2.678902   4.326616   4.090084
    35  C    4.578424   3.763896   4.876303   5.490629   4.417060
    36  H    4.143215   3.719953   4.626737   5.051375   2.741542
    37  C    4.769015   3.895399   4.834988   5.660089   5.232716
    38  H    4.826293   4.162365   4.438332   5.661108   5.922087
    39  H    5.388000   4.534286   5.813862   6.221901   5.058294
    40  H    5.674899   4.728435   5.751763   6.487016   6.292355
                   16         17         18         19         20
    16  H    0.000000
    17  H    1.766880   0.000000
    18  H    1.786204   1.765154   0.000000
    19  C    4.177797   2.769247   3.133742   0.000000
    20  C    4.326308   2.864181   2.989606   1.415080   0.000000
    21  C    4.928169   3.375739   4.269120   1.412330   2.421445
    22  C    5.150927   3.518284   4.029954   2.442042   1.390995
    23  H    4.213912   3.093881   2.591945   2.157004   1.083452
    24  C    5.660886   3.940714   5.047634   2.439984   2.788770
    25  H    5.261950   3.904502   4.826179   2.167250   3.410104
    26  C    5.766396   4.009666   4.957235   2.827814   2.421541
    27  H    5.624421   4.121761   4.435746   3.421826   2.146348
    28  H    6.437043   4.752673   6.010044   3.418594   3.874841
    29  H    6.600091   4.852983   5.872680   3.913640   3.405680
    30  C    2.963759   2.818825   3.474277   3.462623   4.512546
    31  C    4.044146   4.202840   4.624462   4.562786   5.734445
    32  C    3.400950   2.752807   4.030988   3.516302   4.502673
    33  C    5.148743   5.178605   5.876309   5.455930   6.704034
    34  H    4.279894   4.700131   4.723591   4.974604   6.096618
    35  C    4.662336   4.091709   5.422767   4.615633   5.686287
    36  H    3.178137   2.094337   3.674197   3.137332   3.867423
    37  C    5.412469   5.141131   6.216329   5.482872   6.688740
    38  H    6.040401   6.204597   6.769072   6.385257   7.666183
    39  H    5.290471   4.531425   6.055930   5.064534   6.021309
    40  H    6.436920   6.146875   7.287782   6.422672   7.638866
                   21         22         23         24         25
    21  C    0.000000
    22  C    2.791033   0.000000
    23  H    3.401974   2.150990   0.000000
    24  C    1.392432   2.414550   3.872207   0.000000
    25  H    1.083082   3.873987   4.306446   2.139848   0.000000
    26  C    2.422964   1.399304   3.404098   1.398067   3.396808
    27  H    3.877276   1.086261   2.472971   3.401028   4.960241
    28  H    2.146003   3.401297   4.958270   1.086082   2.453147
    29  H    3.406770   2.161503   4.301738   2.160109   4.290714
    30  C    3.641265   5.445019   4.869110   4.747592   3.339593
    31  C    4.658097   6.731023   6.048034   5.842179   4.100232
    32  C    3.233122   5.106490   5.102670   4.031331   2.930828
    33  C    5.215027   7.551645   7.163271   6.269385   4.456904
    34  H    5.299525   7.230736   6.244516   6.573387   4.797115
    35  C    3.992215   6.148087   6.385513   4.627567   3.409061
    36  H    2.850470   4.276171   4.531323   3.382190   2.892026
    37  C    4.933826   7.303150   7.314414   5.741558   4.157010
    38  H    6.161456   8.562155   8.084531   7.248465   5.339274
    39  H    4.226077   6.245067   6.821917   4.540511   3.712262
    40  H    5.730502   8.165723   8.318693   6.418974   4.885773
                   26         27         28         29         30
    26  C    0.000000
    27  H    2.158220   0.000000
    28  H    2.157334   4.302308   0.000000
    29  H    1.085826   2.490897   2.489714   0.000000
    30  C    5.551255   6.344115   5.250019   6.502824   0.000000
    31  C    6.784936   7.662313   6.227086   7.743213   1.408853
    32  C    4.910817   6.032693   4.344017   5.733056   1.406173
    33  C    7.369499   8.536022   6.423668   8.244344   2.437622
    34  H    7.445208   8.118213   7.050823   8.453056   2.146487
    35  C    5.690949   7.110154   4.619708   6.393621   2.434793
    36  H    4.069156   5.145959   3.777124   4.834997   2.164135
    37  C    6.893619   8.298311   5.704787   7.645945   2.821100
    38  H    8.385508   9.554561   7.365884   9.268016   3.418311
    39  H    5.586244   7.175516   4.325863   6.129786   3.413797
    40  H    7.627230   9.170581   6.219704   8.300875   3.907080
                   31         32         33         34         35
    31  C    0.000000
    32  C    2.415682   0.000000
    33  C    1.392509   2.790287   0.000000
    34  H    1.084083   3.392144   2.158404   0.000000
    35  C    2.785980   1.394556   2.414128   3.869964   0.000000
    36  H    3.404605   1.082993   3.873115   4.294992   2.140605
    37  C    2.419872   2.422663   1.398606   3.407001   1.397089
    38  H    2.149721   3.876710   1.086451   2.486331   3.400627
    39  H    3.872114   2.148656   3.400977   4.956066   1.086150
    40  H    3.404835   3.406837   2.160730   4.307263   2.158747
                   36         37         38         39         40
    36  H    0.000000
    37  C    3.395839   0.000000
    38  H    4.959556   2.157982   0.000000
    39  H    2.454679   2.156966   4.301932   0.000000
    40  H    4.289967   1.085981   2.490310   2.488610   0.000000
 Stoichiometry    C16H20N2O2
 Framework group  C1[X(C16H20N2O2)]
 Deg. of freedom   114
 Full point group                 C1      NOp   1
 Largest Abelian subgroup         C1      NOp   1
 Largest concise Abelian subgroup C1      NOp   1
                         Standard orientation:                         
 ---------------------------------------------------------------------
 Center     Atomic      Atomic             Coordinates (Angstroms)
 Number     Number       Type             X           Y           Z
 ---------------------------------------------------------------------
      1          6           0        0.297237   -0.732413    1.266865
      2          1           0       -3.177721   -2.229622   -2.008260
      3          6           0       -1.153744   -0.041198   -0.187313
      4          8           0       -2.226761   -0.351592    0.494940
      5          8           0       -0.338732   -1.921553    1.551154
      6          7           0       -3.679029   -2.347605   -0.219055
      7          1           0       -4.307877   -2.777121    0.457228
      8          7           0       -3.846898   -2.756546   -1.429527
      9          1           0       -1.291840   -1.684888    1.548091
     10          1           0       -3.057886   -1.493899    0.086325
     11          6           0        0.123222    0.304710    2.350854
     12          1           0        0.527721    1.278623    2.075416
     13          1           0       -0.942646    0.429058    2.559866
     14          1           0        0.620285   -0.037292    3.267184
     15          6           0       -0.817034   -0.953886   -1.353697
     16          1           0       -1.554567   -0.795279   -2.150550
     17          1           0        0.172131   -0.781222   -1.776144
     18          1           0       -0.864545   -1.992714   -1.018939
     19          6           0        1.587191   -0.904203    0.601083
     20          6           0        1.933786   -2.147862    0.021743
     21          6           0        2.505489    0.161270    0.473914
     22          6           0        3.136564   -2.310783   -0.657705
     23          1           0        1.245191   -2.978662    0.119086
     24          6           0        3.705385   -0.006855   -0.212271
     25          1           0        2.274869    1.128823    0.902542
     26          6           0        4.029702   -1.240964   -0.783571
     27          1           0        3.380848   -3.276141   -1.091724
     28          1           0        4.392478    0.829756   -0.299215
     29          1           0        4.967359   -1.368978   -1.315952
     30          6           0       -0.825647    1.407528   -0.306591
     31          6           0       -1.606875    2.347579    0.394018
     32          6           0        0.250181    1.880616   -1.078669
     33          6           0       -1.315293    3.707901    0.334138
     34          1           0       -2.444562    1.985230    0.979014
     35          6           0        0.542884    3.242935   -1.135216
     36          1           0        0.874508    1.186194   -1.627184
     37          6           0       -0.235102    4.163426   -0.428610
     38          1           0       -1.932322    4.416206    0.879990
     39          1           0        1.382172    3.585447   -1.733550
     40          1           0       -0.005839    5.223885   -0.475724
 ---------------------------------------------------------------------
 Rotational constants (GHZ):           0.3506982           0.3157229           0.2043591
 Leave Link  202 at Tue Jun 11 20:47:38 2019, MaxMem=   104857600 cpu:               5.8 elap:               0.2
 (Enter /project/6004141/group/g16/g16/l301.exe)
 Standard basis: 6-31G(d,p) (6D, 7F)
 Ernie: Thresh=  0.10000D-02 Tol=  0.10000D-05 Strict=F.
 There are   400 symmetry adapted cartesian basis functions of A   symmetry.
 There are   400 symmetry adapted basis functions of A   symmetry.
   400 basis functions,   700 primitive gaussians,   400 cartesian basis functions
    73 alpha electrons       73 beta electrons
       nuclear repulsion energy      1575.3225395080 Hartrees.
 IExCor=  402 DFT=T Ex+Corr=B3LYP ExCW=0 ScaHFX=  0.200000
 ScaDFX=  0.800000  0.720000  1.000000  0.810000 ScalE2=  1.000000  1.000000
 IRadAn=      5 IRanWt=     -1 IRanGd=            0 ICorTp=0 IEmpDi=131
 NAtoms=   40 NActive=   40 NUniq=   40 SFac= 1.00D+00 NAtFMM=   60 NAOKFM=F Big=F
 Integral buffers will be    131072 words long.
 Raffenetti 2 integral format.
 Two-electron integral symmetry is turned on.
 R6Disp:  Grimme-D3 Dispersion energy=       -0.0487875537 Hartrees.
 Nuclear repulsion after empirical dispersion term =     1575.2737519543 Hartrees.
 Force inversion solution in PCM.
 ------------------------------------------------------------------------------
 Polarizable Continuum Model (PCM)
 =================================
 Model                : PCM.
 Atomic radii         : UFF (Universal Force Field).
 Polarization charges : Total charges.
 Charge compensation  : None.
 Solution method      : Matrix inversion.
 Cavity type          : Scaled VdW (van der Waals Surface) (Alpha=1.100).
 Cavity algorithm     : GePol (No added spheres)
                        Default sphere list used, NSphG=   40.
                        Lebedev-Laikov grids with approx.  5.0 points / Ang**2.
                        Smoothing algorithm: York/Karplus (Gamma=1.0000).
                        Polarization charges: spherical gaussians, with
                                              point-specific exponents (IZeta= 3).
                        Self-potential: point-specific (ISelfS= 7).
                        Self-field    : sphere-specific E.n sum rule (ISelfD= 2).
 1st derivatives      : Analytical E(r).r(x)/FMM algorithm (CHGder, D1EAlg=3).
                        Cavity 1st derivative terms included.
 2nd derivatives      : Analytical E(r).r(xy)/FMM algorithm (CHGder, D2EAlg=3).
                        Cavity 2nd derivative terms included.
 Solvent              : Acetonitrile, Eps=  35.688000 Eps(inf)=   1.806874
 ------------------------------------------------------------------------------
 GePol: Number of generator spheres                  =      40
 GePol: Total number of spheres                      =      40
 GePol: Number of exposed spheres                    =      40 (100.00%)
 GePol: Number of points                             =    2749
 GePol: Average weight of points                     =       0.13
 GePol: Minimum weight of points                     =   0.24D-09
 GePol: Maximum weight of points                     =    0.20577
 GePol: Number of points with low weight             =     186
 GePol: Fraction of low-weight points (<1% of avg)   =       6.77%
 GePol: Cavity surface area                          =    351.810 Ang**2
 GePol: Cavity volume                                =    400.112 Ang**3
 Leave Link  301 at Tue Jun 11 20:47:39 2019, MaxMem=   104857600 cpu:              12.0 elap:               0.4
 (Enter /project/6004141/group/g16/g16/l302.exe)
 NPDir=0 NMtPBC=     1 NCelOv=     1 NCel=       1 NClECP=     1 NCelD=      1
         NCelK=      1 NCelE2=     1 NClLst=     1 CellRange=     0.0.
 One-electron integrals computed using PRISM.
 One-electron integral symmetry used in STVInt
 PrsmSu:  requested number of processors reduced to:  27 ShMem   1 Linda.
 NBasis=   400 RedAO= T EigKep=  4.46D-04  NBF=   400
 NBsUse=   400 1.00D-06 EigRej= -1.00D+00 NBFU=   400
 Precomputing XC quadrature grid using
 IXCGrd= 4 IRadAn=           5 IRanWt=          -1 IRanGd=           0 AccXCQ= 0.00D+00.
 Generated NRdTot=       0 NPtTot=           0 NUsed=           0 NTot=          32
 NSgBfM=   398   397   398   398   398 MxSgAt=    40 MxSgA2=    40.
 Leave Link  302 at Tue Jun 11 20:47:39 2019, MaxMem=   104857600 cpu:              18.7 elap:               0.6
 (Enter /project/6004141/group/g16/g16/l303.exe)
 DipDrv:  MaxL=1.
 Leave Link  303 at Tue Jun 11 20:47:40 2019, MaxMem=   104857600 cpu:               5.0 elap:               0.2
 (Enter /project/6004141/group/g16/g16/l401.exe)
 ExpMin= 1.61D-01 ExpMax= 5.48D+03 ExpMxC= 8.25D+02 IAcc=3 IRadAn=         5 AccDes= 0.00D+00
 Harris functional with IExCor=  402 and IRadAn=       5 diagonalized for initial guess.
 HarFok:  IExCor=  402 AccDes= 0.00D+00 IRadAn=         5 IDoV= 1 UseB2=F ITyADJ=14
 ICtDFT=  3500011 ScaDFX=  1.000000  1.000000  1.000000  1.000000
 FoFCou: FMM=F IPFlag=           0 FMFlag=      100000 FMFlg1=           0
         NFxFlg=           0 DoJE=T BraDBF=F KetDBF=T FulRan=T
         wScrn=  0.000000 ICntrl=       500 IOpCl=  0 I1Cent=   200000004 NGrid=           0
         NMat0=    1 NMatS0=      1 NMatT0=    0 NMatD0=    1 NMtDS0=    0 NMtDT0=    0
 Petite list used in FoFCou.
 Harris En= -881.731550482603    
 JPrj=0 DoOrth=F DoCkMO=T.
 Mixing orbitals, IMix= 1 IMixAn=  0 NRI=1 NE=   73 Coef=  7.07106781D-01  7.07106781D-01
 Mixing orbitals, IMix= 1 IMixAn=  0 NRI=1 NE=   73 Coef= -7.07106781D-01  7.07106781D-01
 Initial guess <Sx>= 0.0000 <Sy>= 0.0000 <Sz>= 0.0000 <S**2>= 1.0000 S= 0.6180
 Leave Link  401 at Tue Jun 11 20:47:41 2019, MaxMem=   104857600 cpu:              38.8 elap:               1.0
 (Enter /project/6004141/group/g16/g16/l502.exe)
 Integral symmetry usage will be decided dynamically.
 UHF open shell SCF:
 Using DIIS extrapolation, IDIIS=  1040.
 NGot=   104857600 LenX=   104517248 LenY=   104356807
 Requested convergence on RMS density matrix=1.00D-08 within 128 cycles.
 Requested convergence on MAX density matrix=1.00D-06.
 Requested convergence on             energy=1.00D-06.
 No special actions if energy rises.
 Fock matrices will be formed incrementally for  20 cycles.

 Cycle   1  Pass 1  IDiag  1:
 FoFJK:  IHMeth= 1 ICntrl=       0 DoSepK=F KAlg= 0 I1Cent=           0 FoldK=F
 IRaf= 790000000 NMat=       1 IRICut=       1 DoRegI=T DoRafI=F ISym2E= 0 IDoP0=0 IntGTp=1.
 FoFCou: FMM=F IPFlag=           0 FMFlag=      100000 FMFlg1=           0
         NFxFlg=           0 DoJE=F BraDBF=F KetDBF=F FulRan=T
         wScrn=  0.000000 ICntrl=         0 IOpCl=  1 I1Cent=           0 NGrid=           0
         NMat0=    1 NMatS0=      1 NMatT0=    0 NMatD0=    1 NMtDS0=    0 NMtDT0=    0
 Symmetry not used in FoFCou.
 CoulSu:  requested number of processors reduced to:  39 ShMem   1 Linda.
 Inv3:  Mode=1 IEnd=    22671003.
 Iteration    1 A*A^-1 deviation from unit magnitude is 3.11D-15 for   2230.
 Iteration    1 A*A^-1 deviation from orthogonality  is 2.13D-15 for   1523   1177.
 Iteration    1 A^-1*A deviation from unit magnitude is 3.11D-15 for   2230.
 Iteration    1 A^-1*A deviation from orthogonality  is 1.60D-15 for   1741   1720.
 CoulSu:  requested number of processors reduced to:  39 ShMem   1 Linda.
 CoulSu:  requested number of processors reduced to:  39 ShMem   1 Linda.
 E= -881.122061540301    
 DIIS: error= 3.13D-02 at cycle   1 NSaved=   1.
 NSaved= 1 IEnMin= 1 EnMin= -881.122061540301     IErMin= 1 ErrMin= 3.13D-02
 ErrMax= 3.13D-02  0.00D+00 EMaxC= 1.00D-01 BMatC= 1.98D+00 BMatP= 1.98D+00
 IDIUse=3 WtCom= 6.87D-01 WtEn= 3.13D-01
 Coeff-Com:  0.100D+01
 Coeff-En:   0.100D+01
 Coeff:      0.100D+01
 Gap=     0.031 Goal=   None    Shift=    0.000
 Gap=     0.026 Goal=   None    Shift=    0.000
 GapD=    0.026 DampG=0.250 DampE=0.500 DampFc=0.2500 IDamp=-1.
 Damping current iteration by 2.50D-01
 RMSDP=4.13D-03 MaxDP=1.55D-01              OVMax= 5.99D-01

 Cycle   2  Pass 1  IDiag  1:
 RMSU=  1.01D-03    CP:  9.88D-01
 E= -881.310606177306     Delta-E=       -0.188544637005 Rises=F Damp=T
 DIIS: error= 1.81D-02 at cycle   2 NSaved=   2.
 NSaved= 2 IEnMin= 2 EnMin= -881.310606177306     IErMin= 2 ErrMin= 1.81D-02
 ErrMax= 1.81D-02  0.00D+00 EMaxC= 1.00D-01 BMatC= 5.25D-01 BMatP= 1.98D+00
 IDIUse=3 WtCom= 8.19D-01 WtEn= 1.81D-01
 Coeff-Com: -0.744D+00 0.174D+01
 Coeff-En:   0.000D+00 0.100D+01
 Coeff:     -0.609D+00 0.161D+01
 Gap=     0.097 Goal=   None    Shift=    0.000
 Gap=     0.071 Goal=   None    Shift=    0.000
 RMSDP=2.18D-03 MaxDP=8.01D-02 DE=-1.89D-01 OVMax= 8.91D-01

 Cycle   3  Pass 1  IDiag  1:
 RMSU=  2.13D-03    CP:  9.66D-01  1.28D+00
 E= -881.283842791440     Delta-E=        0.026763385866 Rises=F Damp=F
 DIIS: error= 2.62D-02 at cycle   3 NSaved=   3.
 NSaved= 3 IEnMin= 2 EnMin= -881.310606177306     IErMin= 2 ErrMin= 1.81D-02
 ErrMax= 2.62D-02  0.00D+00 EMaxC= 1.00D-01 BMatC= 1.02D+00 BMatP= 5.25D-01
 IDIUse=2 WtCom= 0.00D+00 WtEn= 1.00D+00
 Coeff-En:   0.000D+00 0.537D+00 0.463D+00
 Coeff:      0.000D+00 0.537D+00 0.463D+00
 Gap=    -0.141 Goal=   None    Shift=    0.000
 Gap=    -0.082 Goal=   None    Shift=    0.000
 RMSDP=3.45D-03 MaxDP=1.87D-01 DE= 2.68D-02 OVMax= 8.41D-01

 Cycle   4  Pass 1  IDiag  1:
 RMSU=  1.12D-03    CP:  9.60D-01  2.96D+00 -3.06D-01
 E= -881.252045733231     Delta-E=        0.031797058209 Rises=F Damp=F
 DIIS: error= 3.74D-02 at cycle   4 NSaved=   4.
 NSaved= 4 IEnMin= 2 EnMin= -881.310606177306     IErMin= 2 ErrMin= 1.81D-02
 ErrMax= 3.74D-02  0.00D+00 EMaxC= 1.00D-01 BMatC= 1.54D+00 BMatP= 5.25D-01
 IDIUse=2 WtCom= 0.00D+00 WtEn= 1.00D+00
 Coeff-En:   0.000D+00 0.000D+00 0.514D+00 0.486D+00
 Coeff:      0.000D+00 0.000D+00 0.514D+00 0.486D+00
 Gap=     0.249 Goal=   None    Shift=    0.000
 Gap=     0.250 Goal=   None    Shift=    0.000
 RMSDP=1.70D-03 MaxDP=1.07D-01 DE= 3.18D-02 OVMax= 2.01D-01

 Cycle   5  Pass 1  IDiag  1:
 RMSU=  1.27D-03    CP:  9.65D-01  2.13D+00 -5.38D-02  5.43D-01
 E= -881.602026782422     Delta-E=       -0.349981049191 Rises=F Damp=F
 DIIS: error= 1.05D-02 at cycle   5 NSaved=   5.
 NSaved= 5 IEnMin= 5 EnMin= -881.602026782422     IErMin= 5 ErrMin= 1.05D-02
 ErrMax= 1.05D-02  0.00D+00 EMaxC= 1.00D-01 BMatC= 1.71D-01 BMatP= 5.25D-01
 IDIUse=3 WtCom= 8.95D-01 WtEn= 1.05D-01
 Coeff-Com: -0.494D+00 0.826D+00 0.220D+00-0.561D-01 0.505D+00
 Coeff-En:   0.000D+00 0.000D+00 0.186D+00 0.000D+00 0.814D+00
 Coeff:     -0.442D+00 0.739D+00 0.216D+00-0.502D-01 0.537D+00
 Gap=     0.040 Goal=   None    Shift=    0.000
 Gap=     0.042 Goal=   None    Shift=    0.000
 RMSDP=6.12D-04 MaxDP=2.23D-02 DE=-3.50D-01 OVMax= 1.24D-01

 Cycle   6  Pass 1  IDiag  1:
 RMSU=  4.37D-04    CP:  9.63D-01  2.41D+00 -4.70D-03  3.55D-01  8.32D-01
 E= -881.630914469213     Delta-E=       -0.028887686791 Rises=F Damp=F
 DIIS: error= 5.00D-03 at cycle   6 NSaved=   6.
 NSaved= 6 IEnMin= 6 EnMin= -881.630914469213     IErMin= 6 ErrMin= 5.00D-03
 ErrMax= 5.00D-03  0.00D+00 EMaxC= 1.00D-01 BMatC= 6.91D-02 BMatP= 1.71D-01
 IDIUse=3 WtCom= 9.50D-01 WtEn= 5.00D-02
 EnCoef did     2 forward-backward iterations
 Coeff-Com: -0.279D+00 0.408D+00 0.113D+00-0.164D+00 0.316D+00 0.607D+00
 Coeff-En:   0.000D+00 0.000D+00 0.131D+00 0.000D+00 0.397D-02 0.865D+00
 Coeff:     -0.265D+00 0.388D+00 0.113D+00-0.156D+00 0.300D+00 0.619D+00
 Gap=     0.025 Goal=   None    Shift=    0.000
 Gap=     0.024 Goal=   None    Shift=    0.000
 RMSDP=6.91D-04 MaxDP=3.15D-02 DE=-2.89D-02 OVMax= 2.35D-01

 Cycle   7  Pass 1  IDiag  1:
 RMSU=  4.86D-04    CP:  9.64D-01  2.22D+00  1.53D-01  1.76D-01  9.41D-01
                    CP:  1.40D+00
 E= -881.655282384849     Delta-E=       -0.024367915635 Rises=F Damp=F
 DIIS: error= 1.33D-03 at cycle   7 NSaved=   7.
 NSaved= 7 IEnMin= 7 EnMin= -881.655282384849     IErMin= 7 ErrMin= 1.33D-03
 ErrMax= 1.33D-03  0.00D+00 EMaxC= 1.00D-01 BMatC= 2.03D-03 BMatP= 6.91D-02
 IDIUse=3 WtCom= 9.87D-01 WtEn= 1.33D-02
 Coeff-Com: -0.656D-01 0.894D-01 0.430D-01-0.536D-01 0.102D+00 0.286D+00
 Coeff-Com:  0.599D+00
 Coeff-En:   0.000D+00 0.000D+00 0.000D+00 0.000D+00 0.000D+00 0.000D+00
 Coeff-En:   0.100D+01
 Coeff:     -0.647D-01 0.882D-01 0.424D-01-0.529D-01 0.100D+00 0.283D+00
 Coeff:      0.604D+00
 Gap=     0.040 Goal=   None    Shift=    0.000
 Gap=     0.026 Goal=   None    Shift=    0.000
 RMSDP=3.87D-04 MaxDP=2.12D-02 DE=-2.44D-02 OVMax= 1.68D-01

 Cycle   8  Pass 1  IDiag  1:
 RMSU=  1.87D-04    CP:  9.64D-01  2.10D+00  2.32D-01  1.59D-01  8.41D-01
                    CP:  1.71D+00  1.40D+00
 E= -881.655005949190     Delta-E=        0.000276435658 Rises=F Damp=F
 DIIS: error= 4.33D-03 at cycle   8 NSaved=   8.
 NSaved= 8 IEnMin= 7 EnMin= -881.655282384849     IErMin= 7 ErrMin= 1.33D-03
 ErrMax= 4.33D-03  0.00D+00 EMaxC= 1.00D-01 BMatC= 9.46D-03 BMatP= 2.03D-03
 IDIUse=3 WtCom= 9.87D-01 WtEn= 1.33D-02
 Coeff-Com: -0.542D-01 0.728D-01 0.238D-01-0.144D-01 0.112D+00 0.156D+00
 Coeff-Com:  0.300D+00 0.403D+00
 Coeff-En:   0.000D+00 0.000D+00 0.000D+00 0.000D+00 0.000D+00 0.000D+00
 Coeff-En:   0.559D+00 0.441D+00
 Coeff:     -0.534D-01 0.718D-01 0.235D-01-0.142D-01 0.111D+00 0.154D+00
 Coeff:      0.304D+00 0.404D+00
 Gap=     0.055 Goal=   None    Shift=    0.000
 Gap=     0.028 Goal=   None    Shift=    0.000
 RMSDP=1.18D-04 MaxDP=5.45D-03 DE= 2.76D-04 OVMax= 3.24D-02

 Cycle   9  Pass 1  IDiag  1:
 RMSU=  6.90D-05    CP:  9.65D-01  2.07D+00  2.32D-01  1.69D-01  7.89D-01
                    CP:  1.67D+00  1.42D+00  1.31D+00
 E= -881.656380858808     Delta-E=       -0.001374909618 Rises=F Damp=F
 DIIS: error= 3.71D-03 at cycle   9 NSaved=   9.
 NSaved= 9 IEnMin= 9 EnMin= -881.656380858808     IErMin= 7 ErrMin= 1.33D-03
 ErrMax= 3.71D-03  0.00D+00 EMaxC= 1.00D-01 BMatC= 6.00D-03 BMatP= 2.03D-03
 IDIUse=3 WtCom= 9.87D-01 WtEn= 1.33D-02
 Coeff-Com: -0.638D-01 0.866D-01 0.235D-01-0.166D-01 0.123D+00 0.154D+00
 Coeff-Com:  0.152D+00 0.837D-01 0.457D+00
 Coeff-En:   0.000D+00 0.000D+00 0.000D+00 0.000D+00 0.000D+00 0.124D-01
 Coeff-En:   0.000D+00 0.000D+00 0.988D+00
 Coeff:     -0.630D-01 0.855D-01 0.232D-01-0.164D-01 0.122D+00 0.152D+00
 Coeff:      0.150D+00 0.826D-01 0.464D+00
 Gap=     0.062 Goal=   None    Shift=    0.000
 Gap=     0.029 Goal=   None    Shift=    0.000
 RMSDP=6.11D-05 MaxDP=3.07D-03 DE=-1.37D-03 OVMax= 2.09D-02

 Cycle  10  Pass 1  IDiag  1:
 RMSU=  1.69D-05    CP:  9.65D-01  2.06D+00  2.31D-01  1.73D-01  7.64D-01
                    CP:  1.63D+00  1.41D+00  1.47D+00  1.46D+00
 E= -881.657112598449     Delta-E=       -0.000731739641 Rises=F Damp=F
 DIIS: error= 3.05D-03 at cycle  10 NSaved=  10.
 NSaved=10 IEnMin=10 EnMin= -881.657112598449     IErMin= 7 ErrMin= 1.33D-03
 ErrMax= 3.05D-03  0.00D+00 EMaxC= 1.00D-01 BMatC= 4.04D-03 BMatP= 2.03D-03
 IDIUse=3 WtCom= 9.87D-01 WtEn= 1.33D-02
 Coeff-Com: -0.488D-01 0.650D-01 0.975D-02-0.136D-01 0.861D-01 0.771D-01
 Coeff-Com: -0.380D+00-0.117D+01-0.298D+00 0.267D+01
 Coeff-En:   0.000D+00 0.000D+00 0.000D+00 0.000D+00 0.000D+00 0.000D+00
 Coeff-En:   0.000D+00 0.000D+00 0.000D+00 0.100D+01
 Coeff:     -0.482D-01 0.641D-01 0.962D-02-0.134D-01 0.850D-01 0.761D-01
 Coeff:     -0.375D+00-0.115D+01-0.294D+00 0.265D+01
 Gap=     0.106 Goal=   None    Shift=    0.000
 Gap=     0.032 Goal=   None    Shift=    0.000
 RMSDP=3.37D-04 MaxDP=1.93D-02 DE=-7.32D-04 OVMax= 1.08D-01

 Cycle  11  Pass 1  IDiag  1:
 RMSU=  4.82D-05    CP:  9.66D-01  1.98D+00  2.51D-01  2.21D-01  6.03D-01
                    CP:  1.54D+00  1.54D+00  2.53D+00  3.00D+00  1.61D+00
 E= -881.658532690633     Delta-E=       -0.001420092183 Rises=F Damp=F
 DIIS: error= 1.28D-03 at cycle  11 NSaved=  11.
 NSaved=11 IEnMin=11 EnMin= -881.658532690633     IErMin=11 ErrMin= 1.28D-03
 ErrMax= 1.28D-03  0.00D+00 EMaxC= 1.00D-01 BMatC= 9.24D-04 BMatP= 2.03D-03
 IDIUse=3 WtCom= 9.87D-01 WtEn= 1.28D-02
 Coeff-Com: -0.202D-01 0.259D-01-0.118D-02-0.656D-02 0.352D-01 0.298D-01
 Coeff-Com: -0.166D+00-0.542D+00-0.550D+00 0.138D+01 0.813D+00
 Coeff-En:   0.000D+00 0.000D+00 0.000D+00 0.000D+00 0.000D+00 0.000D+00
 Coeff-En:   0.000D+00 0.000D+00 0.000D+00 0.000D+00 0.100D+01
 Coeff:     -0.199D-01 0.255D-01-0.116D-02-0.648D-02 0.347D-01 0.294D-01
 Coeff:     -0.164D+00-0.535D+00-0.543D+00 0.136D+01 0.815D+00
 Gap=     0.121 Goal=   None    Shift=    0.000
 Gap=     0.034 Goal=   None    Shift=    0.000
 RMSDP=7.96D-05 MaxDP=4.27D-03 DE=-1.42D-03 OVMax= 1.85D-02

 Cycle  12  Pass 1  IDiag  1:
 RMSU=  2.59D-05    CP:  9.66D-01  1.96D+00  2.49D-01  2.45D-01  5.64D-01
                    CP:  1.50D+00  1.58D+00  2.69D+00  3.00D+00  1.75D+00
                    CP:  1.54D+00
 E= -881.658743276675     Delta-E=       -0.000210586042 Rises=F Damp=F
 DIIS: error= 3.46D-04 at cycle  12 NSaved=  12.
 NSaved=12 IEnMin=12 EnMin= -881.658743276675     IErMin=12 ErrMin= 3.46D-04
 ErrMax= 3.46D-04  0.00D+00 EMaxC= 1.00D-01 BMatC= 1.26D-04 BMatP= 9.24D-04
 IDIUse=3 WtCom= 9.97D-01 WtEn= 3.46D-03
 Coeff-Com: -0.334D-02 0.387D-02-0.281D-02-0.270D-02 0.588D-02 0.219D-01
 Coeff-Com:  0.170D+00 0.374D+00-0.138D+00-0.640D+00 0.430D+00 0.781D+00
 Coeff-En:   0.000D+00 0.000D+00 0.000D+00 0.000D+00 0.000D+00 0.000D+00
 Coeff-En:   0.000D+00 0.000D+00 0.000D+00 0.000D+00 0.000D+00 0.100D+01
 Coeff:     -0.333D-02 0.385D-02-0.281D-02-0.269D-02 0.586D-02 0.218D-01
 Coeff:      0.169D+00 0.373D+00-0.137D+00-0.638D+00 0.428D+00 0.782D+00
 Gap=     0.114 Goal=   None    Shift=    0.000
 Gap=     0.033 Goal=   None    Shift=    0.000
 RMSDP=7.91D-05 MaxDP=4.52D-03 DE=-2.11D-04 OVMax= 3.13D-02

 Cycle  13  Pass 1  IDiag  1:
 RMSU=  2.16D-05    CP:  9.66D-01  1.99D+00  2.38D-01  2.38D-01  5.95D-01
                    CP:  1.52D+00  1.54D+00  2.43D+00  3.00D+00  2.36D+00
                    CP:  1.43D+00  6.26D-01
 E= -881.658810667640     Delta-E=       -0.000067390965 Rises=F Damp=F
 DIIS: error= 1.68D-04 at cycle  13 NSaved=  13.
 NSaved=13 IEnMin=13 EnMin= -881.658810667640     IErMin=13 ErrMin= 1.68D-04
 ErrMax= 1.68D-04  0.00D+00 EMaxC= 1.00D-01 BMatC= 1.74D-05 BMatP= 1.26D-04
 IDIUse=3 WtCom= 9.98D-01 WtEn= 1.68D-03
 Coeff-Com:  0.746D-03-0.103D-02-0.600D-03-0.121D-03-0.135D-02 0.443D-02
 Coeff-Com:  0.754D-01 0.215D+00 0.567D-02-0.419D+00-0.125D-01 0.302D+00
 Coeff-Com:  0.830D+00
 Coeff-En:   0.000D+00 0.000D+00 0.000D+00 0.000D+00 0.000D+00 0.000D+00
 Coeff-En:   0.000D+00 0.000D+00 0.000D+00 0.000D+00 0.000D+00 0.000D+00
 Coeff-En:   0.100D+01
 Coeff:      0.745D-03-0.102D-02-0.599D-03-0.121D-03-0.135D-02 0.443D-02
 Coeff:      0.753D-01 0.215D+00 0.566D-02-0.418D+00-0.125D-01 0.302D+00
 Coeff:      0.831D+00
 Gap=     0.115 Goal=   None    Shift=    0.000
 Gap=     0.033 Goal=   None    Shift=    0.000
 RMSDP=1.10D-05 MaxDP=7.58D-04 DE=-6.74D-05 OVMax= 3.35D-03

 Cycle  14  Pass 1  IDiag  1:
 RMSU=  4.88D-06    CP:  9.66D-01  1.99D+00  2.36D-01  2.40D-01  5.95D-01
                    CP:  1.51D+00  1.54D+00  2.40D+00  3.00D+00  2.51D+00
                    CP:  1.51D+00  7.43D-01  1.18D+00
 E= -881.658816338054     Delta-E=       -0.000005670415 Rises=F Damp=F
 DIIS: error= 4.84D-05 at cycle  14 NSaved=  14.
 NSaved=14 IEnMin=14 EnMin= -881.658816338054     IErMin=14 ErrMin= 4.84D-05
 ErrMax= 4.84D-05  0.00D+00 EMaxC= 1.00D-01 BMatC= 2.85D-06 BMatP= 1.74D-05
 IDIUse=1 WtCom= 1.00D+00 WtEn= 0.00D+00
 Coeff-Com:  0.202D-02-0.258D-02 0.103D-03 0.753D-03-0.326D-02-0.174D-02
 Coeff-Com:  0.242D-01 0.829D-01 0.186D-02-0.148D+00-0.630D-01 0.686D-01
 Coeff-Com:  0.486D+00 0.552D+00
 Coeff:      0.202D-02-0.258D-02 0.103D-03 0.753D-03-0.326D-02-0.174D-02
 Coeff:      0.242D-01 0.829D-01 0.186D-02-0.148D+00-0.630D-01 0.686D-01
 Coeff:      0.486D+00 0.552D+00
 Gap=     0.116 Goal=   None    Shift=    0.000
 Gap=     0.034 Goal=   None    Shift=    0.000
 RMSDP=6.02D-06 MaxDP=4.32D-04 DE=-5.67D-06 OVMax= 2.26D-03

 Cycle  15  Pass 1  IDiag  1:
 RMSU=  2.86D-06    CP:  9.66D-01  1.99D+00  2.37D-01  2.40D-01  5.93D-01
                    CP:  1.52D+00  1.55D+00  2.42D+00  3.00D+00  2.51D+00
                    CP:  1.55D+00  7.50D-01  1.16D+00  8.86D-01
 E= -881.658818338797     Delta-E=       -0.000002000743 Rises=F Damp=F
 DIIS: error= 2.28D-05 at cycle  15 NSaved=  15.
 NSaved=15 IEnMin=15 EnMin= -881.658818338797     IErMin=15 ErrMin= 2.28D-05
 ErrMax= 2.28D-05  0.00D+00 EMaxC= 1.00D-01 BMatC= 4.57D-07 BMatP= 2.85D-06
 IDIUse=1 WtCom= 1.00D+00 WtEn= 0.00D+00
 Coeff-Com:  0.851D-03-0.105D-02 0.378D-03 0.414D-03-0.133D-02-0.202D-02
 Coeff-Com:  0.186D-02 0.141D-01 0.139D-01-0.416D-01-0.154D-01-0.183D-01
 Coeff-Com:  0.829D-02 0.190D+00 0.850D+00
 Coeff:      0.851D-03-0.105D-02 0.378D-03 0.414D-03-0.133D-02-0.202D-02
 Coeff:      0.186D-02 0.141D-01 0.139D-01-0.416D-01-0.154D-01-0.183D-01
 Coeff:      0.829D-02 0.190D+00 0.850D+00
 Gap=     0.116 Goal=   None    Shift=    0.000
 Gap=     0.034 Goal=   None    Shift=    0.000
 RMSDP=5.45D-06 MaxDP=3.61D-04 DE=-2.00D-06 OVMax= 2.00D-03

 Cycle  16  Pass 1  IDiag  1:
 RMSU=  1.43D-06    CP:  9.66D-01  1.98D+00  2.37D-01  2.40D-01  5.91D-01
                    CP:  1.52D+00  1.55D+00  2.43D+00  3.00D+00  2.49D+00
                    CP:  1.58D+00  7.75D-01  1.15D+00  1.13D+00  1.34D+00
 E= -881.658819177313     Delta-E=       -0.000000838516 Rises=F Damp=F
 DIIS: error= 3.02D-05 at cycle  16 NSaved=  16.
 NSaved=16 IEnMin=16 EnMin= -881.658819177313     IErMin=15 ErrMin= 2.28D-05
 ErrMax= 3.02D-05  0.00D+00 EMaxC= 1.00D-01 BMatC= 4.72D-07 BMatP= 4.57D-07
 IDIUse=1 WtCom= 1.00D+00 WtEn= 0.00D+00
 Coeff-Com: -0.343D-03 0.451D-03 0.279D-03-0.358D-04 0.722D-03-0.548D-03
 Coeff-Com: -0.110D-02-0.560D-03 0.264D-01-0.401D-01 0.201D-01-0.161D-01
 Coeff-Com: -0.166D+00-0.152D+00 0.489D+00 0.840D+00
 Coeff:     -0.343D-03 0.451D-03 0.279D-03-0.358D-04 0.722D-03-0.548D-03
 Coeff:     -0.110D-02-0.560D-03 0.264D-01-0.401D-01 0.201D-01-0.161D-01
 Coeff:     -0.166D+00-0.152D+00 0.489D+00 0.840D+00
 Gap=     0.117 Goal=   None    Shift=    0.000
 Gap=     0.034 Goal=   None    Shift=    0.000
 RMSDP=4.59D-06 MaxDP=2.93D-04 DE=-8.39D-07 OVMax= 1.39D-03

 Cycle  17  Pass 1  IDiag  1:
 RMSU=  8.48D-07    CP:  9.66D-01  1.98D+00  2.38D-01  2.41D-01  5.89D-01
                    CP:  1.51D+00  1.55D+00  2.45D+00  3.00D+00  2.50D+00
                    CP:  1.61D+00  8.07D-01  1.16D+00  1.25D+00  1.69D+00
                    CP:  1.15D+00
 E= -881.658819610726     Delta-E=       -0.000000433413 Rises=F Damp=F
 DIIS: error= 5.13D-06 at cycle  17 NSaved=  17.
 NSaved=17 IEnMin=17 EnMin= -881.658819610726     IErMin=17 ErrMin= 5.13D-06
 ErrMax= 5.13D-06  0.00D+00 EMaxC= 1.00D-01 BMatC= 3.33D-08 BMatP= 4.57D-07
 IDIUse=1 WtCom= 1.00D+00 WtEn= 0.00D+00
 Coeff-Com: -0.161D-03 0.204D-03 0.584D-04-0.785D-05 0.351D-03-0.162D-03
 Coeff-Com:  0.124D-02 0.285D-02 0.123D-01-0.260D-01 0.117D-01-0.334D-03
 Coeff-Com: -0.550D-01-0.885D-01 0.692D-01 0.371D+00 0.702D+00
 Coeff:     -0.161D-03 0.204D-03 0.584D-04-0.785D-05 0.351D-03-0.162D-03
 Coeff:      0.124D-02 0.285D-02 0.123D-01-0.260D-01 0.117D-01-0.334D-03
 Coeff:     -0.550D-01-0.885D-01 0.692D-01 0.371D+00 0.702D+00
 Gap=     0.117 Goal=   None    Shift=    0.000
 Gap=     0.034 Goal=   None    Shift=    0.000
 RMSDP=1.62D-06 MaxDP=1.03D-04 DE=-4.33D-07 OVMax= 6.14D-04

 Cycle  18  Pass 1  IDiag  1:
 RMSU=  3.01D-07    CP:  9.66D-01  1.98D+00  2.38D-01  2.41D-01  5.88D-01
                    CP:  1.51D+00  1.55D+00  2.45D+00  3.00D+00  2.49D+00
                    CP:  1.62D+00  8.12D-01  1.15D+00  1.27D+00  1.77D+00
                    CP:  1.33D+00  1.08D+00
 E= -881.658819653002     Delta-E=       -0.000000042276 Rises=F Damp=F
 DIIS: error= 4.29D-06 at cycle  18 NSaved=  18.
 NSaved=18 IEnMin=18 EnMin= -881.658819653002     IErMin=18 ErrMin= 4.29D-06
 ErrMax= 4.29D-06  0.00D+00 EMaxC= 1.00D-01 BMatC= 1.49D-08 BMatP= 3.33D-08
 IDIUse=1 WtCom= 1.00D+00 WtEn= 0.00D+00
 Coeff-Com:  0.311D-04-0.375D-04-0.406D-04 0.343D-04-0.575D-04-0.639D-04
 Coeff-Com:  0.945D-03 0.101D-02-0.968D-03-0.244D-02 0.907D-03 0.182D-02
 Coeff-Com:  0.148D-01-0.196D-02-0.911D-01-0.257D-01 0.357D+00 0.746D+00
 Coeff:      0.311D-04-0.375D-04-0.406D-04 0.343D-04-0.575D-04-0.639D-04
 Coeff:      0.945D-03 0.101D-02-0.968D-03-0.244D-02 0.907D-03 0.182D-02
 Coeff:      0.148D-01-0.196D-02-0.911D-01-0.257D-01 0.357D+00 0.746D+00
 Gap=     0.117 Goal=   None    Shift=    0.000
 Gap=     0.034 Goal=   None    Shift=    0.000
 RMSDP=9.48D-07 MaxDP=5.79D-05 DE=-4.23D-08 OVMax= 3.65D-04

 Cycle  19  Pass 1  IDiag  1:
 RMSU=  1.90D-07    CP:  9.66D-01  1.98D+00  2.38D-01  2.41D-01  5.88D-01
                    CP:  1.51D+00  1.55D+00  2.46D+00  3.00D+00  2.48D+00
                    CP:  1.62D+00  8.14D-01  1.15D+00  1.27D+00  1.81D+00
                    CP:  1.41D+00  1.25D+00  1.10D+00
 E= -881.658819660059     Delta-E=       -0.000000007057 Rises=F Damp=F
 DIIS: error= 4.91D-06 at cycle  19 NSaved=  19.
 NSaved=19 IEnMin=19 EnMin= -881.658819660059     IErMin=18 ErrMin= 4.29D-06
 ErrMax= 4.91D-06  0.00D+00 EMaxC= 1.00D-01 BMatC= 1.63D-08 BMatP= 1.49D-08
 IDIUse=1 WtCom= 1.00D+00 WtEn= 0.00D+00
 Coeff-Com:  0.445D-05-0.276D-05-0.166D-04-0.187D-05-0.448D-04 0.575D-04
 Coeff-Com: -0.463D-03-0.140D-02-0.417D-02 0.818D-02-0.448D-02-0.158D-02
 Coeff-Com:  0.177D-01 0.351D-01-0.279D-01-0.119D+00-0.135D+00 0.225D+00
 Coeff-Com:  0.101D+01
 Coeff:      0.445D-05-0.276D-05-0.166D-04-0.187D-05-0.448D-04 0.575D-04
 Coeff:     -0.463D-03-0.140D-02-0.417D-02 0.818D-02-0.448D-02-0.158D-02
 Coeff:      0.177D-01 0.351D-01-0.279D-01-0.119D+00-0.135D+00 0.225D+00
 Coeff:      0.101D+01
 Gap=     0.117 Goal=   None    Shift=    0.000
 Gap=     0.034 Goal=   None    Shift=    0.000
 RMSDP=3.13D-07 MaxDP=1.47D-05 DE=-7.06D-09 OVMax= 4.32D-05

 Cycle  20  Pass 1  IDiag  1:
 RMSU=  9.72D-08    CP:  9.66D-01  1.98D+00  2.38D-01  2.41D-01  5.87D-01
                    CP:  1.51D+00  1.55D+00  2.46D+00  3.00D+00  2.49D+00
                    CP:  1.63D+00  8.17D-01  1.15D+00  1.28D+00  1.82D+00
                    CP:  1.46D+00  1.36D+00  1.46D+00  1.33D+00
 E= -881.658819666084     Delta-E=       -0.000000006025 Rises=F Damp=F
 DIIS: error= 9.83D-07 at cycle  20 NSaved=  20.
 NSaved=20 IEnMin=20 EnMin= -881.658819666084     IErMin=20 ErrMin= 9.83D-07
 ErrMax= 9.83D-07  0.00D+00 EMaxC= 1.00D-01 BMatC= 1.15D-09 BMatP= 1.49D-08
 IDIUse=1 WtCom= 1.00D+00 WtEn= 0.00D+00
 Coeff-Com: -0.200D-04 0.249D-04 0.844D-05-0.199D-04 0.178D-04 0.752D-04
 Coeff-Com: -0.840D-03-0.179D-02-0.221D-02 0.710D-02-0.324D-02-0.260D-02
 Coeff-Com:  0.180D-02 0.222D-01 0.245D-01-0.562D-01-0.206D+00-0.134D+00
 Coeff-Com:  0.575D+00 0.776D+00
 Coeff:     -0.200D-04 0.249D-04 0.844D-05-0.199D-04 0.178D-04 0.752D-04
 Coeff:     -0.840D-03-0.179D-02-0.221D-02 0.710D-02-0.324D-02-0.260D-02
 Coeff:      0.180D-02 0.222D-01 0.245D-01-0.562D-01-0.206D+00-0.134D+00
 Coeff:      0.575D+00 0.776D+00
 Gap=     0.117 Goal=   None    Shift=    0.000
 Gap=     0.034 Goal=   None    Shift=    0.000
 RMSDP=1.98D-07 MaxDP=1.40D-05 DE=-6.02D-09 OVMax= 6.94D-05

 Cycle  21  Pass 1  IDiag  1:
 Restarting incremental Fock formation.
 E= -881.658819667025     Delta-E=       -0.000000000941 Rises=F Damp=F
 DIIS: error= 1.84D-06 at cycle  21 NSaved=  20.
 NSaved=20 IEnMin=20 EnMin= -881.658819667025     IErMin=19 ErrMin= 9.83D-07
 ErrMax= 1.84D-06  0.00D+00 EMaxC= 1.00D-01 BMatC= 1.57D-09 BMatP= 1.15D-09
 IDIUse=1 WtCom= 1.00D+00 WtEn= 0.00D+00
 Coeff-Com: -0.115D-05 0.532D-05-0.709D-05 0.466D-05 0.198D-04-0.274D-03
 Coeff-Com: -0.618D-03-0.130D-03 0.203D-02-0.128D-03-0.819D-03-0.422D-02
 Coeff-Com: -0.996D-03 0.135D-01 0.713D-02-0.356D-01-0.966D-01-0.376D-01
 Coeff-Com:  0.291D+00 0.864D+00
 Coeff:     -0.115D-05 0.532D-05-0.709D-05 0.466D-05 0.198D-04-0.274D-03
 Coeff:     -0.618D-03-0.130D-03 0.203D-02-0.128D-03-0.819D-03-0.422D-02
 Coeff:     -0.996D-03 0.135D-01 0.713D-02-0.356D-01-0.966D-01-0.376D-01
 Coeff:      0.291D+00 0.864D+00
 Gap=     0.117 Goal=   None    Shift=    0.000
 Gap=     0.034 Goal=   None    Shift=    0.000
 RMSDP=1.62D-07 MaxDP=9.53D-06 DE=-9.41D-10 OVMax= 4.78D-05

 Cycle  22  Pass 1  IDiag  1:
 RMSU=  1.62D-07    CP:  1.00D+00
 E= -881.658819667589     Delta-E=       -0.000000000564 Rises=F Damp=F
 DIIS: error= 6.64D-07 at cycle  22 NSaved=  20.
 NSaved=20 IEnMin=20 EnMin= -881.658819667589     IErMin=20 ErrMin= 6.64D-07
 ErrMax= 6.64D-07  0.00D+00 EMaxC= 1.00D-01 BMatC= 2.50D-10 BMatP= 1.15D-09
 IDIUse=1 WtCom= 1.00D+00 WtEn= 0.00D+00
 Coeff-Com:  0.747D-06 0.216D-05 0.338D-05-0.441D-05-0.211D-04-0.290D-04
 Coeff-Com:  0.316D-03-0.511D-04 0.519D-03 0.839D-04-0.248D-02-0.491D-02
 Coeff-Com:  0.199D-02 0.137D-01 0.162D-01-0.275D-01-0.102D+00 0.484D-02
 Coeff-Com:  0.397D+00 0.703D+00
 Coeff:      0.747D-06 0.216D-05 0.338D-05-0.441D-05-0.211D-04-0.290D-04
 Coeff:      0.316D-03-0.511D-04 0.519D-03 0.839D-04-0.248D-02-0.491D-02
 Coeff:      0.199D-02 0.137D-01 0.162D-01-0.275D-01-0.102D+00 0.484D-02
 Coeff:      0.397D+00 0.703D+00
 Gap=     0.117 Goal=   None    Shift=    0.000
 Gap=     0.034 Goal=   None    Shift=    0.000
 RMSDP=4.26D-08 MaxDP=2.34D-06 DE=-5.64D-10 OVMax= 9.06D-06

 Cycle  23  Pass 1  IDiag  1:
 RMSU=  1.69D-08    CP:  1.00D+00  1.24D+00
 E= -881.658819667653     Delta-E=       -0.000000000065 Rises=F Damp=F
 DIIS: error= 1.04D-07 at cycle  23 NSaved=  20.
 NSaved=20 IEnMin=20 EnMin= -881.658819667653     IErMin=20 ErrMin= 1.04D-07
 ErrMax= 1.04D-07  0.00D+00 EMaxC= 1.00D-01 BMatC= 1.89D-11 BMatP= 2.50D-10
 IDIUse=1 WtCom= 1.00D+00 WtEn= 0.00D+00
 Coeff-Com:  0.989D-07-0.761D-06-0.528D-05 0.625D-04 0.196D-03 0.181D-03
 Coeff-Com: -0.636D-03 0.232D-03 0.305D-03-0.102D-03-0.197D-02-0.127D-02
 Coeff-Com:  0.460D-02 0.855D-02 0.230D-03-0.191D-01-0.475D-01-0.412D-01
 Coeff-Com:  0.296D+00 0.802D+00
 Coeff:      0.989D-07-0.761D-06-0.528D-05 0.625D-04 0.196D-03 0.181D-03
 Coeff:     -0.636D-03 0.232D-03 0.305D-03-0.102D-03-0.197D-02-0.127D-02
 Coeff:      0.460D-02 0.855D-02 0.230D-03-0.191D-01-0.475D-01-0.412D-01
 Coeff:      0.296D+00 0.802D+00
 Gap=     0.117 Goal=   None    Shift=    0.000
 Gap=     0.034 Goal=   None    Shift=    0.000
 RMSDP=1.74D-08 MaxDP=9.25D-07 DE=-6.46D-11 OVMax= 6.46D-06

 Cycle  24  Pass 1  IDiag  1:
 RMSU=  1.38D-08    CP:  1.00D+00  1.18D+00  1.22D+00
 E= -881.658819667669     Delta-E=       -0.000000000016 Rises=F Damp=F
 DIIS: error= 2.47D-08 at cycle  24 NSaved=  20.
 NSaved=20 IEnMin=20 EnMin= -881.658819667669     IErMin=20 ErrMin= 2.47D-08
 ErrMax= 2.47D-08  0.00D+00 EMaxC= 1.00D-01 BMatC= 1.89D-12 BMatP= 1.89D-11
 IDIUse=1 WtCom= 1.00D+00 WtEn= 0.00D+00
 Coeff-Com: -0.915D-06-0.189D-05 0.268D-04 0.972D-04 0.504D-04-0.314D-03
 Coeff-Com:  0.752D-05 0.115D-03 0.321D-03-0.452D-04-0.438D-03 0.209D-04
 Coeff-Com: -0.115D-02 0.143D-02 0.121D-01-0.131D-01-0.814D-01-0.489D-02
 Coeff-Com:  0.324D+00 0.764D+00
 Coeff:     -0.915D-06-0.189D-05 0.268D-04 0.972D-04 0.504D-04-0.314D-03
 Coeff:      0.752D-05 0.115D-03 0.321D-03-0.452D-04-0.438D-03 0.209D-04
 Coeff:     -0.115D-02 0.143D-02 0.121D-01-0.131D-01-0.814D-01-0.489D-02
 Coeff:      0.324D+00 0.764D+00
 Gap=     0.117 Goal=   None    Shift=    0.000
 Gap=     0.034 Goal=   None    Shift=    0.000
 RMSDP=1.37D-08 MaxDP=7.82D-07 DE=-1.59D-11 OVMax= 5.16D-06

 Cycle  25  Pass 1  IDiag  1:
 RMSU=  3.51D-09    CP:  1.00D+00  1.11D+00  1.38D+00  1.43D+00
 E= -881.658819667668     Delta-E=        0.000000000002 Rises=F Damp=F
 DIIS: error= 1.10D-08 at cycle  25 NSaved=  20.
 NSaved=20 IEnMin=19 EnMin= -881.658819667669     IErMin=20 ErrMin= 1.10D-08
 ErrMax= 1.10D-08  0.00D+00 EMaxC= 1.00D-01 BMatC= 4.52D-13 BMatP= 1.89D-12
 IDIUse=1 WtCom= 1.00D+00 WtEn= 0.00D+00
 Coeff-Com:  0.182D-06 0.123D-05 0.116D-04 0.342D-05-0.587D-04-0.269D-04
 Coeff-Com:  0.600D-05 0.143D-03 0.298D-03 0.277D-04-0.622D-03-0.197D-02
 Coeff-Com:  0.747D-03 0.850D-02 0.291D-02-0.316D-01-0.643D-01-0.685D-02
 Coeff-Com:  0.379D+00 0.713D+00
 Coeff:      0.182D-06 0.123D-05 0.116D-04 0.342D-05-0.587D-04-0.269D-04
 Coeff:      0.600D-05 0.143D-03 0.298D-03 0.277D-04-0.622D-03-0.197D-02
 Coeff:      0.747D-03 0.850D-02 0.291D-02-0.316D-01-0.643D-01-0.685D-02
 Coeff:      0.379D+00 0.713D+00
 Gap=     0.117 Goal=   None    Shift=    0.000
 Gap=     0.034 Goal=   None    Shift=    0.000
 RMSDP=6.95D-09 MaxDP=3.95D-07 DE= 1.59D-12 OVMax= 2.71D-06

 Error on total polarization charges =  0.01007
 SCF Done:  E(UB3LYP) =  -881.658819668     A.U. after   25 cycles
            NFock= 25  Conv=0.70D-08     -V/T= 2.0096
 <Sx>= 0.0000 <Sy>= 0.0000 <Sz>= 0.0000 <S**2>= 0.4882 S= 0.3592
 <L.S>=  0.00000000000    
 KE= 8.733042048626D+02 PE=-5.200713800021D+03 EE= 1.870477023536D+03
 Annihilation of the first spin contaminant:
 S**2 before annihilation     0.4882,   after     0.0120
 Leave Link  502 at Tue Jun 11 20:48:38 2019, MaxMem=   104857600 cpu:            2222.7 elap:              56.7
 (Enter /project/6004141/group/g16/g16/l801.exe)
 DoSCS=F DFT=T ScalE2(SS,OS)=  1.000000  1.000000
 Range of M.O.s used for correlation:     1   400
 NBasis=   400 NAE=    73 NBE=    73 NFC=     0 NFV=     0
 NROrb=    400 NOA=    73 NOB=    73 NVA=   327 NVB=   327

[...]
    24  C(13)              0.00515       2.89430       1.03276       0.96544
    25  H(1)               0.00092       2.05262       0.73243       0.68468
    26  C(13)             -0.00777      -4.36908      -1.55900      -1.45737
    27  H(1)              -0.00042      -0.94150      -0.33595      -0.31405
    28  H(1)              -0.00041      -0.91572      -0.32675      -0.30545
    29  H(1)               0.00107       2.39994       0.85636       0.80053
    30  C(13)             -0.00123      -0.69294      -0.24726      -0.23114
    31  C(13)             -0.00165      -0.92820      -0.33121      -0.30962
    32  C(13)             -0.00184      -1.03611      -0.36971      -0.34561
    33  C(13)              0.00113       0.63530       0.22669       0.21191
    34  H(1)               0.00023       0.51223       0.18278       0.17086
    35  C(13)              0.00118       0.66585       0.23759       0.22210
    36  H(1)               0.00011       0.24297       0.08670       0.08105
    37  C(13)             -0.00192      -1.07995      -0.38535      -0.36023
    38  H(1)              -0.00012      -0.25944      -0.09257      -0.08654
    39  H(1)              -0.00011      -0.23614      -0.08426      -0.07877
    40  H(1)               0.00026       0.59054       0.21072       0.19698
 --------------------------------------------------------
       Center         ----  Spin Dipole Couplings  ----
                      3XX-RR        3YY-RR        3ZZ-RR
 --------------------------------------------------------
     1   Atom        0.051771      0.047842     -0.099613
     2   Atom        0.023019     -0.019096     -0.003924
     3   Atom       -0.000063      0.013852     -0.013789
     4   Atom       -0.006815      0.132523     -0.125708
     5   Atom        0.109674      0.080154     -0.189828
     6   Atom       -0.046194      0.110778     -0.064585
     7   Atom        0.004227     -0.011811      0.007584
     8   Atom       -0.205877      0.396715     -0.190838
     9   Atom       -0.004845     -0.000804      0.005649
    10   Atom        0.002112      0.006232     -0.008344
    11   Atom        0.009800      0.002047     -0.011847
    12   Atom        0.001996     -0.002575      0.000579
    13   Atom        0.002007      0.000553     -0.002560
    14   Atom        0.002730      0.000734     -0.003464
    15   Atom        0.009551      0.000244     -0.009796
    16   Atom        0.002831      0.000563     -0.003394
    17   Atom        0.002178      0.001399     -0.003578
    18   Atom        0.006195     -0.002671     -0.003523
    19   Atom       -0.018783     -0.007666      0.026449
    20   Atom        0.024024      0.018343     -0.042367
    21   Atom        0.021575      0.018415     -0.039991
    22   Atom       -0.010670     -0.006258      0.016928
    23   Atom        0.000001     -0.001642      0.001641
    24   Atom       -0.009422     -0.007153      0.016574
    25   Atom        0.001675     -0.003136      0.001461
    26   Atom        0.022557      0.019386     -0.041943
    27   Atom       -0.001058      0.000369      0.000689
    28   Atom       -0.000184     -0.000254      0.000438
    29   Atom       -0.002412      0.003259     -0.000848
    30   Atom        0.004205     -0.011648      0.007444
    31   Atom        0.002591      0.005091     -0.007682
    32   Atom        0.001061      0.006459     -0.007519
    33   Atom       -0.000197     -0.003244      0.003440
    34   Atom        0.000534     -0.001411      0.000877
    35   Atom        0.000195     -0.003817      0.003622
    36   Atom        0.000721      0.000082     -0.000803
    37   Atom        0.001189      0.006064     -0.007252
    38   Atom        0.000099     -0.000526      0.000427
    39   Atom        0.000447     -0.000635      0.000188
    40   Atom        0.000479     -0.001131      0.000652
 --------------------------------------------------------
                        XY            XZ            YZ
 --------------------------------------------------------
     1   Atom        0.093790     -0.146577      0.151059
     2   Atom       -0.004051     -0.037813     -0.016866
     3   Atom        0.017293     -0.022252      0.022175
     4   Atom        0.148648     -0.290748      0.183357
     5   Atom        0.001723     -0.001306      0.074537
     6   Atom       -0.225887      0.136875     -0.185291
     7   Atom       -0.006343     -0.019023     -0.003563
     8   Atom       -0.450223      0.232064     -0.461937
     9   Atom        0.004377      0.006050      0.004757
    10   Atom        0.006539      0.006463     -0.001679
    11   Atom       -0.000448     -0.001150     -0.012901
    12   Atom       -0.002153     -0.001651     -0.002770
    13   Atom        0.002564      0.001361     -0.003396
    14   Atom        0.000578     -0.001509     -0.000916
    15   Atom        0.001276     -0.001418     -0.010118
    16   Atom        0.002620     -0.002814     -0.001214
    17   Atom        0.001497      0.000524     -0.000974
    18   Atom        0.000029     -0.002376     -0.002584
    19   Atom       -0.000331      0.017509     -0.019041
    20   Atom        0.010689     -0.022941      0.029522
    21   Atom        0.010790     -0.024015      0.030602
    22   Atom       -0.005122      0.013035     -0.013956
    23   Atom       -0.002463     -0.000562     -0.000451
    24   Atom       -0.004006      0.012695     -0.014963
    25   Atom       -0.000634     -0.001079     -0.001164
    26   Atom        0.015718     -0.029706      0.036429
    27   Atom       -0.000207      0.000965     -0.000207
    28   Atom        0.000822      0.000850     -0.000980
    29   Atom        0.003352      0.002724      0.000114
    30   Atom       -0.003561      0.006382      0.002867
    31   Atom        0.001782     -0.009444      0.002713
    32   Atom        0.001474     -0.009685      0.003676
    33   Atom       -0.001771      0.004025     -0.001866
    34   Atom        0.001106      0.000585     -0.000100
    35   Atom       -0.001864      0.004634     -0.001829
    36   Atom        0.001026      0.000903      0.001097
    37   Atom        0.003958     -0.011808      0.006437
    38   Atom        0.000000      0.000242      0.000120
    39   Atom       -0.000213      0.000270      0.000224
    40   Atom       -0.000948     -0.000465      0.000423
 --------------------------------------------------------


 ---------------------------------------------------------------------------------
              Anisotropic Spin Dipole Couplings in Principal Axis System
 ---------------------------------------------------------------------------------

       Atom             a.u.   MegaHertz   Gauss  10(-4) cm-1        Axes

              Baa    -0.2841   -38.126   -13.604   -12.718  0.4600 -0.4722  0.7520
     1 C(13)  Bbb     0.1404    18.837     6.722     6.283  0.6541 -0.3925 -0.6466
              Bcc     0.1437    19.289     6.883     6.434  0.6005  0.7893  0.1283
 
              Baa    -0.0421   -22.466    -8.016    -7.494  0.4355  0.5808  0.6878
     2 H(1)   Bbb    -0.0082    -4.377    -1.562    -1.460 -0.4085  0.8083 -0.4239
              Bcc     0.0503    26.843     9.578     8.954  0.8022  0.0964 -0.5893
 
              Baa    -0.0439    -5.891    -2.102    -1.965  0.5383 -0.4377  0.7202
     3 C(13)  Bbb     0.0163     2.190     0.782     0.731  0.7847 -0.0513 -0.6177
              Bcc     0.0276     3.700     1.320     1.234  0.3073  0.8976  0.3159
 
              Baa    -0.4575    33.101    11.811    11.041  0.5868 -0.3715  0.7195
     4 O(17)  Bbb     0.2268   -16.412    -5.856    -5.475  0.3807  0.9108  0.1598
              Bcc     0.2306   -16.689    -5.955    -5.567  0.7147 -0.1802 -0.6758
 
              Baa    -0.2090    15.127     5.398     5.046  0.0053 -0.2496  0.9683
     5 O(17)  Bbb     0.0992    -7.178    -2.561    -2.394 -0.1269  0.9603  0.2482
              Bcc     0.1099    -7.949    -2.836    -2.652  0.9919  0.1242  0.0266
 
              Baa    -0.2074    -7.998    -2.854    -2.668  0.8424  0.5233 -0.1285
     6 N(14)  Bbb    -0.1811    -6.986    -2.493    -2.330 -0.1440  0.4485  0.8821
              Bcc     0.3885    14.984     5.347     4.998 -0.5192  0.7246 -0.4532
 
              Baa    -0.0196   -10.483    -3.740    -3.497  0.5618  0.6733  0.4806
     7 H(1)   Bbb    -0.0054    -2.899    -1.034    -0.967 -0.4698  0.7379 -0.4846
              Bcc     0.0251    13.381     4.775     4.463 -0.6809  0.0465  0.7309
 
              Baa    -0.4549   -17.544    -6.260    -5.852  0.5921  0.6030  0.5346
     8 N(14)  Bbb    -0.4305   -16.602    -5.924    -5.538 -0.6872  0.0313  0.7258
              Bcc     0.8854    34.146    12.184    11.390 -0.4209  0.7971 -0.4329
 
              Baa    -0.0084    -4.463    -1.593    -1.489  0.8973 -0.3506 -0.2683
     9 H(1)   Bbb    -0.0032    -1.687    -0.602    -0.563  0.1560  0.8204 -0.5501
              Bcc     0.0115     6.150     2.194     2.051  0.4130  0.4517  0.7908
 
              Baa    -0.0125    -6.679    -2.383    -2.228 -0.4808  0.2431  0.8424
    10 H(1)   Bbb     0.0011     0.604     0.215     0.201  0.6045 -0.6040  0.5194
              Bcc     0.0114     6.075     2.168     2.026  0.6351  0.7590  0.1435
 
              Baa    -0.0196    -2.630    -0.939    -0.877  0.0414  0.5121  0.8579
    11 C(13)  Bbb     0.0096     1.287     0.459     0.429 -0.6189  0.6872 -0.3803
              Bcc     0.0100     1.344     0.479     0.448  0.7844  0.5153 -0.3454
 
              Baa    -0.0052    -2.772    -0.989    -0.925  0.3512  0.8011  0.4847
    12 H(1)   Bbb     0.0021     1.109     0.396     0.370  0.3033 -0.5871  0.7505
              Bcc     0.0031     1.663     0.593     0.555  0.8858 -0.1166 -0.4492
 
              Baa    -0.0056    -2.992    -1.068    -0.998 -0.3241  0.5566  0.7650
    13 H(1)   Bbb     0.0015     0.776     0.277     0.259  0.6444 -0.4621  0.6092
              Bcc     0.0042     2.216     0.791     0.739  0.6926  0.6904 -0.2089
 
              Baa    -0.0039    -2.101    -0.750    -0.701  0.2042  0.1640  0.9651
    14 H(1)   Bbb     0.0006     0.333     0.119     0.111 -0.3238  0.9417 -0.0915
              Bcc     0.0033     1.769     0.631     0.590  0.9238  0.2938 -0.2454
 
              Baa    -0.0161    -2.158    -0.770    -0.720  0.0209  0.5255  0.8505
    15 C(13)  Bbb     0.0057     0.759     0.271     0.253 -0.4247  0.7748 -0.4683
              Bcc     0.0104     1.399     0.499     0.466  0.9051  0.3514 -0.2394
 
              Baa    -0.0045    -2.394    -0.854    -0.799  0.3438  0.0471  0.9379
    16 H(1)   Bbb    -0.0011    -0.579    -0.207    -0.193 -0.4829  0.8655  0.1335
              Bcc     0.0056     2.973     1.061     0.992  0.8054  0.4988 -0.3203
 
              Baa    -0.0039    -2.066    -0.737    -0.689 -0.1375  0.2176  0.9663
    17 H(1)   Bbb     0.0005     0.283     0.101     0.094 -0.6043  0.7545 -0.2559
              Bcc     0.0033     1.782     0.636     0.595  0.7848  0.6191 -0.0277
 
              Baa    -0.0060    -3.196    -1.140    -1.066  0.1508  0.6065  0.7806
    18 H(1)   Bbb    -0.0008    -0.425    -0.152    -0.142 -0.1994  0.7921 -0.5769
              Bcc     0.0068     3.621     1.292     1.208  0.9683  0.0687 -0.2403
 
              Baa    -0.0272    -3.651    -1.303    -1.218  0.8300 -0.3820 -0.4064
    19 C(13)  Bbb    -0.0123    -1.647    -0.588    -0.550  0.4880  0.8502  0.1974
              Bcc     0.0395     5.298     1.890     1.767  0.2701 -0.3622  0.8921
 
              Baa    -0.0618    -8.293    -2.959    -2.766  0.2826 -0.3645  0.8873
    20 C(13)  Bbb     0.0296     3.966     1.415     1.323 -0.5148  0.7228  0.4609
              Bcc     0.0322     4.327     1.544     1.443  0.8094  0.5870 -0.0166
 
              Baa    -0.0614    -8.244    -2.942    -2.750  0.3023 -0.3765  0.8757
    21 C(13)  Bbb     0.0298     4.000     1.427     1.334  0.9218 -0.1184 -0.3691
              Bcc     0.0316     4.245     1.515     1.416  0.2426  0.9188  0.3112
 
              Baa    -0.0159    -2.133    -0.761    -0.711  0.9086 -0.1032 -0.4047
    22 C(13)  Bbb    -0.0126    -1.688    -0.602    -0.563  0.2476  0.9135  0.3227
              Bcc     0.0285     3.821     1.363     1.274  0.3364 -0.3934  0.8556
 
              Baa    -0.0035    -1.873    -0.668    -0.625  0.5834  0.8011  0.1337
    23 H(1)   Bbb     0.0016     0.834     0.298     0.278  0.4810 -0.4735  0.7379
              Bcc     0.0019     1.039     0.371     0.346 -0.6544  0.3661  0.6615
 
              Baa    -0.0160    -2.150    -0.767    -0.717  0.6351 -0.5779 -0.5126
    24 C(13)  Bbb    -0.0124    -1.662    -0.593    -0.554  0.6986  0.7128  0.0620
              Bcc     0.0284     3.812     1.360     1.271  0.3295 -0.3975  0.8564
 
              Baa    -0.0036    -1.900    -0.678    -0.634  0.1681  0.9518  0.2566
    25 H(1)   Bbb     0.0009     0.475     0.169     0.158  0.6785 -0.3006  0.6703
              Bcc     0.0027     1.425     0.509     0.475  0.7151  0.0615 -0.6963
 
              Baa    -0.0709    -9.520    -3.397    -3.176  0.3379 -0.4020  0.8510
    26 C(13)  Bbb     0.0336     4.514     1.611     1.506  0.8069 -0.3417 -0.4818
              Bcc     0.0373     5.006     1.786     1.670  0.4845  0.8495  0.2089
 
              Baa    -0.0015    -0.796    -0.284    -0.266  0.9150  0.0574 -0.3993
    27 H(1)   Bbb     0.0003     0.152     0.054     0.051  0.0749  0.9485  0.3079
              Bcc     0.0012     0.644     0.230     0.215  0.3964 -0.3116  0.8636
 
              Baa    -0.0018    -0.957    -0.342    -0.319 -0.5886  0.6336  0.5021
    28 H(1)   Bbb     0.0006     0.320     0.114     0.107  0.7594  0.6463  0.0746
              Bcc     0.0012     0.638     0.228     0.213  0.2772 -0.4252  0.8616
 
              Baa    -0.0053    -2.841    -1.014    -0.948  0.8152 -0.3119 -0.4880
    29 H(1)   Bbb     0.0002     0.115     0.041     0.038  0.3462 -0.4130  0.8423
              Bcc     0.0051     2.726     0.973     0.909  0.4643  0.8557  0.2287
 
              Baa    -0.0133    -1.786    -0.637    -0.596  0.2684  0.9396 -0.2123
    30 C(13)  Bbb     0.0009     0.121     0.043     0.040  0.7430 -0.3422 -0.5752
              Bcc     0.0124     1.665     0.594     0.555  0.6131  0.0034  0.7900
 
              Baa    -0.0139    -1.859    -0.663    -0.620  0.5046 -0.1687  0.8467
    31 C(13)  Bbb     0.0056     0.757     0.270     0.252  0.0382  0.9841  0.1734
              Bcc     0.0082     1.102     0.393     0.368  0.8625  0.0551 -0.5030
 
              Baa    -0.0145    -1.951    -0.696    -0.651  0.5309 -0.1821  0.8276
    32 C(13)  Bbb     0.0065     0.873     0.312     0.291  0.6318  0.7359 -0.2434
              Bcc     0.0080     1.078     0.385     0.360 -0.5647  0.6521  0.5058
 
              Baa    -0.0041    -0.544    -0.194    -0.182  0.4125  0.9110  0.0053
    33 C(13)  Bbb    -0.0026    -0.353    -0.126    -0.118  0.7367 -0.3301 -0.5902
              Bcc     0.0067     0.897     0.320     0.299  0.5359 -0.2473  0.8073
 
              Baa    -0.0020    -1.041    -0.371    -0.347 -0.4270  0.8962  0.1201
    34 H(1)   Bbb     0.0005     0.258     0.092     0.086 -0.5614 -0.3669  0.7417
              Bcc     0.0015     0.783     0.279     0.261  0.7088  0.2493  0.6599
 
              Baa    -0.0045    -0.610    -0.218    -0.204  0.3639  0.9315  0.0021
    35 C(13)  Bbb    -0.0029    -0.387    -0.138    -0.129  0.7401 -0.2877 -0.6079
              Bcc     0.0074     0.998     0.356     0.333  0.5656 -0.2228  0.7940
 
              Baa    -0.0016    -0.834    -0.298    -0.278 -0.1140 -0.5008  0.8580
    36 H(1)   Bbb    -0.0006    -0.303    -0.108    -0.101  0.7103 -0.6449 -0.2821
              Bcc     0.0021     1.138     0.406     0.379  0.6946  0.5773  0.4293
 
              Baa    -0.0179    -2.408    -0.859    -0.803  0.5452 -0.2998  0.7828
    37 C(13)  Bbb     0.0083     1.110     0.396     0.370  0.4425  0.8961  0.0350
              Bcc     0.0097     1.298     0.463     0.433  0.7120 -0.3273 -0.6212
 
              Baa    -0.0005    -0.289    -0.103    -0.097  0.0508  0.9895 -0.1350
    38 H(1)   Bbb    -0.0000    -0.013    -0.005    -0.004  0.8874 -0.1067 -0.4484
              Bcc     0.0006     0.302     0.108     0.101  0.4581  0.0970  0.8836
 
              Baa    -0.0008    -0.403    -0.144    -0.135  0.2293  0.9303 -0.2864
    39 H(1)   Bbb     0.0001     0.073     0.026     0.024 -0.4566  0.3627  0.8124
              Bcc     0.0006     0.331     0.118     0.110  0.8596 -0.0555  0.5080
 
              Baa    -0.0016    -0.846    -0.302    -0.282  0.3987  0.9127 -0.0895
    40 H(1)   Bbb     0.0002     0.097     0.035     0.032  0.6068 -0.1893  0.7720
              Bcc     0.0014     0.749     0.267     0.250  0.6877 -0.3621 -0.6293
 

 ---------------------------------------------------------------------------------

 No NMR shielding tensors so no spin-rotation constants.
 Leave Link  601 at Tue Jun 11 21:09:41 2019, MaxMem=   104857600 cpu:              24.9 elap:               0.7
 (Enter /project/6004141/group/g16/g16/l9999.exe)
 1\1\GINC-BLG9139\FTS\UB3LYP\6-31G(d,p)\C16H20N2O2\RZK\11-Jun-2019\0\\#
 p opt=(calcfc,ts,noeigentest) ub3lyp/6-31g(d,p) scrf=(iefpcm,solvent=a
 cetonitrile) guess=(mix,always) empiricaldispersion=gd3\\Title Card Re
 quired\\0,1\C,-0.2529762926,-0.743087976,-1.228161053\H,3.0275210368,-
 2.7124762199,1.8213324987\C,1.1486695899,-0.0156576032,0.2264955021\O,
 2.2336014819,-0.3233727246,-0.4365445904\O,0.3899073875,-1.9398529948,
 -1.4668842885\N,3.7081933132,-2.3323382026,0.1299474123\H,4.4433863436
 ,-2.5209401839,-0.5488960829\N,3.8027253128,-3.0188732128,1.2167189983
 \H,1.34530232,-1.7125937945,-1.4616032896\H,3.043280457,-1.4847891178,
 -0.041596727\C,-0.0719165847,0.2541011427,-2.3482557013\H,-0.482557937
 6,1.2357570087,-2.1145358507\H,0.9952739564,0.3751539428,-2.5522437842
 \H,-0.5588975632,-0.12547509,-3.2550283318\C,0.8235308115,-0.918385974
 5,1.4061554553\H,1.5724634745,-0.7495762256,2.1900428207\H,-0.16294333
 43,-0.7502535445,1.8359272392\H,0.8729168833,-1.9604657887,1.080140231
 3\C,-1.5537799948,-0.8970512425,-0.5775163552\C,-1.9103936552,-2.12074
 75234,0.0338782878\C,-2.4740502647,0.172123383,-0.5009784698\C,-3.1251
 163644,-2.2625259372,0.6968989324\H,-1.2205111235,-2.9538251544,-0.025
 8619197\C,-3.6868894848,0.0248951281,0.1672285956\H,-2.2357296497,1.12
 58899351,-0.9554259516\C,-4.0210918841,-1.1904350958,0.7718595284\H,-3
 .3772782251,-3.214093662,1.1562743349\H,-4.3755080081,0.8635100696,0.2
 147987187\H,-4.9683489626,-1.3022711794,1.2906345785\C,0.7986075916,1.
 4302066916,0.326805517\C,1.5606643131,2.3713242659,-0.3905583102\C,-0.
 2814607285,1.8977885923,1.0982740022\C,1.2485527191,3.7277399015,-0.34
 86989387\H,2.4010514238,2.0134709676,-0.9741420765\C,-0.5937191273,3.2
 566408657,1.1384251963\H,-0.8925231955,1.2019292119,1.6599109772\C,0.1
 663880448,4.1783197009,0.41431892\H,1.8517443236,4.4370828281,-0.90848
 03839\H,-1.4341975868,3.5951776419,1.737498586\H,-0.0781738169,5.23588
 61709,0.4478617721\\Version=ES64L-G16RevA.03\State=1-A\HF=-881.659378\
 S2=0.487247\S2-1=0.\S2A=0.012179\RMSD=3.593e-09\RMSF=1.749e-06\Dipole=
 0.0561969,0.2653293,0.2571491\Quadrupole=3.3407611,-1.4623191,-1.87844
 21,-2.6823103,-7.5386415,-1.6218476\PG=C01 [X(C16H20N2O2)]\\@


 IF YOU BELIEVE CERTAIN WORDS, YOU BELIEVE THEIR HIDDEN ARGUMENTS.
 WHEN YOU BELIEVE SOMETHING IS RIGHT OR WRONG, TRUE OR FALSE, 
 YOU BELIEVE THE ASSUMPTIONS IN THE WORDS WHICH EXPRESS THE ARGUMENTS.
 SUCH ASSUMPTIONS ARE OFTEN FULL OF HOLES, BUT REMAIN MOST PRECIOUS 
 TO THE CONVINCED.

                 -- THE OPEN-ENDED PROOF FROM THE PANOPLIA PROPHETICA
                    CHILDREN OF DUNE BY FRANK HERBERT
 Job cpu time:       0 days 14 hours 19 minutes 29.9 seconds.
 Elapsed time:       0 days  0 hours 21 minutes 58.5 seconds.
 File lengths (MBytes):  RWF=   1399 Int=      0 D2E=      0 Chk=     28 Scr=      2
 Normal termination of Gaussian 16 at Tue Jun 11 21:09:42 2019.
