 Entering Gaussian System, Link 0=g16
 Initial command:
 /project/6004141/group/g16/g16/l1.exe "/scratch/rzk/Gau-436320.inp" -scrdir="/scratch/rzk/"
 Entering Link 1 = /project/6004141/group/g16/g16/l1.exe PID=    436396.
  
 Copyright (c) 1988,1990,1992,1993,1995,1998,2003,2009,2016,
            Gaussian, Inc.  All Rights Reserved.
  
 This is part of the Gaussian(R) 16 program.  It is based on
 the Gaussian(R) 09 system (copyright 2009, Gaussian, Inc.),
 the Gaussian(R) 03 system (copyright 2003, Gaussian, Inc.),
 the Gaussian(R) 98 system (copyright 1998, Gaussian, Inc.),
 the Gaussian(R) 94 system (copyright 1995, Gaussian, Inc.),
 the Gaussian 92(TM) system (copyright 1992, Gaussian, Inc.),
 the Gaussian 90(TM) system (copyright 1990, Gaussian, Inc.),
 the Gaussian 88(TM) system (copyright 1988, Gaussian, Inc.),
 the Gaussian 86(TM) system (copyright 1986, Carnegie Mellon
 University), and the Gaussian 82(TM) system (copyright 1983,
 Carnegie Mellon University). Gaussian is a federally registered
 trademark of Gaussian, Inc.
  
 This software contains proprietary and confidential information,
 including trade secrets, belonging to Gaussian, Inc.
  
 This software is provided under written license and may be
 used, copied, transmitted, or stored only in accord with that
 written license.
  
 The following legend is applicable only to US Government
 contracts under FAR:
  
                    RESTRICTED RIGHTS LEGEND
  
 Use, reproduction and disclosure by the US Government is
 subject to restrictions as set forth in subparagraphs (a)
 and (c) of the Commercial Computer Software - Restricted
 Rights clause in FAR 52.227-19.
  
 Gaussian, Inc.
 340 Quinnipiac St., Bldg. 40, Wallingford CT 06492
  
  
 ---------------------------------------------------------------
 Warning -- This program may not be used in any manner that
 competes with the business of Gaussian, Inc. or will provide
 assistance to any competitor of Gaussian, Inc.  The licensee
 of this program is prohibited from giving any competitor of
 Gaussian, Inc. access to this program.  By using this program,
 the user acknowledges that Gaussian, Inc. is engaged in the
 business of creating and licensing software in the field of
 computational chemistry and represents and warrants to the
 licensee that it is not a competitor of Gaussian, Inc. and that
 it will not use this program in any manner prohibited above.
 ---------------------------------------------------------------
  

 Cite this work as:
 Gaussian 16, Revision A.03,
 M. J. Frisch, G. W. Trucks, H. B. Schlegel, G. E. Scuseria, 
 M. A. Robb, J. R. Cheeseman, G. Scalmani, V. Barone, 
 G. A. Petersson, H. Nakatsuji, X. Li, M. Caricato, A. V. Marenich, 
 J. Bloino, B. G. Janesko, R. Gomperts, B. Mennucci, H. P. Hratchian, 
 J. V. Ortiz, A. F. Izmaylov, J. L. Sonnenberg, D. Williams-Young, 
 F. Ding, F. Lipparini, F. Egidi, J. Goings, B. Peng, A. Petrone, 
 T. Henderson, D. Ranasinghe, V. G. Zakrzewski, J. Gao, N. Rega, 
 G. Zheng, W. Liang, M. Hada, M. Ehara, K. Toyota, R. Fukuda, 
 J. Hasegawa, M. Ishida, T. Nakajima, Y. Honda, O. Kitao, H. Nakai, 
 T. Vreven, K. Throssell, J. A. Montgomery, Jr., J. E. Peralta, 
 F. Ogliaro, M. J. Bearpark, J. J. Heyd, E. N. Brothers, K. N. Kudin, 
 V. N. Staroverov, T. A. Keith, R. Kobayashi, J. Normand, 
 K. Raghavachari, A. P. Rendell, J. C. Burant, S. S. Iyengar, 
 J. Tomasi, M. Cossi, J. M. Millam, M. Klene, C. Adamo, R. Cammi, 
 J. W. Ochterski, R. L. Martin, K. Morokuma, O. Farkas, 
 J. B. Foresman, and D. J. Fox, Gaussian, Inc., Wallingford CT, 2016.
 
 ******************************************
 Gaussian 16:  ES64L-G16RevA.03 25-Dec-2016
                11-Jun-2019 
 ******************************************
 %NProcShared=40
 Will use up to   40 processors via shared memory.
 %chk=AABH-1.chk
 ----------------------------------------------------------------------
 #p opt=(calcfc,ts,noeigentest) ub3lyp/6-31g(d,p) scrf=(iefpcm,solvent=
 acetonitrile) guess=(mix,always) empiricaldispersion=gd3
 ----------------------------------------------------------------------
 1/5=1,10=4,11=1,18=20,26=3,38=1/1,3;
 2/9=110,12=2,17=6,18=5,40=1/2;
 3/5=1,6=6,7=101,11=2,25=1,30=1,70=2201,71=2,72=2,74=-5,116=2,124=31,140=1/1,2,3;
 4/13=-1/1;
 5/5=2,38=5,53=2/2;
 8/6=4,10=90,11=11/1;
 11/6=1,8=1,9=11,15=111,16=1/1,2,10;
 10/6=1,13=1/2;
 6/7=2,8=2,9=2,10=2,28=1/1;
 7/10=1,18=20,25=1/1,2,3,16;
 1/5=1,10=4,11=1,18=20,26=3/3(2);
 2/9=110/2;
 99//99;
 2/9=110/2;
 3/5=1,6=6,7=101,11=2,25=1,30=1,70=2205,71=1,72=2,74=-5,116=2,124=31/1,2,3;
 4/13=-1/1;
 5/5=2,38=5,53=2/2;
 7//1,2,3,16;
 1/5=1,11=1,18=20,26=3/3(-5);
 2/9=110/2;
 6/7=2,8=2,9=2,10=2,19=2,28=1/1;
 99/9=1/99;
 Leave Link    1 at Tue Jun 11 18:57:18 2019, MaxMem=           0 cpu:               8.3 elap:               0.2
 (Enter /project/6004141/group/g16/g16/l101.exe)
 -------------------
 Title Card Required
 -------------------
 Symbolic Z-matrix:
 Charge =  0 Multiplicity = 1
 C                    -0.82672   0.7247   -0.65395 
 H                    -4.28712   0.9189    0.92371 
 C                    -0.86465  -0.78648   0.68091 
 O                    -1.92774  -1.46531   0.3255 
 O                    -1.94207   1.45924  -0.27129 
 N                    -4.24433  -0.6223   -0.12921 
 H                    -4.64989  -1.10613  -0.92787 
 N                    -4.80162   0.52524   0.12396 
 H                    -2.71515   1.10136  -0.7204 
 H                    -3.27512  -0.9704    0.23411 
 C                    -1.01879   0.02526  -1.97877 
 H                    -0.18905  -0.63894  -2.21684 
 H                    -1.92646  -0.58322  -1.9383 
 H                    -1.11628   0.76915  -2.77732 
 C                    -0.99797  -0.02927   2.00116 
 H                    -0.98038  -0.7554    2.82124 
 H                    -0.2071    0.7026    2.17018 
 H                    -1.95594   0.49197   2.01683 
 C                     0.41744   1.50226  -0.44713 
 C                     0.42058   2.63558   0.39061 
 C                     1.63118   1.11974  -1.04908 
 C                     1.59233   3.35382   0.61799 
 H                    -0.50575   2.95078   0.85559 
 C                     2.80018   1.8433   -0.82462 
 H                     1.66947   0.24411  -1.68571 
 C                     2.78943   2.96218   0.01183 
 H                     1.56987   4.22491   1.26637 
 H                     3.7235    1.52765  -1.30117 
 H                     3.70228   3.52314   0.1881 
 C                     0.44353  -1.50751   0.45377 
 C                     0.48162  -2.5917   -0.43906 
 C                     1.63276  -1.14236   1.10452 
 C                     1.66999  -3.27567  -0.6887 
 H                    -0.44064  -2.88842  -0.92531 
 C                     2.82129  -1.83432   0.86578 
 H                     1.64233  -0.30609   1.79367 
 C                     2.8481   -2.89987  -0.03578 
 H                     1.67652  -4.10827  -1.38672 
 H                     3.72888  -1.53363   1.38138 
 H                     3.7745   -3.43418  -0.22528 
 
 Add virtual bond connecting atoms H10        and O4         Dist= 2.72D+00.
 Add virtual bond connecting atoms C3         and C1         Dist= 3.81D+00.
 ITRead=  0  0  0  0  0  0  0  0  0  0  0  0  0  0  0  0  0  0  0  0
 ITRead=  0  0  0  0  0  0  0  0  0  0  0  0  0  0  0  0  0  0  0  0
 MicOpt= -1 -1 -1 -1 -1 -1 -1 -1 -1 -1 -1 -1 -1 -1 -1 -1 -1 -1 -1 -1
 MicOpt= -1 -1 -1 -1 -1 -1 -1 -1 -1 -1 -1 -1 -1 -1 -1 -1 -1 -1 -1 -1
 NAtoms=     40 NQM=       40 NQMF=       0 NMMI=      0 NMMIF=      0
                NMic=       0 NMicF=      0.
                    Isotopes and Nuclear Properties:
 (Nuclear quadrupole moments (NQMom) in fm**2, nuclear magnetic moments (NMagM)
  in nuclear magnetons)

  Atom         1           2           3           4           5           6           7           8           9          10
 IAtWgt=          12           1          12          16          16          14           1          14           1           1
 AtmWgt=  12.0000000   1.0078250  12.0000000  15.9949146  15.9949146  14.0030740   1.0078250  14.0030740   1.0078250   1.0078250
 NucSpn=           0           1           0           0           0           2           1           2           1           1
 AtZEff=  -0.0000000  -0.0000000  -0.0000000  -0.0000000  -0.0000000  -0.0000000  -0.0000000  -0.0000000  -0.0000000  -0.0000000
 NQMom=    0.0000000   0.0000000   0.0000000   0.0000000   0.0000000   2.0440000   0.0000000   2.0440000   0.0000000   0.0000000
 NMagM=    0.0000000   2.7928460   0.0000000   0.0000000   0.0000000   0.4037610   2.7928460   0.4037610   2.7928460   2.7928460
 AtZNuc=   6.0000000   1.0000000   6.0000000   8.0000000   8.0000000   7.0000000   1.0000000   7.0000000   1.0000000   1.0000000

  Atom        11          12          13          14          15          16          17          18          19          20
 IAtWgt=          12           1           1           1          12           1           1           1          12          12
 AtmWgt=  12.0000000   1.0078250   1.0078250   1.0078250  12.0000000   1.0078250   1.0078250   1.0078250  12.0000000  12.0000000
 NucSpn=           0           1           1           1           0           1           1           1           0           0
 AtZEff=  -0.0000000  -0.0000000  -0.0000000  -0.0000000  -0.0000000  -0.0000000  -0.0000000  -0.0000000  -0.0000000  -0.0000000
 NQMom=    0.0000000   0.0000000   0.0000000   0.0000000   0.0000000   0.0000000   0.0000000   0.0000000   0.0000000   0.0000000
 NMagM=    0.0000000   2.7928460   2.7928460   2.7928460   0.0000000   2.7928460   2.7928460   2.7928460   0.0000000   0.0000000
 AtZNuc=   6.0000000   1.0000000   1.0000000   1.0000000   6.0000000   1.0000000   1.0000000   1.0000000   6.0000000   6.0000000

  Atom        21          22          23          24          25          26          27          28          29          30
 IAtWgt=          12          12           1          12           1          12           1           1           1          12
 AtmWgt=  12.0000000  12.0000000   1.0078250  12.0000000   1.0078250  12.0000000   1.0078250   1.0078250   1.0078250  12.0000000
 NucSpn=           0           0           1           0           1           0           1           1           1           0
 AtZEff=  -0.0000000  -0.0000000  -0.0000000  -0.0000000  -0.0000000  -0.0000000  -0.0000000  -0.0000000  -0.0000000  -0.0000000
 NQMom=    0.0000000   0.0000000   0.0000000   0.0000000   0.0000000   0.0000000   0.0000000   0.0000000   0.0000000   0.0000000
 NMagM=    0.0000000   0.0000000   2.7928460   0.0000000   2.7928460   0.0000000   2.7928460   2.7928460   2.7928460   0.0000000
 AtZNuc=   6.0000000   6.0000000   1.0000000   6.0000000   1.0000000   6.0000000   1.0000000   1.0000000   1.0000000   6.0000000

  Atom        31          32          33          34          35          36          37          38          39          40
 IAtWgt=          12          12          12           1          12           1          12           1           1           1
 AtmWgt=  12.0000000  12.0000000  12.0000000   1.0078250  12.0000000   1.0078250  12.0000000   1.0078250   1.0078250   1.0078250
 NucSpn=           0           0           0           1           0           1           0           1           1           1
 AtZEff=  -0.0000000  -0.0000000  -0.0000000  -0.0000000  -0.0000000  -0.0000000  -0.0000000  -0.0000000  -0.0000000  -0.0000000
 NQMom=    0.0000000   0.0000000   0.0000000   0.0000000   0.0000000   0.0000000   0.0000000   0.0000000   0.0000000   0.0000000
 NMagM=    0.0000000   0.0000000   0.0000000   2.7928460   0.0000000   2.7928460   0.0000000   2.7928460   2.7928460   2.7928460
 AtZNuc=   6.0000000   6.0000000   6.0000000   1.0000000   6.0000000   1.0000000   6.0000000   1.0000000   1.0000000   1.0000000
 Leave Link  101 at Tue Jun 11 18:57:19 2019, MaxMem=   104857600 cpu:               8.7 elap:               0.3
 (Enter /project/6004141/group/g16/g16/l103.exe)

 GradGradGradGradGradGradGradGradGradGradGradGradGradGradGradGradGradGrad
 Berny optimization.
 Initialization pass.
                           ----------------------------
                           !    Initial Parameters    !
                           ! (Angstroms and Degrees)  !
 --------------------------                            --------------------------
 ! Name  Definition              Value          Derivative Info.                !
 --------------------------------------------------------------------------------
 ! R1    R(1,3)                  2.0167         calculate D2E/DX2 analytically  !
 ! R2    R(1,5)                  1.3892         calculate D2E/DX2 analytically  !
 ! R3    R(1,11)                 1.5104         calculate D2E/DX2 analytically  !
 ! R4    R(1,19)                 1.4817         calculate D2E/DX2 analytically  !
 ! R5    R(2,8)                  1.0292         calculate D2E/DX2 analytically  !
 ! R6    R(3,4)                  1.3104         calculate D2E/DX2 analytically  !
 ! R7    R(3,15)                 1.5278         calculate D2E/DX2 analytically  !
 ! R8    R(3,30)                 1.5109         calculate D2E/DX2 analytically  !
 ! R9    R(4,10)                 1.4383         calculate D2E/DX2 analytically  !
 ! R10   R(5,9)                  0.963          calculate D2E/DX2 analytically  !
 ! R11   R(6,7)                  1.018          calculate D2E/DX2 analytically  !
 ! R12   R(6,8)                  1.3006         calculate D2E/DX2 analytically  !
 ! R13   R(6,10)                 1.092          calculate D2E/DX2 analytically  !
 ! R14   R(11,12)                1.0892         calculate D2E/DX2 analytically  !
 ! R15   R(11,13)                1.0935         calculate D2E/DX2 analytically  !
 ! R16   R(11,14)                1.0957         calculate D2E/DX2 analytically  !
 ! R17   R(15,16)                1.0955         calculate D2E/DX2 analytically  !
 ! R18   R(15,17)                1.0907         calculate D2E/DX2 analytically  !
 ! R19   R(15,18)                1.0907         calculate D2E/DX2 analytically  !
 ! R20   R(19,20)                1.4093         calculate D2E/DX2 analytically  !
 ! R21   R(19,21)                1.4078         calculate D2E/DX2 analytically  !
 ! R22   R(20,22)                1.393          calculate D2E/DX2 analytically  !
 ! R23   R(20,23)                1.0833         calculate D2E/DX2 analytically  !
 ! R24   R(21,24)                1.393          calculate D2E/DX2 analytically  !
 ! R25   R(21,25)                1.0833         calculate D2E/DX2 analytically  !
 ! R26   R(22,26)                1.3978         calculate D2E/DX2 analytically  !
 ! R27   R(22,27)                1.0861         calculate D2E/DX2 analytically  !
 ! R28   R(24,26)                1.397          calculate D2E/DX2 analytically  !
 ! R29   R(24,28)                1.0859         calculate D2E/DX2 analytically  !
 ! R30   R(26,29)                1.0858         calculate D2E/DX2 analytically  !
 ! R31   R(30,31)                1.405          calculate D2E/DX2 analytically  !
 ! R32   R(30,32)                1.404          calculate D2E/DX2 analytically  !
 ! R33   R(31,33)                1.3937         calculate D2E/DX2 analytically  !
 ! R34   R(31,34)                1.084          calculate D2E/DX2 analytically  !
 ! R35   R(32,35)                1.3959         calculate D2E/DX2 analytically  !
 ! R36   R(32,36)                1.0837         calculate D2E/DX2 analytically  !
 ! R37   R(33,37)                1.3984         calculate D2E/DX2 analytically  !
 ! R38   R(33,38)                1.0865         calculate D2E/DX2 analytically  !
 ! R39   R(35,37)                1.396          calculate D2E/DX2 analytically  !
 ! R40   R(35,39)                1.0863         calculate D2E/DX2 analytically  !
 ! R41   R(37,40)                1.0861         calculate D2E/DX2 analytically  !
 ! A1    A(3,1,5)              101.4658         calculate D2E/DX2 analytically  !
 ! A2    A(3,1,11)             103.367          calculate D2E/DX2 analytically  !
 ! A3    A(3,1,19)             108.4605         calculate D2E/DX2 analytically  !
 ! A4    A(5,1,11)             112.6036         calculate D2E/DX2 analytically  !
 ! A5    A(5,1,19)             110.992          calculate D2E/DX2 analytically  !
 ! A6    A(11,1,19)            118.1804         calculate D2E/DX2 analytically  !
 ! A7    A(1,3,4)              102.9389         calculate D2E/DX2 analytically  !
 ! A8    A(1,3,15)             101.6679         calculate D2E/DX2 analytically  !
 ! A9    A(1,3,30)             103.9932         calculate D2E/DX2 analytically  !
 ! A10   A(4,3,15)             114.8545         calculate D2E/DX2 analytically  !
 ! A11   A(4,3,30)             114.4828         calculate D2E/DX2 analytically  !
 ! A12   A(15,3,30)            116.2302         calculate D2E/DX2 analytically  !
 ! A13   A(3,4,10)             126.7945         calculate D2E/DX2 analytically  !
 ! A14   A(1,5,9)              108.6359         calculate D2E/DX2 analytically  !
 ! A15   A(7,6,8)              113.6618         calculate D2E/DX2 analytically  !
 ! A16   A(7,6,10)             117.5863         calculate D2E/DX2 analytically  !
 ! A17   A(8,6,10)             126.6398         calculate D2E/DX2 analytically  !
 ! A18   A(2,8,6)              105.9344         calculate D2E/DX2 analytically  !
 ! A19   A(4,10,6)             164.2045         calculate D2E/DX2 analytically  !
 ! A20   A(1,11,12)            112.1625         calculate D2E/DX2 analytically  !
 ! A21   A(1,11,13)            109.3159         calculate D2E/DX2 analytically  !
 ! A22   A(1,11,14)            109.6443         calculate D2E/DX2 analytically  !
 ! A23   A(12,11,13)           107.5239         calculate D2E/DX2 analytically  !
 ! A24   A(12,11,14)           108.814          calculate D2E/DX2 analytically  !
 ! A25   A(13,11,14)           109.324          calculate D2E/DX2 analytically  !
 ! A26   A(3,15,16)            108.48           calculate D2E/DX2 analytically  !
 ! A27   A(3,15,17)            113.7782         calculate D2E/DX2 analytically  !
 ! A28   A(3,15,18)            109.0203         calculate D2E/DX2 analytically  !
 ! A29   A(16,15,17)           108.4884         calculate D2E/DX2 analytically  !
 ! A30   A(16,15,18)           108.6696         calculate D2E/DX2 analytically  !
 ! A31   A(17,15,18)           108.2985         calculate D2E/DX2 analytically  !
 ! A32   A(1,19,20)            120.4547         calculate D2E/DX2 analytically  !
 ! A33   A(1,19,21)            121.4452         calculate D2E/DX2 analytically  !
 ! A34   A(20,19,21)           118.0834         calculate D2E/DX2 analytically  !
 ! A35   A(19,20,22)           120.8977         calculate D2E/DX2 analytically  !
 ! A36   A(19,20,23)           119.1564         calculate D2E/DX2 analytically  !
 ! A37   A(22,20,23)           119.9446         calculate D2E/DX2 analytically  !
 ! A38   A(19,21,24)           120.8963         calculate D2E/DX2 analytically  !
 ! A39   A(19,21,25)           120.0933         calculate D2E/DX2 analytically  !
 ! A40   A(24,21,25)           119.0046         calculate D2E/DX2 analytically  !
 ! A41   A(20,22,26)           120.3398         calculate D2E/DX2 analytically  !
 ! A42   A(20,22,27)           119.5741         calculate D2E/DX2 analytically  !
 ! A43   A(26,22,27)           120.0854         calculate D2E/DX2 analytically  !
 ! A44   A(21,24,26)           120.3992         calculate D2E/DX2 analytically  !
 ! A45   A(21,24,28)           119.4615         calculate D2E/DX2 analytically  !
 ! A46   A(26,24,28)           120.1384         calculate D2E/DX2 analytically  !
 ! A47   A(22,26,24)           119.3825         calculate D2E/DX2 analytically  !
 ! A48   A(22,26,29)           120.3203         calculate D2E/DX2 analytically  !
 ! A49   A(24,26,29)           120.2971         calculate D2E/DX2 analytically  !
 ! A50   A(3,30,31)            119.1601         calculate D2E/DX2 analytically  !
 ! A51   A(3,30,32)            122.6572         calculate D2E/DX2 analytically  !
 ! A52   A(31,30,32)           118.1823         calculate D2E/DX2 analytically  !
 ! A53   A(30,31,33)           121.0405         calculate D2E/DX2 analytically  !
 ! A54   A(30,31,34)           118.243          calculate D2E/DX2 analytically  !
 ! A55   A(33,31,34)           120.7151         calculate D2E/DX2 analytically  !
 ! A56   A(30,32,35)           120.8662         calculate D2E/DX2 analytically  !
 ! A57   A(30,32,36)           120.1955         calculate D2E/DX2 analytically  !
 ! A58   A(35,32,36)           118.9337         calculate D2E/DX2 analytically  !
 ! A59   A(31,33,37)           120.1882         calculate D2E/DX2 analytically  !
 ! A60   A(31,33,38)           119.7541         calculate D2E/DX2 analytically  !
 ! A61   A(37,33,38)           120.0557         calculate D2E/DX2 analytically  !
 ! A62   A(32,35,37)           120.3432         calculate D2E/DX2 analytically  !
 ! A63   A(32,35,39)           119.5385         calculate D2E/DX2 analytically  !
 ! A64   A(37,35,39)           120.1169         calculate D2E/DX2 analytically  !
 ! A65   A(33,37,35)           119.3717         calculate D2E/DX2 analytically  !
 ! A66   A(33,37,40)           120.3265         calculate D2E/DX2 analytically  !
 ! A67   A(35,37,40)           120.3013         calculate D2E/DX2 analytically  !
 ! D1    D(5,1,3,4)             68.6832         calculate D2E/DX2 analytically  !
 ! D2    D(5,1,3,15)           -50.5134         calculate D2E/DX2 analytically  !
 ! D3    D(5,1,3,30)          -171.6157         calculate D2E/DX2 analytically  !
 ! D4    D(11,1,3,4)           -48.1437         calculate D2E/DX2 analytically  !
 ! D5    D(11,1,3,15)         -167.3403         calculate D2E/DX2 analytically  !
 ! D6    D(11,1,3,30)           71.5573         calculate D2E/DX2 analytically  !
 ! D7    D(19,1,3,4)          -174.3758         calculate D2E/DX2 analytically  !
 ! D8    D(19,1,3,15)           66.4276         calculate D2E/DX2 analytically  !
 ! D9    D(19,1,3,30)          -54.6747         calculate D2E/DX2 analytically  !
 ! D10   D(3,1,5,9)            -87.0116         calculate D2E/DX2 analytically  !
 ! D11   D(11,1,5,9)            22.8633         calculate D2E/DX2 analytically  !
 ! D12   D(19,1,5,9)           157.9077         calculate D2E/DX2 analytically  !
 ! D13   D(3,1,11,12)          -64.6925         calculate D2E/DX2 analytically  !
 ! D14   D(3,1,11,13)           54.4702         calculate D2E/DX2 analytically  !
 ! D15   D(3,1,11,14)          174.3005         calculate D2E/DX2 analytically  !
 ! D16   D(5,1,11,12)         -173.3704         calculate D2E/DX2 analytically  !
 ! D17   D(5,1,11,13)          -54.2078         calculate D2E/DX2 analytically  !
 ! D18   D(5,1,11,14)           65.6225         calculate D2E/DX2 analytically  !
 ! D19   D(19,1,11,12)          55.0792         calculate D2E/DX2 analytically  !
 ! D20   D(19,1,11,13)         174.2418         calculate D2E/DX2 analytically  !
 ! D21   D(19,1,11,14)         -65.9279         calculate D2E/DX2 analytically  !
 ! D22   D(3,1,19,20)          -93.4128         calculate D2E/DX2 analytically  !
 ! D23   D(3,1,19,21)           85.0692         calculate D2E/DX2 analytically  !
 ! D24   D(5,1,19,20)           17.2309         calculate D2E/DX2 analytically  !
 ! D25   D(5,1,19,21)         -164.2872         calculate D2E/DX2 analytically  !
 ! D26   D(11,1,19,20)         149.4994         calculate D2E/DX2 analytically  !
 ! D27   D(11,1,19,21)         -32.0186         calculate D2E/DX2 analytically  !
 ! D28   D(1,3,4,10)           -57.7567         calculate D2E/DX2 analytically  !
 ! D29   D(15,3,4,10)           51.8226         calculate D2E/DX2 analytically  !
 ! D30   D(30,3,4,10)         -169.9193         calculate D2E/DX2 analytically  !
 ! D31   D(1,3,15,16)         -177.2799         calculate D2E/DX2 analytically  !
 ! D32   D(1,3,15,17)          -56.4414         calculate D2E/DX2 analytically  !
 ! D33   D(1,3,15,18)           64.542          calculate D2E/DX2 analytically  !
 ! D34   D(4,3,15,16)           72.3775         calculate D2E/DX2 analytically  !
 ! D35   D(4,3,15,17)         -166.784          calculate D2E/DX2 analytically  !
 ! D36   D(4,3,15,18)          -45.8006         calculate D2E/DX2 analytically  !
 ! D37   D(30,3,15,16)         -65.1318         calculate D2E/DX2 analytically  !
 ! D38   D(30,3,15,17)          55.7067         calculate D2E/DX2 analytically  !
 ! D39   D(30,3,15,18)         176.6901         calculate D2E/DX2 analytically  !
 ! D40   D(1,3,30,31)          -92.6577         calculate D2E/DX2 analytically  !
 ! D41   D(1,3,30,32)           87.579          calculate D2E/DX2 analytically  !
 ! D42   D(4,3,30,31)           18.8753         calculate D2E/DX2 analytically  !
 ! D43   D(4,3,30,32)         -160.888          calculate D2E/DX2 analytically  !
 ! D44   D(15,3,30,31)         156.5405         calculate D2E/DX2 analytically  !
 ! D45   D(15,3,30,32)         -23.2228         calculate D2E/DX2 analytically  !
 ! D46   D(3,4,10,6)           108.3921         calculate D2E/DX2 analytically  !
 ! D47   D(7,6,8,2)           -178.2669         calculate D2E/DX2 analytically  !
 ! D48   D(10,6,8,2)           -15.33           calculate D2E/DX2 analytically  !
 ! D49   D(7,6,10,4)            39.5266         calculate D2E/DX2 analytically  !
 ! D50   D(8,6,10,4)          -122.8217         calculate D2E/DX2 analytically  !
 ! D51   D(1,19,20,22)         178.3881         calculate D2E/DX2 analytically  !
 ! D52   D(1,19,20,23)          -2.0227         calculate D2E/DX2 analytically  !
 ! D53   D(21,19,20,22)         -0.1441         calculate D2E/DX2 analytically  !
 ! D54   D(21,19,20,23)        179.4452         calculate D2E/DX2 analytically  !
 ! D55   D(1,19,21,24)        -178.6578         calculate D2E/DX2 analytically  !
 ! D56   D(1,19,21,25)           0.4574         calculate D2E/DX2 analytically  !
 ! D57   D(20,19,21,24)         -0.141          calculate D2E/DX2 analytically  !
 ! D58   D(20,19,21,25)        178.9742         calculate D2E/DX2 analytically  !
 ! D59   D(19,20,22,26)          0.2143         calculate D2E/DX2 analytically  !
 ! D60   D(19,20,22,27)        179.9058         calculate D2E/DX2 analytically  !
 ! D61   D(23,20,22,26)       -179.3717         calculate D2E/DX2 analytically  !
 ! D62   D(23,20,22,27)          0.3198         calculate D2E/DX2 analytically  !
 ! D63   D(19,21,24,26)          0.3581         calculate D2E/DX2 analytically  !
 ! D64   D(19,21,24,28)       -179.9775         calculate D2E/DX2 analytically  !
 ! D65   D(25,21,24,26)       -178.7665         calculate D2E/DX2 analytically  !
 ! D66   D(25,21,24,28)          0.8978         calculate D2E/DX2 analytically  !
 ! D67   D(20,22,26,24)          0.002          calculate D2E/DX2 analytically  !
 ! D68   D(20,22,26,29)        179.9078         calculate D2E/DX2 analytically  !
 ! D69   D(27,22,26,24)       -179.688          calculate D2E/DX2 analytically  !
 ! D70   D(27,22,26,29)          0.2178         calculate D2E/DX2 analytically  !
 ! D71   D(21,24,26,22)         -0.2859         calculate D2E/DX2 analytically  !
 ! D72   D(21,24,26,29)        179.8082         calculate D2E/DX2 analytically  !
 ! D73   D(28,24,26,22)       -179.948          calculate D2E/DX2 analytically  !
 ! D74   D(28,24,26,29)          0.1462         calculate D2E/DX2 analytically  !
 ! D75   D(3,30,31,33)         179.3108         calculate D2E/DX2 analytically  !
 ! D76   D(3,30,31,34)          -1.1095         calculate D2E/DX2 analytically  !
 ! D77   D(32,30,31,33)         -0.9153         calculate D2E/DX2 analytically  !
 ! D78   D(32,30,31,34)        178.6645         calculate D2E/DX2 analytically  !
 ! D79   D(3,30,32,35)        -179.9499         calculate D2E/DX2 analytically  !
 ! D80   D(3,30,32,36)          -0.7323         calculate D2E/DX2 analytically  !
 ! D81   D(31,30,32,35)          0.2846         calculate D2E/DX2 analytically  !
 ! D82   D(31,30,32,36)        179.5022         calculate D2E/DX2 analytically  !
 ! D83   D(30,31,33,37)          0.8049         calculate D2E/DX2 analytically  !
 ! D84   D(30,31,33,38)       -179.7138         calculate D2E/DX2 analytically  !
 ! D85   D(34,31,33,37)       -178.7645         calculate D2E/DX2 analytically  !
 ! D86   D(34,31,33,38)          0.7167         calculate D2E/DX2 analytically  !
 ! D87   D(30,32,35,37)          0.459          calculate D2E/DX2 analytically  !
 ! D88   D(30,32,35,39)       -179.9797         calculate D2E/DX2 analytically  !
 ! D89   D(36,32,35,37)       -178.7684         calculate D2E/DX2 analytically  !
 ! D90   D(36,32,35,39)          0.7929         calculate D2E/DX2 analytically  !
 ! D91   D(31,33,37,35)         -0.0445         calculate D2E/DX2 analytically  !
 ! D92   D(31,33,37,40)        179.7245         calculate D2E/DX2 analytically  !
 ! D93   D(38,33,37,35)       -179.5242         calculate D2E/DX2 analytically  !
 ! D94   D(38,33,37,40)          0.2448         calculate D2E/DX2 analytically  !
 ! D95   D(32,35,37,33)         -0.5805         calculate D2E/DX2 analytically  !
 ! D96   D(32,35,37,40)        179.6504         calculate D2E/DX2 analytically  !
 ! D97   D(39,35,37,33)        179.8608         calculate D2E/DX2 analytically  !
 ! D98   D(39,35,37,40)          0.0916         calculate D2E/DX2 analytically  !
 --------------------------------------------------------------------------------
 Trust Radius=3.00D-01 FncErr=1.00D-07 GrdErr=1.00D-06 EigMax=2.50D+02 EigMin=1.00D-04
 Number of steps in this run=    216 maximum allowed number of steps=    240.
 Search for a saddle point of order  1.
 GradGradGradGradGradGradGradGradGradGradGradGradGradGradGradGradGradGrad

 Leave Link  103 at Tue Jun 11 18:57:19 2019, MaxMem=   104857600 cpu:               1.9 elap:               0.1
 (Enter /project/6004141/group/g16/g16/l202.exe)
                          Input orientation:                          
 ---------------------------------------------------------------------
 Center     Atomic      Atomic             Coordinates (Angstroms)
 Number     Number       Type             X           Y           Z
 ---------------------------------------------------------------------
      1          6           0       -0.826719    0.724700   -0.653950
      2          1           0       -4.287122    0.918898    0.923705
      3          6           0       -0.864654   -0.786481    0.680905
      4          8           0       -1.927737   -1.465305    0.325498
      5          8           0       -1.942074    1.459236   -0.271294
      6          7           0       -4.244326   -0.622303   -0.129214
      7          1           0       -4.649891   -1.106131   -0.927869
      8          7           0       -4.801619    0.525242    0.123961
      9          1           0       -2.715145    1.101356   -0.720398
     10          1           0       -3.275118   -0.970401    0.234114
     11          6           0       -1.018793    0.025262   -1.978773
     12          1           0       -0.189045   -0.638935   -2.216836
     13          1           0       -1.926462   -0.583218   -1.938300
     14          1           0       -1.116276    0.769151   -2.777319
     15          6           0       -0.997969   -0.029265    2.001161
     16          1           0       -0.980383   -0.755404    2.821239
     17          1           0       -0.207096    0.702596    2.170184
     18          1           0       -1.955941    0.491971    2.016828
     19          6           0        0.417437    1.502263   -0.447127
     20          6           0        0.420575    2.635580    0.390614
     21          6           0        1.631175    1.119741   -1.049084
     22          6           0        1.592332    3.353822    0.617988
     23          1           0       -0.505749    2.950782    0.855591
     24          6           0        2.800184    1.843296   -0.824618
     25          1           0        1.669474    0.244106   -1.685714
     26          6           0        2.789430    2.962177    0.011834
     27          1           0        1.569873    4.224910    1.266372
     28          1           0        3.723504    1.527654   -1.301166
     29          1           0        3.702284    3.523138    0.188102
     30          6           0        0.443527   -1.507507    0.453769
     31          6           0        0.481617   -2.591696   -0.439058
     32          6           0        1.632757   -1.142355    1.104517
     33          6           0        1.669990   -3.275672   -0.688697
     34          1           0       -0.440640   -2.888416   -0.925314
     35          6           0        2.821286   -1.834318    0.865775
     36          1           0        1.642327   -0.306085    1.793670
     37          6           0        2.848095   -2.899867   -0.035779
     38          1           0        1.676521   -4.108271   -1.386721
     39          1           0        3.728881   -1.533626    1.381380
     40          1           0        3.774495   -3.434178   -0.225276
 ---------------------------------------------------------------------
                    Distance matrix (angstroms):
                    1          2          3          4          5
     1  C    0.000000
     2  H    3.808031   0.000000
     3  C    2.016667   3.831521   0.000000
     4  O    2.639637   3.407194   1.310443   0.000000
     5  O    1.389239   2.686864   2.666601   2.984846   0.000000
     6  N    3.710768   1.867022   3.479286   2.506791   3.106985
     7  H    4.247778   2.767792   4.125330   3.018287   3.787410
     8  N    4.055214   1.029205   4.186944   3.501727   3.034068
     9  H    1.926769   2.281990   2.991972   2.881260   0.963022
    10  H    3.107520   2.251475   2.458411   1.438303   2.817016
    11  C    1.510385   4.461495   2.785062   2.890957   2.413341
    12  H    2.169963   5.392965   2.979114   3.188950   3.355677
    13  H    2.137671   4.002517   2.833547   2.429580   2.636432
    14  H    2.143482   4.875886   3.800344   3.908802   2.727329
    15  C    2.765394   3.588656   1.527817   2.394687   2.875938
    16  H    3.780378   4.163946   2.143686   2.762275   3.923422
    17  H    2.891393   4.271663   2.206283   3.326149   3.089250
    18  H    2.909014   2.609902   2.147100   2.586952   2.484209
    19  C    1.481656   4.934812   2.855619   3.860473   2.366445
    20  C    2.509645   5.039206   3.666958   4.726105   2.721032
    21  C    2.520601   6.241672   3.585486   4.608448   3.672645
    22  C    3.792350   6.371051   4.814857   5.974983   4.107591
    23  H    2.708722   4.293247   3.758519   4.669569   2.357458
    24  C    3.799317   7.358060   4.755351   5.884118   4.789852
    25  H    2.743444   6.538000   3.617292   4.461725   4.064530
    26  C    4.304196   7.421865   5.277539   6.477086   4.972537
    27  H    4.656475   6.734354   5.602119   6.745151   4.727276
    28  H    4.665635   8.336112   5.507724   6.598512   5.758827
    29  H    5.390007   8.435270   6.298618   7.523336   6.027397
    30  C    2.797019   5.337351   1.510896   2.375106   3.875355
    31  C    3.571611   6.076369   2.515067   2.767361   4.723608
    32  C    3.553466   6.271078   2.557959   3.659001   4.630394
    33  C    4.715691   7.462000   3.807401   4.153271   5.969974
    34  H    3.643803   5.719260   2.679152   2.408575   4.645872
    35  C    4.708086   7.623190   3.836443   4.793880   5.901697
    36  H    3.626231   6.116845   2.784597   4.030469   4.497595
    37  C    5.198450   8.149534   4.331806   4.999706   6.480969
    38  H    5.491882   8.134835   4.665505   4.786193   6.733167
    39  H    5.476869   8.395275   4.706321   5.754727   6.621804
    40  H    6.217009   9.233585   5.417856   6.057661   7.525077
                    6          7          8          9         10
     6  N    0.000000
     7  H    1.018048   0.000000
     8  N    1.300589   1.946984   0.000000
     9  H    2.378843   2.942666   2.323408   0.000000
    10  H    1.092036   1.805167   2.139927   2.348795   0.000000
    11  C    3.774158   3.945798   4.356747   2.370463   3.313490
    12  H    4.561112   4.666782   5.301931   3.413081   3.954854
    13  H    2.940546   2.951521   3.707847   2.223307   2.586149
    14  H    4.328198   4.407219   4.696666   2.626341   4.093332
    15  C    3.927980   4.803685   4.277746   3.410847   3.032095
    16  H    4.401842   5.257767   4.849454   4.358916   3.464859
    17  H    4.831337   5.710329   5.032705   3.847698   3.995003
    18  H    3.329235   4.299132   3.417885   2.905193   2.656469
    19  C    5.132922   5.719497   5.340342   3.169933   4.495900
    20  C    5.713609   6.438045   5.638789   3.663459   5.165824
    21  C    6.196966   6.664907   6.565844   4.358769   5.485162
    22  C    7.101722   7.825995   7.009104   5.041750   6.522142
    23  H    5.264384   6.067387   4.987286   3.284136   4.840590
    24  C    7.495858   8.013326   7.773318   5.565985   6.778429
    25  H    6.176276   6.506293   6.725251   4.570733   5.441485
    26  C    7.895702   8.530983   7.973409   5.856549   7.231412
    27  H    7.697275   8.480575   7.455773   5.662616   7.178492
    28  H    8.335592   8.785779   8.701353   6.478829   7.588022
    29  H    8.968499   9.614278   9.017087   6.919089   8.299286
    30  C    4.806186   5.292725   5.634927   4.261695   3.763649
    31  C    5.129235   5.364533   6.159941   4.892553   4.146663
    32  C    6.027657   6.603300   6.718896   5.221954   4.987425
    33  C    6.506345   6.686180   7.549111   6.195869   5.533529
    34  H    4.498563   4.571033   5.636681   4.597134   3.613491
    35  C    7.237531   7.717895   8.014143   6.464224   6.189628
    36  H    6.200819   6.902091   6.708463   5.223887   5.201422
    37  C    7.449729   7.760999   8.383019   6.886808   6.425684
    38  H    6.984964   7.017612   8.106658   6.846235   6.082110
    39  H    8.166054   8.701678   8.865070   7.272281   7.119652
    40  H    8.498080   8.768336   9.452444   7.932947   7.481863
                   11         12         13         14         15
    11  C    0.000000
    12  H    1.089180   0.000000
    13  H    1.093503   1.760484   0.000000
    14  H    1.095696   1.776684   1.785849   0.000000
    15  C    3.980362   4.337920   4.085134   4.846167   0.000000
    16  H    4.863232   5.101174   4.855711   5.804015   1.095498
    17  H    4.281527   4.587589   4.635642   5.030788   1.090720
    18  H    4.130483   4.724911   4.098773   4.875009   1.090707
    19  C    2.567144   2.843311   3.473714   2.884358   3.216064
    20  C    3.807826   4.229998   4.614443   3.985131   3.421626
    21  C    3.014056   2.787434   4.043211   3.264689   4.187673
    22  C    4.963915   5.210724   5.866584   5.054225   4.479744
    23  H    4.105545   4.735628   4.723707   4.281389   3.230370
    24  C    4.384279   4.127376   5.428576   4.506161   5.090921
    25  H    2.713034   2.125075   3.698516   3.037709   4.558841
    26  C    5.204858   5.177479   6.213895   5.276673   5.220205
    27  H    5.905015   6.235665   6.753694   5.958952   5.023120
    28  H    5.020529   4.565151   6.064968   5.116427   5.968389
    29  H    6.262512   6.184579   7.284678   6.292590   6.164343
    30  C    3.225682   2.878662   3.491869   4.249245   2.580219
    31  C    3.386801   2.724621   3.475709   4.394999   3.835348
    32  C    4.230925   3.821489   4.715868   5.126372   2.993937
    33  C    4.448597   3.569818   4.663184   5.337248   4.989238
    34  H    3.151754   2.606049   2.923653   4.155021   4.129118
    35  C    5.127933   4.471412   5.654131   5.962766   4.374246
    36  H    4.628464   4.421411   5.171137   5.446096   2.662864
    37  C    5.223450   4.369559   5.637627   6.057555   5.213606
    38  H    4.970044   4.025633   5.070673   5.789881   5.938765
    39  H    6.021725   5.394235   6.626195   6.787717   4.999034
    40  H    6.165881   5.243028   6.600253   6.935455   6.271114
                   16         17         18         19         20
    16  H    0.000000
    17  H    1.774150   0.000000
    18  H    1.776157   1.768146   0.000000
    19  C    4.211078   2.807103   3.567168   0.000000
    20  C    4.401067   2.701345   3.589911   1.409336   0.000000
    21  C    5.031481   3.730541   4.760390   1.407777   2.415792
    22  C    5.325309   3.560373   4.768353   2.437851   1.393049
    23  H    4.221950   2.621391   3.081766   2.155819   1.083343
    24  C    5.859881   4.394743   5.702685   2.436450   2.786941
    25  H    5.322912   4.312734   5.187860   2.164406   3.404414
    26  C    5.993718   4.329359   5.713183   2.822826   2.421077
    27  H    5.807318   4.047368   5.189353   3.417162   2.147978
    28  H    6.658313   5.308541   6.658665   3.414690   3.872849
    29  H    6.867802   5.212232   6.674408   3.908666   3.405640
    30  C    2.863231   2.872968   3.492637   3.141816   4.143632
    31  C    4.017331   4.258501   4.634875   4.094470   5.293061
    32  C    3.150455   2.815058   4.047479   3.298273   4.031357
    33  C    5.069110   5.246262   5.887476   4.945291   6.137495
    34  H    4.344850   4.746790   4.730682   4.499224   5.743508
    35  C    4.409148   4.160350   5.436768   4.316825   5.095996
    36  H    2.852436   2.139992   3.692455   3.129161   3.480609
    37  C    5.236269   5.213272   6.228685   5.045399   6.059360
    38  H    6.000649   6.272482   6.777990   5.826339   7.086314
    39  H    4.985578   4.595086   6.068281   4.850332   5.413759
    40  H    6.250276   6.221270   7.299286   5.973902   6.962044
                   21         22         23         24         25
    21  C    0.000000
    22  C    2.787787   0.000000
    23  H    3.398079   2.149614   0.000000
    24  C    1.393018   2.412821   3.870248   0.000000
    25  H    1.083283   3.870830   4.303013   2.139486   0.000000
    26  C    2.421089   1.397803   3.401509   1.397019   3.394684
    27  H    3.873909   1.086140   2.469889   3.399704   4.956968
    28  H    2.146574   3.399991   4.956155   1.085932   2.452430
    29  H    3.405354   2.159946   4.298916   2.158994   4.289004
    30  C    3.251385   4.997924   4.575907   4.291385   3.024646
    31  C    3.932986   6.140050   5.776683   5.019319   3.317669
    32  C    3.123312   4.522605   4.624818   3.741465   3.115929
    33  C    4.410333   6.757488   6.774024   5.244011   3.658262
    34  H    4.513653   6.743908   6.105088   5.736042   3.852724
    35  C    3.716115   5.337464   5.828074   4.047557   3.486634
    36  H    3.180307   3.844431   4.012656   3.579931   3.522721
    37  C    4.320293   6.411940   6.802419   4.808550   3.741123
    38  H    5.239100   7.727146   7.721431   6.082740   4.362640
    39  H    4.165079   5.388391   6.190191   4.139143   4.099824
    40  H    5.100065   7.179824   7.762505   5.400021   4.482607
                   26         27         28         29         30
    26  C    0.000000
    27  H    2.157702   0.000000
    28  H    2.157387   4.301810   0.000000
    29  H    1.085841   2.490447   2.490045   0.000000
    30  C    5.067212   5.898270   4.801067   5.999789   0.000000
    31  C    6.031153   7.110479   5.312448   6.939540   1.405011
    32  C    4.402162   5.370073   4.157822   5.185517   1.403950
    33  C    6.376100   7.751842   5.259656   7.150022   2.436359
    34  H    6.748410   7.710062   6.081368   7.714372   2.142552
    35  C    4.872022   6.200061   4.100303   5.471538   2.435219
    36  H    3.895166   4.562150   4.155948   4.635107   2.162376
    37  C    5.862531   7.354719   4.687269   6.483422   2.821395
    38  H    7.292857   8.745981   5.996758   8.051223   3.416380
    39  H    4.792752   6.151039   4.070322   5.195718   3.413897
    40  H    6.476105   8.108452   5.077393   6.969960   3.907494
                   31         32         33         34         35
    31  C    0.000000
    32  C    2.410049   0.000000
    33  C    1.393690   2.787121   0.000000
    34  H    1.083995   3.386431   2.158869   0.000000
    35  C    2.783929   1.395855   2.412336   3.867723   0.000000
    36  H    3.399462   1.083684   3.870576   4.289529   2.141595
    37  C    2.420294   2.422018   1.398379   3.406931   1.396035
    38  H    2.150781   3.873608   1.086509   2.486627   3.399277
    39  H    3.870172   2.150228   3.399849   4.953907   1.086275
    40  H    3.405661   3.407029   2.160746   4.307583   2.158368
                   36         37         38         39         40
    36  H    0.000000
    37  C    3.395359   0.000000
    38  H    4.957083   2.158210   0.000000
    39  H    2.455717   2.156557   4.301553   0.000000
    40  H    4.290367   1.086101   2.490954   2.489081   0.000000
 Stoichiometry    C16H20N2O2
 Framework group  C1[X(C16H20N2O2)]
 Deg. of freedom   114
 Full point group                 C1      NOp   1
 Largest Abelian subgroup         C1      NOp   1
 Largest concise Abelian subgroup C1      NOp   1
                         Standard orientation:                         
 ---------------------------------------------------------------------
 Center     Atomic      Atomic             Coordinates (Angstroms)
 Number     Number       Type             X           Y           Z
 ---------------------------------------------------------------------
      1          6           0       -0.826719    0.724700   -0.653950
      2          1           0       -4.287122    0.918898    0.923705
      3          6           0       -0.864654   -0.786481    0.680905
      4          8           0       -1.927737   -1.465305    0.325498
      5          8           0       -1.942074    1.459236   -0.271294
      6          7           0       -4.244326   -0.622303   -0.129214
      7          1           0       -4.649891   -1.106131   -0.927869
      8          7           0       -4.801619    0.525242    0.123961
      9          1           0       -2.715145    1.101356   -0.720398
     10          1           0       -3.275118   -0.970401    0.234114
     11          6           0       -1.018793    0.025262   -1.978773
     12          1           0       -0.189045   -0.638935   -2.216836
     13          1           0       -1.926462   -0.583218   -1.938300
     14          1           0       -1.116276    0.769151   -2.777319
     15          6           0       -0.997969   -0.029265    2.001161
     16          1           0       -0.980383   -0.755404    2.821239
     17          1           0       -0.207096    0.702596    2.170184
     18          1           0       -1.955941    0.491971    2.016828
     19          6           0        0.417437    1.502263   -0.447127
     20          6           0        0.420575    2.635580    0.390614
     21          6           0        1.631175    1.119741   -1.049084
     22          6           0        1.592332    3.353822    0.617988
     23          1           0       -0.505749    2.950782    0.855591
     24          6           0        2.800184    1.843296   -0.824618
     25          1           0        1.669474    0.244106   -1.685714
     26          6           0        2.789430    2.962177    0.011834
     27          1           0        1.569873    4.224910    1.266372
     28          1           0        3.723504    1.527654   -1.301166
     29          1           0        3.702284    3.523138    0.188102
     30          6           0        0.443527   -1.507507    0.453769
     31          6           0        0.481617   -2.591696   -0.439058
     32          6           0        1.632757   -1.142355    1.104517
     33          6           0        1.669990   -3.275672   -0.688697
     34          1           0       -0.440640   -2.888416   -0.925314
     35          6           0        2.821286   -1.834318    0.865775
     36          1           0        1.642327   -0.306085    1.793670
     37          6           0        2.848095   -2.899867   -0.035779
     38          1           0        1.676521   -4.108271   -1.386721
     39          1           0        3.728881   -1.533626    1.381380
     40          1           0        3.774495   -3.434178   -0.225276
 ---------------------------------------------------------------------
 Rotational constants (GHZ):           0.4197703           0.3131971           0.2132373
 Leave Link  202 at Tue Jun 11 18:57:20 2019, MaxMem=   104857600 cpu:               9.2 elap:               0.3
 (Enter /project/6004141/group/g16/g16/l301.exe)
 Standard basis: 6-31G(d,p) (6D, 7F)
 Ernie: Thresh=  0.10000D-02 Tol=  0.10000D-05 Strict=F.
 There are   400 symmetry adapted cartesian basis functions of A   symmetry.
 There are   400 symmetry adapted basis functions of A   symmetry.
   400 basis functions,   700 primitive gaussians,   400 cartesian basis functions
    73 alpha electrons       73 beta electrons
       nuclear repulsion energy      1601.7915290878 Hartrees.
 IExCor=  402 DFT=T Ex+Corr=B3LYP ExCW=0 ScaHFX=  0.200000
 ScaDFX=  0.800000  0.720000  1.000000  0.810000 ScalE2=  1.000000  1.000000
 IRadAn=      5 IRanWt=     -1 IRanGd=            0 ICorTp=0 IEmpDi=131
 NAtoms=   40 NActive=   40 NUniq=   40 SFac= 1.00D+00 NAtFMM=   60 NAOKFM=F Big=F
 Integral buffers will be    131072 words long.
 Raffenetti 2 integral format.
 Two-electron integral symmetry is turned on.
 R6Disp:  Grimme-D3 Dispersion energy=       -0.0503914349 Hartrees.
 Nuclear repulsion after empirical dispersion term =     1601.7411376529 Hartrees.
 Force inversion solution in PCM.
 ------------------------------------------------------------------------------
 Polarizable Continuum Model (PCM)
 =================================
 Model                : PCM.
 Atomic radii         : UFF (Universal Force Field).
 Polarization charges : Total charges.
 Charge compensation  : None.
 Solution method      : Matrix inversion.
 Cavity type          : Scaled VdW (van der Waals Surface) (Alpha=1.100).
 Cavity algorithm     : GePol (No added spheres)
                        Default sphere list used, NSphG=   40.
                        Lebedev-Laikov grids with approx.  5.0 points / Ang**2.
                        Smoothing algorithm: York/Karplus (Gamma=1.0000).
                        Polarization charges: spherical gaussians, with
                                              point-specific exponents (IZeta= 3).
                        Self-potential: point-specific (ISelfS= 7).
                        Self-field    : sphere-specific E.n sum rule (ISelfD= 2).
 1st derivatives      : Analytical E(r).r(x)/FMM algorithm (CHGder, D1EAlg=3).
                        Cavity 1st derivative terms included.
 2nd derivatives      : Analytical E(r).r(xy)/FMM algorithm (CHGder, D2EAlg=3).
                        Cavity 2nd derivative terms included.
 Solvent              : Acetonitrile, Eps=  35.688000 Eps(inf)=   1.806874
 ------------------------------------------------------------------------------
 GePol: Number of generator spheres                  =      40
 GePol: Total number of spheres                      =      40
 GePol: Number of exposed spheres                    =      40 (100.00%)
 GePol: Number of points                             =    2681
 GePol: Average weight of points                     =       0.13
 GePol: Minimum weight of points                     =   0.65D-11
 GePol: Maximum weight of points                     =    0.20577
 GePol: Number of points with low weight             =     206
 GePol: Fraction of low-weight points (<1% of avg)   =       7.68%
 GePol: Cavity surface area                          =    346.339 Ang**2
 GePol: Cavity volume                                =    399.085 Ang**3
 Leave Link  301 at Tue Jun 11 18:57:20 2019, MaxMem=   104857600 cpu:               9.7 elap:               0.3
 (Enter /project/6004141/group/g16/g16/l302.exe)
 NPDir=0 NMtPBC=     1 NCelOv=     1 NCel=       1 NClECP=     1 NCelD=      1
         NCelK=      1 NCelE2=     1 NClLst=     1 CellRange=     0.0.
 One-electron integrals computed using PRISM.
 One-electron integral symmetry used in STVInt
 PrsmSu:  requested number of processors reduced to:  27 ShMem   1 Linda.
 NBasis=   400 RedAO= T EigKep=  4.29D-04  NBF=   400
 NBsUse=   400 1.00D-06 EigRej= -1.00D+00 NBFU=   400
 Precomputing XC quadrature grid using
 IXCGrd= 4 IRadAn=           5 IRanWt=          -1 IRanGd=           0 AccXCQ= 0.00D+00.
 Generated NRdTot=       0 NPtTot=           0 NUsed=           0 NTot=          32
 NSgBfM=   398   398   398   398   398 MxSgAt=    40 MxSgA2=    40.
 Leave Link  302 at Tue Jun 11 18:57:21 2019, MaxMem=   104857600 cpu:              24.6 elap:               0.7
 (Enter /project/6004141/group/g16/g16/l303.exe)
 DipDrv:  MaxL=1.
 Leave Link  303 at Tue Jun 11 18:57:22 2019, MaxMem=   104857600 cpu:               6.9 elap:               0.2
 (Enter /project/6004141/group/g16/g16/l401.exe)
 ExpMin= 1.61D-01 ExpMax= 5.48D+03 ExpMxC= 8.25D+02 IAcc=3 IRadAn=         5 AccDes= 0.00D+00
 Harris functional with IExCor=  402 and IRadAn=       5 diagonalized for initial guess.
 HarFok:  IExCor=  402 AccDes= 0.00D+00 IRadAn=         5 IDoV= 1 UseB2=F ITyADJ=14
 ICtDFT=  3500011 ScaDFX=  1.000000  1.000000  1.000000  1.000000
 FoFCou: FMM=F IPFlag=           0 FMFlag=      100000 FMFlg1=           0
         NFxFlg=           0 DoJE=T BraDBF=F KetDBF=T FulRan=T
         wScrn=  0.000000 ICntrl=       500 IOpCl=  0 I1Cent=   200000004 NGrid=           0
         NMat0=    1 NMatS0=      1 NMatT0=    0 NMatD0=    1 NMtDS0=    0 NMtDT0=    0
 Petite list used in FoFCou.
 Harris En= -881.733935067184    
 JPrj=0 DoOrth=F DoCkMO=T.
 Mixing orbitals, IMix= 1 IMixAn=  0 NRI=1 NE=   73 Coef=  7.07106781D-01  7.07106781D-01
 Mixing orbitals, IMix= 1 IMixAn=  0 NRI=1 NE=   73 Coef= -7.07106781D-01  7.07106781D-01
 Initial guess <Sx>= 0.0000 <Sy>= 0.0000 <Sz>= 0.0000 <S**2>= 1.0000 S= 0.6180
 Leave Link  401 at Tue Jun 11 18:57:23 2019, MaxMem=   104857600 cpu:              46.2 elap:               1.2
 (Enter /project/6004141/group/g16/g16/l502.exe)
 Integral symmetry usage will be decided dynamically.
 UHF open shell SCF:
 Using DIIS extrapolation, IDIIS=  1040.
 NGot=   104857600 LenX=   104517248 LenY=   104356807
 Requested convergence on RMS density matrix=1.00D-08 within 128 cycles.
 Requested convergence on MAX density matrix=1.00D-06.
 Requested convergence on             energy=1.00D-06.
 No special actions if energy rises.
 Fock matrices will be formed incrementally for  20 cycles.

 Cycle   1  Pass 1  IDiag  1:
 FoFJK:  IHMeth= 1 ICntrl=       0 DoSepK=F KAlg= 0 I1Cent=           0 FoldK=F
 IRaf= 810000000 NMat=       1 IRICut=       1 DoRegI=T DoRafI=F ISym2E= 0 IDoP0=0 IntGTp=1.
 FoFCou: FMM=F IPFlag=           0 FMFlag=      100000 FMFlg1=           0
         NFxFlg=           0 DoJE=F BraDBF=F KetDBF=F FulRan=T
         wScrn=  0.000000 ICntrl=         0 IOpCl=  1 I1Cent=           0 NGrid=           0
         NMat0=    1 NMatS0=      1 NMatT0=    0 NMatD0=    1 NMtDS0=    0 NMtDT0=    0
 Symmetry not used in FoFCou.
 CoulSu:  requested number of processors reduced to:  39 ShMem   1 Linda.
 Inv3:  Mode=1 IEnd=    21563283.
 Iteration    1 A*A^-1 deviation from unit magnitude is 3.00D-15 for    344.
 Iteration    1 A*A^-1 deviation from orthogonality  is 1.96D-15 for   1320    169.
 Iteration    1 A^-1*A deviation from unit magnitude is 3.11D-15 for   1653.
 Iteration    1 A^-1*A deviation from orthogonality  is 1.93D-15 for   2134    220.
 CoulSu:  requested number of processors reduced to:  39 ShMem   1 Linda.
 CoulSu:  requested number of processors reduced to:  39 ShMem   1 Linda.
 E= -881.111694084304    
 DIIS: error= 2.24D-02 at cycle   1 NSaved=   1.
 NSaved= 1 IEnMin= 1 EnMin= -881.111694084304     IErMin= 1 ErrMin= 2.24D-02
 ErrMax= 2.24D-02  0.00D+00 EMaxC= 1.00D-01 BMatC= 2.01D+00 BMatP= 2.01D+00
 IDIUse=3 WtCom= 7.76D-01 WtEn= 2.24D-01
 Coeff-Com:  0.100D+01
 Coeff-En:   0.100D+01
 Coeff:      0.100D+01
 Gap=     0.028 Goal=   None    Shift=    0.000
 Gap=     0.030 Goal=   None    Shift=    0.000
 GapD=    0.028 DampG=0.250 DampE=0.500 DampFc=0.2500 IDamp=-1.
 Damping current iteration by 2.50D-01
 RMSDP=4.33D-03 MaxDP=1.74D-01              OVMax= 5.83D-01

 Cycle   2  Pass 1  IDiag  1:
 RMSU=  1.07D-03    CP:  9.88D-01
 E= -881.301663882065     Delta-E=       -0.189969797761 Rises=F Damp=T
 DIIS: error= 1.36D-02 at cycle   2 NSaved=   2.
 NSaved= 2 IEnMin= 2 EnMin= -881.301663882065     IErMin= 2 ErrMin= 1.36D-02
 ErrMax= 1.36D-02  0.00D+00 EMaxC= 1.00D-01 BMatC= 5.30D-01 BMatP= 2.01D+00
 IDIUse=3 WtCom= 8.64D-01 WtEn= 1.36D-01
 Coeff-Com: -0.722D+00 0.172D+01
 Coeff-En:   0.000D+00 0.100D+01
 Coeff:     -0.624D+00 0.162D+01
 Gap=     0.029 Goal=   None    Shift=    0.000
 Gap=     0.032 Goal=   None    Shift=    0.000
 RMSDP=2.30D-03 MaxDP=7.59D-02 DE=-1.90D-01 OVMax= 9.44D-01

 Cycle   3  Pass 1  IDiag  1:
 RMSU=  2.27D-03    CP:  9.66D-01  1.14D+00
 E= -881.215565651550     Delta-E=        0.086098230515 Rises=F Damp=F
 DIIS: error= 2.27D-02 at cycle   3 NSaved=   3.
 NSaved= 3 IEnMin= 2 EnMin= -881.301663882065     IErMin= 2 ErrMin= 1.36D-02
 ErrMax= 2.27D-02  0.00D+00 EMaxC= 1.00D-01 BMatC= 1.19D+00 BMatP= 5.30D-01
 IDIUse=2 WtCom= 0.00D+00 WtEn= 1.00D+00
 Coeff-En:   0.000D+00 0.604D+00 0.396D+00
 Coeff:      0.000D+00 0.604D+00 0.396D+00
 Gap=    -0.085 Goal=   None    Shift=    0.000
 Gap=    -0.180 Goal=   None    Shift=    0.000
 RMSDP=3.62D-03 MaxDP=1.74D-01 DE= 8.61D-02 OVMax= 8.93D-01

 Cycle   4  Pass 1  IDiag  1:
 RMSU=  1.09D-03    CP:  9.60D-01  2.93D+00 -2.65D-01
 E= -881.249689771576     Delta-E=       -0.034124120026 Rises=F Damp=F
 DIIS: error= 2.93D-02 at cycle   4 NSaved=   4.
 NSaved= 4 IEnMin= 2 EnMin= -881.301663882065     IErMin= 2 ErrMin= 1.36D-02
 ErrMax= 2.93D-02  0.00D+00 EMaxC= 1.00D-01 BMatC= 1.51D+00 BMatP= 5.30D-01
 IDIUse=2 WtCom= 0.00D+00 WtEn= 1.00D+00
 Coeff-En:   0.000D+00 0.000D+00 0.486D+00 0.514D+00
 Coeff:      0.000D+00 0.000D+00 0.486D+00 0.514D+00
 Gap=     0.266 Goal=   None    Shift=    0.000
 Gap=     0.269 Goal=   None    Shift=    0.000
 RMSDP=1.63D-03 MaxDP=9.97D-02 DE=-3.41D-02 OVMax= 1.90D-01

 Cycle   5  Pass 1  IDiag  1:
 RMSU=  1.24D-03    CP:  9.66D-01  2.09D+00 -6.64D-02  6.85D-01
 E= -881.592456599466     Delta-E=       -0.342766827890 Rises=F Damp=F
 DIIS: error= 7.51D-03 at cycle   5 NSaved=   5.
 NSaved= 5 IEnMin= 5 EnMin= -881.592456599466     IErMin= 5 ErrMin= 7.51D-03
 ErrMax= 7.51D-03  0.00D+00 EMaxC= 1.00D-01 BMatC= 1.78D-01 BMatP= 5.30D-01
 IDIUse=3 WtCom= 9.25D-01 WtEn= 7.51D-02
 Coeff-Com: -0.491D+00 0.784D+00 0.219D+00-0.633D-01 0.550D+00
 Coeff-En:   0.000D+00 0.000D+00 0.178D+00 0.000D+00 0.822D+00
 Coeff:     -0.454D+00 0.726D+00 0.216D+00-0.585D-01 0.571D+00
 Gap=     0.046 Goal=   None    Shift=    0.000
 Gap=     0.041 Goal=   None    Shift=    0.000
 RMSDP=6.11D-04 MaxDP=1.92D-02 DE=-3.43D-01 OVMax= 1.31D-01

 Cycle   6  Pass 1  IDiag  1:
 RMSU=  4.65D-04    CP:  9.64D-01  2.33D+00  1.30D-02  5.11D-01  8.86D-01
 E= -881.625823659072     Delta-E=       -0.033367059606 Rises=F Damp=F
 DIIS: error= 4.10D-03 at cycle   6 NSaved=   6.
 NSaved= 6 IEnMin= 6 EnMin= -881.625823659072     IErMin= 6 ErrMin= 4.10D-03
 ErrMax= 4.10D-03  0.00D+00 EMaxC= 1.00D-01 BMatC= 6.84D-02 BMatP= 1.78D-01
 IDIUse=3 WtCom= 9.59D-01 WtEn= 4.10D-02
 Coeff-Com: -0.331D+00 0.485D+00 0.130D+00-0.156D+00 0.346D+00 0.525D+00
 Coeff-En:   0.000D+00 0.000D+00 0.112D+00 0.000D+00 0.000D+00 0.888D+00
 Coeff:     -0.317D+00 0.465D+00 0.129D+00-0.149D+00 0.332D+00 0.540D+00
 Gap=     0.034 Goal=   None    Shift=    0.000
 Gap=     0.034 Goal=   None    Shift=    0.000
 RMSDP=5.90D-04 MaxDP=2.32D-02 DE=-3.34D-02 OVMax= 1.85D-01

 Cycle   7  Pass 1  IDiag  1:
 RMSU=  3.95D-04    CP:  9.65D-01  2.20D+00  1.49D-01  3.49D-01  1.01D+00
                    CP:  1.33D+00
 E= -881.649224635395     Delta-E=       -0.023400976323 Rises=F Damp=F
 DIIS: error= 1.13D-03 at cycle   7 NSaved=   7.
 NSaved= 7 IEnMin= 7 EnMin= -881.649224635395     IErMin= 7 ErrMin= 1.13D-03
 ErrMax= 1.13D-03  0.00D+00 EMaxC= 1.00D-01 BMatC= 2.90D-03 BMatP= 6.84D-02
 IDIUse=3 WtCom= 9.89D-01 WtEn= 1.13D-02
 Coeff-Com: -0.749D-01 0.103D+00 0.530D-01-0.556D-01 0.101D+00 0.268D+00
 Coeff-Com:  0.606D+00
 Coeff-En:   0.000D+00 0.000D+00 0.000D+00 0.000D+00 0.000D+00 0.000D+00
 Coeff-En:   0.100D+01
 Coeff:     -0.741D-01 0.102D+00 0.524D-01-0.550D-01 0.994D-01 0.265D+00
 Coeff:      0.610D+00
 Gap=     0.035 Goal=   None    Shift=    0.000
 Gap=     0.047 Goal=   None    Shift=    0.000
 RMSDP=3.16D-04 MaxDP=1.34D-02 DE=-2.34D-02 OVMax= 1.29D-01

 Cycle   8  Pass 1  IDiag  1:
 RMSU=  1.61D-04    CP:  9.65D-01  2.08D+00  2.10D-01  3.11D-01  9.55D-01
                    CP:  1.61D+00  1.32D+00
 E= -881.650330673715     Delta-E=       -0.001106038319 Rises=F Damp=F
 DIIS: error= 2.18D-03 at cycle   8 NSaved=   8.
 NSaved= 8 IEnMin= 8 EnMin= -881.650330673715     IErMin= 7 ErrMin= 1.13D-03
 ErrMax= 2.18D-03  0.00D+00 EMaxC= 1.00D-01 BMatC= 4.56D-03 BMatP= 2.90D-03
 IDIUse=3 WtCom= 9.89D-01 WtEn= 1.13D-02
 Coeff-Com: -0.225D-01 0.279D-01 0.196D-01-0.651D-03 0.701D-01 0.103D+00
 Coeff-Com:  0.284D+00 0.518D+00
 Coeff-En:   0.000D+00 0.000D+00 0.000D+00 0.000D+00 0.000D+00 0.000D+00
 Coeff-En:   0.219D+00 0.781D+00
 Coeff:     -0.222D-01 0.276D-01 0.194D-01-0.643D-03 0.693D-01 0.102D+00
 Coeff:      0.283D+00 0.521D+00
 Gap=     0.038 Goal=   None    Shift=    0.000
 Gap=     0.061 Goal=   None    Shift=    0.000
 RMSDP=1.76D-04 MaxDP=8.01D-03 DE=-1.11D-03 OVMax= 6.18D-02

 Cycle   9  Pass 1  IDiag  1:
 RMSU=  8.82D-05    CP:  9.66D-01  2.04D+00  2.14D-01  2.83D-01  8.84D-01
                    CP:  1.65D+00  1.45D+00  1.61D+00
 E= -881.651225638898     Delta-E=       -0.000894965184 Rises=F Damp=F
 DIIS: error= 2.30D-03 at cycle   9 NSaved=   9.
 NSaved= 9 IEnMin= 9 EnMin= -881.651225638898     IErMin= 7 ErrMin= 1.13D-03
 ErrMax= 2.30D-03  0.00D+00 EMaxC= 1.00D-01 BMatC= 4.68D-03 BMatP= 2.90D-03
 IDIUse=3 WtCom= 9.89D-01 WtEn= 1.13D-02
 Coeff-Com: -0.373D-01 0.489D-01 0.210D-01-0.246D-02 0.896D-01 0.108D+00
 Coeff-Com:  0.168D+00 0.346D+00 0.258D+00
 Coeff-En:   0.000D+00 0.000D+00 0.000D+00 0.000D+00 0.000D+00 0.000D+00
 Coeff-En:   0.000D+00 0.000D+00 0.100D+01
 Coeff:     -0.368D-01 0.484D-01 0.208D-01-0.243D-02 0.885D-01 0.107D+00
 Coeff:      0.166D+00 0.342D+00 0.266D+00
 Gap=     0.038 Goal=   None    Shift=    0.000
 Gap=     0.066 Goal=   None    Shift=    0.000
 RMSDP=5.50D-05 MaxDP=2.35D-03 DE=-8.95D-04 OVMax= 1.93D-02

 Cycle  10  Pass 1  IDiag  1:
 RMSU=  1.82D-05    CP:  9.66D-01  2.03D+00  2.10D-01  2.74D-01  8.63D-01
                    CP:  1.63D+00  1.43D+00  1.81D+00  1.24D+00
 E= -881.651848033826     Delta-E=       -0.000622394927 Rises=F Damp=F
 DIIS: error= 2.03D-03 at cycle  10 NSaved=  10.
 NSaved=10 IEnMin=10 EnMin= -881.651848033826     IErMin= 7 ErrMin= 1.13D-03
 ErrMax= 2.03D-03  0.00D+00 EMaxC= 1.00D-01 BMatC= 3.38D-03 BMatP= 2.90D-03
 IDIUse=3 WtCom= 9.89D-01 WtEn= 1.13D-02
 Coeff-Com: -0.479D-01 0.634D-01 0.208D-01-0.629D-02 0.986D-01 0.103D+00
 Coeff-Com: -0.759D-01-0.268D+00-0.965D+00 0.208D+01
 Coeff-En:   0.000D+00 0.000D+00 0.000D+00 0.000D+00 0.000D+00 0.000D+00
 Coeff-En:   0.000D+00 0.000D+00 0.000D+00 0.100D+01
 Coeff:     -0.474D-01 0.626D-01 0.206D-01-0.622D-02 0.975D-01 0.102D+00
 Coeff:     -0.750D-01-0.265D+00-0.954D+00 0.207D+01
 Gap=     0.039 Goal=   None    Shift=    0.000
 Gap=     0.086 Goal=   None    Shift=    0.000
 RMSDP=2.49D-04 MaxDP=1.02D-02 DE=-6.22D-04 OVMax= 7.74D-02

 Cycle  11  Pass 1  IDiag  1:
 RMSU=  2.19D-05    CP:  9.66D-01  1.96D+00  2.15D-01  2.42D-01  7.56D-01
                    CP:  1.61D+00  1.50D+00  2.80D+00  2.36D+00  2.23D+00
 E= -881.653152612873     Delta-E=       -0.001304579047 Rises=F Damp=F
 DIIS: error= 1.72D-03 at cycle  11 NSaved=  11.
 NSaved=11 IEnMin=11 EnMin= -881.653152612873     IErMin= 7 ErrMin= 1.13D-03
 ErrMax= 1.72D-03  0.00D+00 EMaxC= 1.00D-01 BMatC= 2.64D-03 BMatP= 2.90D-03
 IDIUse=3 WtCom= 9.89D-01 WtEn= 1.13D-02
 Coeff-Com: -0.422D-01 0.547D-01 0.109D-01-0.493D-02 0.845D-01 0.670D-01
 Coeff-Com: -0.209D+00-0.518D+00-0.154D+01 0.188D+01 0.122D+01
 Coeff-En:   0.000D+00 0.000D+00 0.000D+00 0.000D+00 0.000D+00 0.000D+00
 Coeff-En:   0.000D+00 0.000D+00 0.000D+00 0.000D+00 0.100D+01
 Coeff:     -0.417D-01 0.540D-01 0.107D-01-0.488D-02 0.836D-01 0.662D-01
 Coeff:     -0.207D+00-0.512D+00-0.152D+01 0.185D+01 0.122D+01
 Gap=     0.042 Goal=   None    Shift=    0.000
 Gap=     0.121 Goal=   None    Shift=    0.000
 RMSDP=3.22D-04 MaxDP=1.46D-02 DE=-1.30D-03 OVMax= 1.11D-01

 Cycle  12  Pass 1  IDiag  1:
 RMSU=  1.76D-04    CP:  9.67D-01  1.87D+00  2.32D-01  2.44D-01  6.06D-01
                    CP:  1.56D+00  1.66D+00  3.00D+00  3.00D+00  1.78D+00
                    CP:  3.00D+00
 E= -881.653831657233     Delta-E=       -0.000679044360 Rises=F Damp=F
 DIIS: error= 1.29D-03 at cycle  12 NSaved=  12.
 NSaved=12 IEnMin=12 EnMin= -881.653831657233     IErMin= 7 ErrMin= 1.13D-03
 ErrMax= 1.29D-03  0.00D+00 EMaxC= 1.00D-01 BMatC= 1.82D-03 BMatP= 2.64D-03
 IDIUse=3 WtCom= 9.89D-01 WtEn= 1.13D-02
 Coeff-Com: -0.295D-01 0.367D-01-0.334D-02-0.548D-02 0.594D-01 0.592D-01
 Coeff-Com:  0.117D+00 0.499D+00 0.831D+00-0.183D+01-0.273D-02 0.126D+01
 Coeff-En:   0.000D+00 0.000D+00 0.000D+00 0.000D+00 0.000D+00 0.000D+00
 Coeff-En:   0.000D+00 0.000D+00 0.000D+00 0.000D+00 0.000D+00 0.100D+01
 Coeff:     -0.292D-01 0.363D-01-0.330D-02-0.542D-02 0.587D-01 0.585D-01
 Coeff:      0.116D+00 0.493D+00 0.822D+00-0.180D+01-0.270D-02 0.126D+01
 Gap=     0.040 Goal=   None    Shift=    0.000
 Gap=     0.121 Goal=   None    Shift=    0.000
 RMSDP=9.46D-05 MaxDP=4.32D-03 DE=-6.79D-04 OVMax= 3.76D-02

 Cycle  13  Pass 1  IDiag  1:
 RMSU=  4.10D-05    CP:  9.67D-01  1.89D+00  2.15D-01  2.64D-01  6.24D-01
                    CP:  1.56D+00  1.62D+00  3.00D+00  3.00D+00  3.00D+00
                    CP:  2.84D+00  6.69D-01
 E= -881.654296651665     Delta-E=       -0.000464994432 Rises=F Damp=F
 DIIS: error= 3.45D-04 at cycle  13 NSaved=  13.
 NSaved=13 IEnMin=13 EnMin= -881.654296651665     IErMin=13 ErrMin= 3.45D-04
 ErrMax= 3.45D-04  0.00D+00 EMaxC= 1.00D-01 BMatC= 1.91D-04 BMatP= 1.82D-03
 IDIUse=3 WtCom= 9.97D-01 WtEn= 3.45D-03
 Coeff-Com: -0.975D-02 0.131D-01-0.497D-02-0.201D-02 0.156D-01 0.253D-01
 Coeff-Com:  0.972D-01 0.296D+00 0.317D+00-0.830D+00-0.236D+00 0.668D+00
 Coeff-Com:  0.652D+00
 Coeff-En:   0.000D+00 0.000D+00 0.000D+00 0.000D+00 0.000D+00 0.000D+00
 Coeff-En:   0.000D+00 0.000D+00 0.000D+00 0.000D+00 0.000D+00 0.000D+00
 Coeff-En:   0.100D+01
 Coeff:     -0.972D-02 0.130D-01-0.496D-02-0.200D-02 0.155D-01 0.252D-01
 Coeff:      0.968D-01 0.295D+00 0.316D+00-0.828D+00-0.235D+00 0.665D+00
 Coeff:      0.653D+00
 Gap=     0.042 Goal=   None    Shift=    0.000
 Gap=     0.126 Goal=   None    Shift=    0.000
 RMSDP=3.34D-05 MaxDP=2.04D-03 DE=-4.65D-04 OVMax= 9.67D-03

 Cycle  14  Pass 1  IDiag  1:
 RMSU=  1.66D-05    CP:  9.67D-01  1.88D+00  2.16D-01  2.66D-01  6.09D-01
                    CP:  1.56D+00  1.65D+00  3.00D+00  3.00D+00  2.96D+00
                    CP:  3.00D+00  7.68D-01  9.37D-01
 E= -881.654337511480     Delta-E=       -0.000040859815 Rises=F Damp=F
 DIIS: error= 2.52D-04 at cycle  14 NSaved=  14.
 NSaved=14 IEnMin=14 EnMin= -881.654337511480     IErMin=14 ErrMin= 2.52D-04
 ErrMax= 2.52D-04  0.00D+00 EMaxC= 1.00D-01 BMatC= 9.72D-05 BMatP= 1.91D-04
 IDIUse=3 WtCom= 9.97D-01 WtEn= 2.52D-03
 Coeff-Com:  0.254D-02-0.286D-02-0.174D-02 0.513D-03-0.693D-02 0.140D-02
 Coeff-Com:  0.311D-01 0.632D-01-0.186D-01 0.774D-01-0.399D+00 0.340D-01
 Coeff-Com:  0.474D+00 0.744D+00
 Coeff-En:   0.000D+00 0.000D+00 0.000D+00 0.000D+00 0.000D+00 0.000D+00
 Coeff-En:   0.000D+00 0.000D+00 0.000D+00 0.000D+00 0.000D+00 0.000D+00
 Coeff-En:   0.000D+00 0.100D+01
 Coeff:      0.253D-02-0.286D-02-0.174D-02 0.512D-03-0.691D-02 0.139D-02
 Coeff:      0.311D-01 0.630D-01-0.186D-01 0.773D-01-0.398D+00 0.339D-01
 Coeff:      0.473D+00 0.745D+00
 Gap=     0.043 Goal=   None    Shift=    0.000
 Gap=     0.129 Goal=   None    Shift=    0.000
 RMSDP=2.02D-05 MaxDP=1.04D-03 DE=-4.09D-05 OVMax= 3.70D-03

 Cycle  15  Pass 1  IDiag  1:
 RMSU=  9.72D-06    CP:  9.67D-01  1.89D+00  2.12D-01  2.73D-01  6.03D-01
                    CP:  1.55D+00  1.65D+00  3.00D+00  3.00D+00  3.00D+00
                    CP:  3.00D+00  7.61D-01  1.20D+00  1.00D+00
 E= -881.654364334386     Delta-E=       -0.000026822906 Rises=F Damp=F
 DIIS: error= 3.52D-05 at cycle  15 NSaved=  15.
 NSaved=15 IEnMin=15 EnMin= -881.654364334386     IErMin=15 ErrMin= 3.52D-05
 ErrMax= 3.52D-05  0.00D+00 EMaxC= 1.00D-01 BMatC= 3.19D-06 BMatP= 9.72D-05
 IDIUse=1 WtCom= 1.00D+00 WtEn= 0.00D+00
 Coeff-Com:  0.160D-02-0.213D-02-0.343D-03 0.151D-03-0.307D-02 0.390D-03
 Coeff-Com:  0.114D-01 0.380D-01 0.504D-01-0.286D-01-0.188D+00 0.343D-01
 Coeff-Com:  0.133D+00 0.302D+00 0.652D+00
 Coeff:      0.160D-02-0.213D-02-0.343D-03 0.151D-03-0.307D-02 0.390D-03
 Coeff:      0.114D-01 0.380D-01 0.504D-01-0.286D-01-0.188D+00 0.343D-01
 Coeff:      0.133D+00 0.302D+00 0.652D+00
 Gap=     0.043 Goal=   None    Shift=    0.000
 Gap=     0.129 Goal=   None    Shift=    0.000
 RMSDP=2.94D-06 MaxDP=1.41D-04 DE=-2.68D-05 OVMax= 4.62D-04

 Cycle  16  Pass 1  IDiag  1:
 RMSU=  2.21D-06    CP:  9.67D-01  1.89D+00  2.12D-01  2.73D-01  6.03D-01
                    CP:  1.55D+00  1.65D+00  3.00D+00  3.00D+00  3.00D+00
                    CP:  3.00D+00  7.64D-01  1.22D+00  1.04D+00  1.12D+00
 E= -881.654364737153     Delta-E=       -0.000000402767 Rises=F Damp=F
 DIIS: error= 4.76D-05 at cycle  16 NSaved=  16.
 NSaved=16 IEnMin=16 EnMin= -881.654364737153     IErMin=15 ErrMin= 3.52D-05
 ErrMax= 4.76D-05  0.00D+00 EMaxC= 1.00D-01 BMatC= 3.36D-06 BMatP= 3.19D-06
 IDIUse=1 WtCom= 1.00D+00 WtEn= 0.00D+00
 Coeff-Com:  0.625D-03-0.929D-03 0.437D-04 0.196D-04-0.575D-03-0.217D-03
 Coeff-Com:  0.607D-02 0.321D-01 0.891D-01-0.142D+00-0.628D-02 0.598D-01
 Coeff-Com: -0.567D-01-0.204D-01 0.321D+00 0.718D+00
 Coeff:      0.625D-03-0.929D-03 0.437D-04 0.196D-04-0.575D-03-0.217D-03
 Coeff:      0.607D-02 0.321D-01 0.891D-01-0.142D+00-0.628D-02 0.598D-01
 Coeff:     -0.567D-01-0.204D-01 0.321D+00 0.718D+00
 Gap=     0.043 Goal=   None    Shift=    0.000
 Gap=     0.129 Goal=   None    Shift=    0.000
 RMSDP=3.73D-06 MaxDP=2.22D-04 DE=-4.03D-07 OVMax= 1.33D-03

 Cycle  17  Pass 1  IDiag  1:
 RMSU=  1.58D-06    CP:  9.67D-01  1.88D+00  2.13D-01  2.73D-01  6.02D-01
                    CP:  1.55D+00  1.65D+00  3.00D+00  3.00D+00  3.00D+00
                    CP:  3.00D+00  7.77D-01  1.20D+00  1.07D+00  1.17D+00
                    CP:  1.06D+00
 E= -881.654365999034     Delta-E=       -0.000001261880 Rises=F Damp=F
 DIIS: error= 2.05D-05 at cycle  17 NSaved=  17.
 NSaved=17 IEnMin=17 EnMin= -881.654365999034     IErMin=17 ErrMin= 2.05D-05
 ErrMax= 2.05D-05  0.00D+00 EMaxC= 1.00D-01 BMatC= 4.92D-07 BMatP= 3.19D-06
 IDIUse=1 WtCom= 1.00D+00 WtEn= 0.00D+00
 Coeff-Com:  0.571D-04-0.724D-04 0.223D-04 0.105D-03 0.186D-03-0.904D-03
 Coeff-Com:  0.418D-02 0.173D-01 0.639D-01-0.121D+00 0.441D-01 0.365D-01
 Coeff-Com: -0.654D-01-0.847D-01-0.754D-01 0.141D+00 0.104D+01
 Coeff:      0.571D-04-0.724D-04 0.223D-04 0.105D-03 0.186D-03-0.904D-03
 Coeff:      0.418D-02 0.173D-01 0.639D-01-0.121D+00 0.441D-01 0.365D-01
 Coeff:     -0.654D-01-0.847D-01-0.754D-01 0.141D+00 0.104D+01
 Gap=     0.043 Goal=   None    Shift=    0.000
 Gap=     0.129 Goal=   None    Shift=    0.000
 RMSDP=4.75D-06 MaxDP=2.58D-04 DE=-1.26D-06 OVMax= 1.80D-03

 Cycle  18  Pass 1  IDiag  1:
 RMSU=  9.06D-07    CP:  9.67D-01  1.88D+00  2.14D-01  2.72D-01  6.00D-01
                    CP:  1.55D+00  1.65D+00  3.00D+00  3.00D+00  3.00D+00
                    CP:  3.00D+00  7.95D-01  1.18D+00  1.11D+00  1.20D+00
                    CP:  1.31D+00  1.80D+00
 E= -881.654366487844     Delta-E=       -0.000000488811 Rises=F Damp=F
 DIIS: error= 9.17D-06 at cycle  18 NSaved=  18.
 NSaved=18 IEnMin=18 EnMin= -881.654366487844     IErMin=18 ErrMin= 9.17D-06
 ErrMax= 9.17D-06  0.00D+00 EMaxC= 1.00D-01 BMatC= 8.19D-08 BMatP= 4.92D-07
 IDIUse=1 WtCom= 1.00D+00 WtEn= 0.00D+00
 Coeff-Com: -0.460D-04 0.787D-04-0.334D-05 0.912D-04 0.142D-03-0.631D-03
 Coeff-Com:  0.219D-02 0.663D-02 0.302D-01-0.537D-01 0.129D-01 0.107D-01
 Coeff-Com: -0.194D-01-0.294D-01-0.858D-01-0.903D-01 0.570D+00 0.646D+00
 Coeff:     -0.460D-04 0.787D-04-0.334D-05 0.912D-04 0.142D-03-0.631D-03
 Coeff:      0.219D-02 0.663D-02 0.302D-01-0.537D-01 0.129D-01 0.107D-01
 Coeff:     -0.194D-01-0.294D-01-0.858D-01-0.903D-01 0.570D+00 0.646D+00
 Gap=     0.043 Goal=   None    Shift=    0.000
 Gap=     0.129 Goal=   None    Shift=    0.000
 RMSDP=1.87D-06 MaxDP=9.28D-05 DE=-4.89D-07 OVMax= 6.19D-04

 Cycle  19  Pass 1  IDiag  1:
 RMSU=  3.26D-07    CP:  9.67D-01  1.88D+00  2.14D-01  2.72D-01  6.00D-01
                    CP:  1.55D+00  1.65D+00  3.00D+00  3.00D+00  3.00D+00
                    CP:  3.00D+00  8.02D-01  1.18D+00  1.13D+00  1.21D+00
                    CP:  1.37D+00  2.09D+00  1.07D+00
 E= -881.654366559007     Delta-E=       -0.000000071163 Rises=F Damp=F
 DIIS: error= 4.48D-06 at cycle  19 NSaved=  19.
 NSaved=19 IEnMin=19 EnMin= -881.654366559007     IErMin=19 ErrMin= 4.48D-06
 ErrMax= 4.48D-06  0.00D+00 EMaxC= 1.00D-01 BMatC= 1.83D-08 BMatP= 8.19D-08
 IDIUse=1 WtCom= 1.00D+00 WtEn= 0.00D+00
 Coeff-Com: -0.608D-05 0.133D-04-0.742D-05 0.437D-04-0.209D-05-0.212D-03
 Coeff-Com:  0.274D-03-0.285D-03 0.365D-02-0.466D-02-0.275D-02-0.227D-02
 Coeff-Com:  0.300D-02 0.275D-02-0.169D-01-0.616D-01 0.507D-01 0.289D+00
 Coeff-Com:  0.740D+00
 Coeff:     -0.608D-05 0.133D-04-0.742D-05 0.437D-04-0.209D-05-0.212D-03
 Coeff:      0.274D-03-0.285D-03 0.365D-02-0.466D-02-0.275D-02-0.227D-02
 Coeff:      0.300D-02 0.275D-02-0.169D-01-0.616D-01 0.507D-01 0.289D+00
 Coeff:      0.740D+00
 Gap=     0.043 Goal=   None    Shift=    0.000
 Gap=     0.129 Goal=   None    Shift=    0.000
 RMSDP=1.13D-06 MaxDP=5.44D-05 DE=-7.12D-08 OVMax= 3.92D-04

 Cycle  20  Pass 1  IDiag  1:
 RMSU=  1.54D-07    CP:  9.67D-01  1.88D+00  2.14D-01  2.72D-01  5.99D-01
                    CP:  1.55D+00  1.65D+00  3.00D+00  3.00D+00  3.00D+00
                    CP:  3.00D+00  8.06D-01  1.18D+00  1.14D+00  1.22D+00
                    CP:  1.39D+00  2.20D+00  1.26D+00  1.17D+00
 E= -881.654366571879     Delta-E=       -0.000000012871 Rises=F Damp=F
 DIIS: error= 1.53D-06 at cycle  20 NSaved=  20.
 NSaved=20 IEnMin=20 EnMin= -881.654366571879     IErMin=20 ErrMin= 1.53D-06
 ErrMax= 1.53D-06  0.00D+00 EMaxC= 1.00D-01 BMatC= 4.52D-09 BMatP= 1.83D-08
 IDIUse=1 WtCom= 1.00D+00 WtEn= 0.00D+00
 Coeff-Com: -0.546D-05 0.444D-05 0.359D-05-0.836D-05-0.795D-05 0.952D-04
 Coeff-Com: -0.697D-03-0.272D-02-0.813D-02 0.141D-01-0.181D-02-0.470D-02
 Coeff-Com:  0.508D-02 0.541D-02 0.163D-01 0.115D-01-0.128D+00-0.927D-01
 Coeff-Com:  0.267D+00 0.920D+00
 Coeff:     -0.546D-05 0.444D-05 0.359D-05-0.836D-05-0.795D-05 0.952D-04
 Coeff:     -0.697D-03-0.272D-02-0.813D-02 0.141D-01-0.181D-02-0.470D-02
 Coeff:      0.508D-02 0.541D-02 0.163D-01 0.115D-01-0.128D+00-0.927D-01
 Coeff:      0.267D+00 0.920D+00
 Gap=     0.043 Goal=   None    Shift=    0.000
 Gap=     0.130 Goal=   None    Shift=    0.000
 RMSDP=4.41D-07 MaxDP=1.95D-05 DE=-1.29D-08 OVMax= 1.49D-04

 Cycle  21  Pass 1  IDiag  1:
 Restarting incremental Fock formation.
 E= -881.654366572629     Delta-E=       -0.000000000750 Rises=F Damp=F
 DIIS: error= 1.31D-06 at cycle  21 NSaved=  20.
 NSaved=20 IEnMin=20 EnMin= -881.654366572629     IErMin=20 ErrMin= 1.31D-06
 ErrMax= 1.31D-06  0.00D+00 EMaxC= 1.00D-01 BMatC= 1.85D-09 BMatP= 4.52D-09
 IDIUse=1 WtCom= 1.00D+00 WtEn= 0.00D+00
 Coeff-Com: -0.420D-05 0.708D-05-0.170D-04 0.350D-05 0.987D-04-0.418D-03
 Coeff-Com: -0.125D-02-0.487D-02 0.819D-02 0.486D-03-0.205D-02 0.904D-03
 Coeff-Com:  0.314D-03 0.949D-02 0.287D-01-0.451D-01-0.124D+00-0.119D+00
 Coeff-Com:  0.348D+00 0.900D+00
 Coeff:     -0.420D-05 0.708D-05-0.170D-04 0.350D-05 0.987D-04-0.418D-03
 Coeff:     -0.125D-02-0.487D-02 0.819D-02 0.486D-03-0.205D-02 0.904D-03
 Coeff:      0.314D-03 0.949D-02 0.287D-01-0.451D-01-0.124D+00-0.119D+00
 Coeff:      0.348D+00 0.900D+00
 Gap=     0.043 Goal=   None    Shift=    0.000
 Gap=     0.130 Goal=   None    Shift=    0.000
 RMSDP=3.25D-07 MaxDP=1.58D-05 DE=-7.50D-10 OVMax= 1.23D-04

 Cycle  22  Pass 1  IDiag  1:
 RMSU=  3.25D-07    CP:  1.00D+00
 E= -881.654366574835     Delta-E=       -0.000000002206 Rises=F Damp=F
 DIIS: error= 6.35D-07 at cycle  22 NSaved=  20.
 NSaved=20 IEnMin=20 EnMin= -881.654366574835     IErMin=20 ErrMin= 6.35D-07
 ErrMax= 6.35D-07  0.00D+00 EMaxC= 1.00D-01 BMatC= 4.34D-10 BMatP= 1.85D-09
 IDIUse=1 WtCom= 1.00D+00 WtEn= 0.00D+00
 Coeff-Com: -0.469D-06-0.624D-05 0.616D-05 0.213D-04 0.755D-04 0.204D-03
 Coeff-Com: -0.471D-03 0.441D-04 0.161D-02 0.239D-03-0.127D-02-0.191D-02
 Coeff-Com: -0.451D-02 0.432D-02 0.222D-01-0.188D-01-0.121D+00-0.155D+00
 Coeff-Com:  0.326D+00 0.947D+00
 Coeff:     -0.469D-06-0.624D-05 0.616D-05 0.213D-04 0.755D-04 0.204D-03
 Coeff:     -0.471D-03 0.441D-04 0.161D-02 0.239D-03-0.127D-02-0.191D-02
 Coeff:     -0.451D-02 0.432D-02 0.222D-01-0.188D-01-0.121D+00-0.155D+00
 Coeff:      0.326D+00 0.947D+00
 Gap=     0.043 Goal=   None    Shift=    0.000
 Gap=     0.129 Goal=   None    Shift=    0.000
 RMSDP=2.25D-07 MaxDP=1.03D-05 DE=-2.21D-09 OVMax= 7.38D-05

 Cycle  23  Pass 1  IDiag  1:
 RMSU=  8.03D-08    CP:  1.00D+00  1.65D+00
 E= -881.654366575232     Delta-E=       -0.000000000397 Rises=F Damp=F
 DIIS: error= 1.32D-07 at cycle  23 NSaved=  20.
 NSaved=20 IEnMin=20 EnMin= -881.654366575232     IErMin=20 ErrMin= 1.32D-07
 ErrMax= 1.32D-07  0.00D+00 EMaxC= 1.00D-01 BMatC= 6.33D-11 BMatP= 4.34D-10
 IDIUse=1 WtCom= 1.00D+00 WtEn= 0.00D+00
 Coeff-Com:  0.864D-06 0.122D-05-0.970D-05 0.100D-03 0.274D-03 0.419D-03
 Coeff-Com: -0.118D-02 0.863D-03 0.371D-03-0.102D-02-0.104D-02-0.398D-02
 Coeff-Com: -0.325D-02 0.166D-01 0.114D-01-0.375D-01-0.130D+00 0.163D-01
 Coeff-Com:  0.481D+00 0.651D+00
 Coeff:      0.864D-06 0.122D-05-0.970D-05 0.100D-03 0.274D-03 0.419D-03
 Coeff:     -0.118D-02 0.863D-03 0.371D-03-0.102D-02-0.104D-02-0.398D-02
 Coeff:     -0.325D-02 0.166D-01 0.114D-01-0.375D-01-0.130D+00 0.163D-01
 Coeff:      0.481D+00 0.651D+00
 Gap=     0.043 Goal=   None    Shift=    0.000
 Gap=     0.129 Goal=   None    Shift=    0.000
 RMSDP=2.25D-08 MaxDP=1.21D-06 DE=-3.97D-10 OVMax= 3.38D-06

 Cycle  24  Pass 1  IDiag  1:
 RMSU=  2.02D-08    CP:  1.00D+00  1.67D+00  1.09D+00
 E= -881.654366575263     Delta-E=       -0.000000000031 Rises=F Damp=F
 DIIS: error= 9.28D-08 at cycle  24 NSaved=  20.
 NSaved=20 IEnMin=20 EnMin= -881.654366575263     IErMin=20 ErrMin= 9.28D-08
 ErrMax= 9.28D-08  0.00D+00 EMaxC= 1.00D-01 BMatC= 1.21D-11 BMatP= 6.33D-11
 IDIUse=1 WtCom= 1.00D+00 WtEn= 0.00D+00
 Coeff-Com: -0.241D-05-0.649D-05 0.346D-04 0.141D-03 0.484D-03-0.723D-03
 Coeff-Com: -0.333D-03 0.211D-03-0.682D-04 0.326D-03 0.662D-03-0.117D-02
 Coeff-Com: -0.143D-02 0.630D-02 0.980D-02-0.830D-02-0.538D-01-0.974D-01
 Coeff-Com:  0.226D+00 0.919D+00
 Coeff:     -0.241D-05-0.649D-05 0.346D-04 0.141D-03 0.484D-03-0.723D-03
 Coeff:     -0.333D-03 0.211D-03-0.682D-04 0.326D-03 0.662D-03-0.117D-02
 Coeff:     -0.143D-02 0.630D-02 0.980D-02-0.830D-02-0.538D-01-0.974D-01
 Coeff:      0.226D+00 0.919D+00
 Gap=     0.043 Goal=   None    Shift=    0.000
 Gap=     0.129 Goal=   None    Shift=    0.000
 RMSDP=2.67D-08 MaxDP=1.23D-06 DE=-3.12D-11 OVMax= 7.27D-06

 Cycle  25  Pass 1  IDiag  1:
 RMSU=  1.37D-08    CP:  1.00D+00  1.61D+00  9.72D-01  1.51D+00
 E= -881.654366575277     Delta-E=       -0.000000000014 Rises=F Damp=F
 DIIS: error= 7.98D-08 at cycle  25 NSaved=  20.
 NSaved=20 IEnMin=20 EnMin= -881.654366575277     IErMin=20 ErrMin= 7.98D-08
 ErrMax= 7.98D-08  0.00D+00 EMaxC= 1.00D-01 BMatC= 6.57D-12 BMatP= 1.21D-11
 IDIUse=1 WtCom= 1.00D+00 WtEn= 0.00D+00
[...]
                    CP:  1.52D+00  1.55D+00  2.42D+00  3.00D+00  2.51D+00
                    CP:  1.55D+00  7.50D-01  1.16D+00  8.86D-01
 E= -881.658818340700     Delta-E=       -0.000002000639 Rises=F Damp=F
 DIIS: error= 2.28D-05 at cycle  15 NSaved=  15.
 NSaved=15 IEnMin=15 EnMin= -881.658818340700     IErMin=15 ErrMin= 2.28D-05
 ErrMax= 2.28D-05  0.00D+00 EMaxC= 1.00D-01 BMatC= 4.57D-07 BMatP= 2.85D-06
 IDIUse=1 WtCom= 1.00D+00 WtEn= 0.00D+00
 Coeff-Com:  0.851D-03-0.105D-02 0.378D-03 0.414D-03-0.133D-02-0.202D-02
 Coeff-Com:  0.186D-02 0.141D-01 0.139D-01-0.416D-01-0.154D-01-0.183D-01
 Coeff-Com:  0.831D-02 0.190D+00 0.850D+00
 Coeff:      0.851D-03-0.105D-02 0.378D-03 0.414D-03-0.133D-02-0.202D-02
 Coeff:      0.186D-02 0.141D-01 0.139D-01-0.416D-01-0.154D-01-0.183D-01
 Coeff:      0.831D-02 0.190D+00 0.850D+00
 Gap=     0.116 Goal=   None    Shift=    0.000
 Gap=     0.034 Goal=   None    Shift=    0.000
 RMSDP=5.45D-06 MaxDP=3.61D-04 DE=-2.00D-06 OVMax= 2.00D-03

 Cycle  16  Pass 1  IDiag  1:
 RMSU=  1.43D-06    CP:  9.66D-01  1.98D+00  2.37D-01  2.40D-01  5.91D-01
                    CP:  1.52D+00  1.55D+00  2.43D+00  3.00D+00  2.49D+00
                    CP:  1.58D+00  7.75D-01  1.15D+00  1.13D+00  1.34D+00
 E= -881.658819179154     Delta-E=       -0.000000838455 Rises=F Damp=F
 DIIS: error= 3.02D-05 at cycle  16 NSaved=  16.
 NSaved=16 IEnMin=16 EnMin= -881.658819179154     IErMin=15 ErrMin= 2.28D-05
 ErrMax= 3.02D-05  0.00D+00 EMaxC= 1.00D-01 BMatC= 4.72D-07 BMatP= 4.57D-07
 IDIUse=1 WtCom= 1.00D+00 WtEn= 0.00D+00
 Coeff-Com: -0.343D-03 0.451D-03 0.279D-03-0.358D-04 0.722D-03-0.548D-03
 Coeff-Com: -0.110D-02-0.562D-03 0.264D-01-0.401D-01 0.201D-01-0.161D-01
 Coeff-Com: -0.166D+00-0.152D+00 0.489D+00 0.840D+00
 Coeff:     -0.343D-03 0.451D-03 0.279D-03-0.358D-04 0.722D-03-0.548D-03
 Coeff:     -0.110D-02-0.562D-03 0.264D-01-0.401D-01 0.201D-01-0.161D-01
 Coeff:     -0.166D+00-0.152D+00 0.489D+00 0.840D+00
 Gap=     0.117 Goal=   None    Shift=    0.000
 Gap=     0.034 Goal=   None    Shift=    0.000
 RMSDP=4.59D-06 MaxDP=2.93D-04 DE=-8.38D-07 OVMax= 1.39D-03

 Cycle  17  Pass 1  IDiag  1:
 RMSU=  8.48D-07    CP:  9.66D-01  1.98D+00  2.38D-01  2.41D-01  5.89D-01
                    CP:  1.51D+00  1.55D+00  2.45D+00  3.00D+00  2.50D+00
                    CP:  1.61D+00  8.07D-01  1.16D+00  1.25D+00  1.69D+00
                    CP:  1.15D+00
 E= -881.658819612588     Delta-E=       -0.000000433434 Rises=F Damp=F
 DIIS: error= 5.13D-06 at cycle  17 NSaved=  17.
 NSaved=17 IEnMin=17 EnMin= -881.658819612588     IErMin=17 ErrMin= 5.13D-06
 ErrMax= 5.13D-06  0.00D+00 EMaxC= 1.00D-01 BMatC= 3.33D-08 BMatP= 4.57D-07
 IDIUse=1 WtCom= 1.00D+00 WtEn= 0.00D+00
 Coeff-Com: -0.161D-03 0.204D-03 0.584D-04-0.787D-05 0.351D-03-0.162D-03
 Coeff-Com:  0.124D-02 0.285D-02 0.123D-01-0.260D-01 0.117D-01-0.334D-03
 Coeff-Com: -0.550D-01-0.885D-01 0.693D-01 0.371D+00 0.702D+00
 Coeff:     -0.161D-03 0.204D-03 0.584D-04-0.787D-05 0.351D-03-0.162D-03
 Coeff:      0.124D-02 0.285D-02 0.123D-01-0.260D-01 0.117D-01-0.334D-03
 Coeff:     -0.550D-01-0.885D-01 0.693D-01 0.371D+00 0.702D+00
 Gap=     0.117 Goal=   None    Shift=    0.000
 Gap=     0.034 Goal=   None    Shift=    0.000
 RMSDP=1.62D-06 MaxDP=1.03D-04 DE=-4.33D-07 OVMax= 6.14D-04

 Cycle  18  Pass 1  IDiag  1:
 RMSU=  3.01D-07    CP:  9.66D-01  1.98D+00  2.38D-01  2.41D-01  5.88D-01
                    CP:  1.51D+00  1.55D+00  2.45D+00  3.00D+00  2.49D+00
                    CP:  1.62D+00  8.12D-01  1.15D+00  1.27D+00  1.77D+00
                    CP:  1.33D+00  1.08D+00
 E= -881.658819654832     Delta-E=       -0.000000042244 Rises=F Damp=F
 DIIS: error= 4.29D-06 at cycle  18 NSaved=  18.
 NSaved=18 IEnMin=18 EnMin= -881.658819654832     IErMin=18 ErrMin= 4.29D-06
 ErrMax= 4.29D-06  0.00D+00 EMaxC= 1.00D-01 BMatC= 1.49D-08 BMatP= 3.33D-08
 IDIUse=1 WtCom= 1.00D+00 WtEn= 0.00D+00
 Coeff-Com:  0.311D-04-0.375D-04-0.406D-04 0.343D-04-0.575D-04-0.639D-04
 Coeff-Com:  0.945D-03 0.101D-02-0.970D-03-0.243D-02 0.907D-03 0.182D-02
 Coeff-Com:  0.149D-01-0.195D-02-0.911D-01-0.257D-01 0.357D+00 0.746D+00
 Coeff:      0.311D-04-0.375D-04-0.406D-04 0.343D-04-0.575D-04-0.639D-04
 Coeff:      0.945D-03 0.101D-02-0.970D-03-0.243D-02 0.907D-03 0.182D-02
 Coeff:      0.149D-01-0.195D-02-0.911D-01-0.257D-01 0.357D+00 0.746D+00
 Gap=     0.117 Goal=   None    Shift=    0.000
 Gap=     0.034 Goal=   None    Shift=    0.000
 RMSDP=9.48D-07 MaxDP=5.79D-05 DE=-4.22D-08 OVMax= 3.65D-04

 Cycle  19  Pass 1  IDiag  1:
 RMSU=  1.90D-07    CP:  9.66D-01  1.98D+00  2.38D-01  2.41D-01  5.88D-01
                    CP:  1.51D+00  1.55D+00  2.45D+00  3.00D+00  2.48D+00
                    CP:  1.62D+00  8.14D-01  1.15D+00  1.27D+00  1.81D+00
                    CP:  1.41D+00  1.25D+00  1.10D+00
 E= -881.658819661890     Delta-E=       -0.000000007058 Rises=F Damp=F
 DIIS: error= 4.91D-06 at cycle  19 NSaved=  19.
 NSaved=19 IEnMin=19 EnMin= -881.658819661890     IErMin=18 ErrMin= 4.29D-06
 ErrMax= 4.91D-06  0.00D+00 EMaxC= 1.00D-01 BMatC= 1.63D-08 BMatP= 1.49D-08
 IDIUse=1 WtCom= 1.00D+00 WtEn= 0.00D+00
 Coeff-Com:  0.445D-05-0.277D-05-0.166D-04-0.187D-05-0.448D-04 0.575D-04
 Coeff-Com: -0.463D-03-0.140D-02-0.417D-02 0.818D-02-0.448D-02-0.158D-02
 Coeff-Com:  0.177D-01 0.351D-01-0.279D-01-0.119D+00-0.135D+00 0.225D+00
 Coeff-Com:  0.101D+01
 Coeff:      0.445D-05-0.277D-05-0.166D-04-0.187D-05-0.448D-04 0.575D-04
 Coeff:     -0.463D-03-0.140D-02-0.417D-02 0.818D-02-0.448D-02-0.158D-02
 Coeff:      0.177D-01 0.351D-01-0.279D-01-0.119D+00-0.135D+00 0.225D+00
 Coeff:      0.101D+01
 Gap=     0.117 Goal=   None    Shift=    0.000
 Gap=     0.034 Goal=   None    Shift=    0.000
 RMSDP=3.13D-07 MaxDP=1.47D-05 DE=-7.06D-09 OVMax= 4.32D-05

 Cycle  20  Pass 1  IDiag  1:
 RMSU=  9.72D-08    CP:  9.66D-01  1.98D+00  2.38D-01  2.41D-01  5.87D-01
                    CP:  1.51D+00  1.55D+00  2.46D+00  3.00D+00  2.49D+00
                    CP:  1.63D+00  8.16D-01  1.15D+00  1.28D+00  1.82D+00
                    CP:  1.46D+00  1.36D+00  1.46D+00  1.33D+00
 E= -881.658819667911     Delta-E=       -0.000000006021 Rises=F Damp=F
 DIIS: error= 9.83D-07 at cycle  20 NSaved=  20.
 NSaved=20 IEnMin=20 EnMin= -881.658819667911     IErMin=20 ErrMin= 9.83D-07
 ErrMax= 9.83D-07  0.00D+00 EMaxC= 1.00D-01 BMatC= 1.15D-09 BMatP= 1.49D-08
 IDIUse=1 WtCom= 1.00D+00 WtEn= 0.00D+00
 Coeff-Com: -0.200D-04 0.248D-04 0.844D-05-0.199D-04 0.178D-04 0.751D-04
 Coeff-Com: -0.840D-03-0.179D-02-0.221D-02 0.709D-02-0.324D-02-0.260D-02
 Coeff-Com:  0.180D-02 0.222D-01 0.245D-01-0.562D-01-0.206D+00-0.134D+00
 Coeff-Com:  0.575D+00 0.776D+00
 Coeff:     -0.200D-04 0.248D-04 0.844D-05-0.199D-04 0.178D-04 0.751D-04
 Coeff:     -0.840D-03-0.179D-02-0.221D-02 0.709D-02-0.324D-02-0.260D-02
 Coeff:      0.180D-02 0.222D-01 0.245D-01-0.562D-01-0.206D+00-0.134D+00
 Coeff:      0.575D+00 0.776D+00
 Gap=     0.117 Goal=   None    Shift=    0.000
 Gap=     0.034 Goal=   None    Shift=    0.000
 RMSDP=1.98D-07 MaxDP=1.40D-05 DE=-6.02D-09 OVMax= 6.94D-05

 Cycle  21  Pass 1  IDiag  1:
 Restarting incremental Fock formation.
 E= -881.658819668851     Delta-E=       -0.000000000940 Rises=F Damp=F
 DIIS: error= 1.84D-06 at cycle  21 NSaved=  20.
 NSaved=20 IEnMin=20 EnMin= -881.658819668851     IErMin=19 ErrMin= 9.83D-07
 ErrMax= 1.84D-06  0.00D+00 EMaxC= 1.00D-01 BMatC= 1.57D-09 BMatP= 1.15D-09
 IDIUse=1 WtCom= 1.00D+00 WtEn= 0.00D+00
 Coeff-Com: -0.115D-05 0.532D-05-0.709D-05 0.466D-05 0.197D-04-0.274D-03
 Coeff-Com: -0.618D-03-0.130D-03 0.203D-02-0.128D-03-0.819D-03-0.422D-02
 Coeff-Com: -0.996D-03 0.135D-01 0.714D-02-0.356D-01-0.966D-01-0.375D-01
 Coeff-Com:  0.291D+00 0.864D+00
 Coeff:     -0.115D-05 0.532D-05-0.709D-05 0.466D-05 0.197D-04-0.274D-03
 Coeff:     -0.618D-03-0.130D-03 0.203D-02-0.128D-03-0.819D-03-0.422D-02
 Coeff:     -0.996D-03 0.135D-01 0.714D-02-0.356D-01-0.966D-01-0.375D-01
 Coeff:      0.291D+00 0.864D+00
 Gap=     0.117 Goal=   None    Shift=    0.000
 Gap=     0.034 Goal=   None    Shift=    0.000
 RMSDP=1.62D-07 MaxDP=9.52D-06 DE=-9.40D-10 OVMax= 4.78D-05

 Cycle  22  Pass 1  IDiag  1:
 RMSU=  1.61D-07    CP:  1.00D+00
 E= -881.658819669425     Delta-E=       -0.000000000574 Rises=F Damp=F
 DIIS: error= 6.64D-07 at cycle  22 NSaved=  20.
 NSaved=20 IEnMin=20 EnMin= -881.658819669425     IErMin=20 ErrMin= 6.64D-07
 ErrMax= 6.64D-07  0.00D+00 EMaxC= 1.00D-01 BMatC= 2.50D-10 BMatP= 1.15D-09
 IDIUse=1 WtCom= 1.00D+00 WtEn= 0.00D+00
 Coeff-Com:  0.747D-06 0.216D-05 0.338D-05-0.441D-05-0.211D-04-0.289D-04
 Coeff-Com:  0.316D-03-0.514D-04 0.519D-03 0.840D-04-0.248D-02-0.491D-02
 Coeff-Com:  0.199D-02 0.137D-01 0.162D-01-0.275D-01-0.102D+00 0.484D-02
 Coeff-Com:  0.397D+00 0.703D+00
 Coeff:      0.747D-06 0.216D-05 0.338D-05-0.441D-05-0.211D-04-0.289D-04
 Coeff:      0.316D-03-0.514D-04 0.519D-03 0.840D-04-0.248D-02-0.491D-02
 Coeff:      0.199D-02 0.137D-01 0.162D-01-0.275D-01-0.102D+00 0.484D-02
 Coeff:      0.397D+00 0.703D+00
 Gap=     0.117 Goal=   None    Shift=    0.000
 Gap=     0.034 Goal=   None    Shift=    0.000
 RMSDP=4.26D-08 MaxDP=2.33D-06 DE=-5.74D-10 OVMax= 9.05D-06

 Cycle  23  Pass 1  IDiag  1:
 RMSU=  1.69D-08    CP:  1.00D+00  1.24D+00
 E= -881.658819669489     Delta-E=       -0.000000000064 Rises=F Damp=F
 DIIS: error= 1.04D-07 at cycle  23 NSaved=  20.
 NSaved=20 IEnMin=20 EnMin= -881.658819669489     IErMin=20 ErrMin= 1.04D-07
 ErrMax= 1.04D-07  0.00D+00 EMaxC= 1.00D-01 BMatC= 1.89D-11 BMatP= 2.50D-10
 IDIUse=1 WtCom= 1.00D+00 WtEn= 0.00D+00
 Coeff-Com:  0.989D-07-0.761D-06-0.528D-05 0.625D-04 0.195D-03 0.181D-03
 Coeff-Com: -0.636D-03 0.232D-03 0.305D-03-0.102D-03-0.197D-02-0.127D-02
 Coeff-Com:  0.460D-02 0.855D-02 0.231D-03-0.191D-01-0.475D-01-0.412D-01
 Coeff-Com:  0.296D+00 0.802D+00
 Coeff:      0.989D-07-0.761D-06-0.528D-05 0.625D-04 0.195D-03 0.181D-03
 Coeff:     -0.636D-03 0.232D-03 0.305D-03-0.102D-03-0.197D-02-0.127D-02
 Coeff:      0.460D-02 0.855D-02 0.231D-03-0.191D-01-0.475D-01-0.412D-01
 Coeff:      0.296D+00 0.802D+00
 Gap=     0.117 Goal=   None    Shift=    0.000
 Gap=     0.034 Goal=   None    Shift=    0.000
 RMSDP=1.74D-08 MaxDP=9.26D-07 DE=-6.43D-11 OVMax= 6.46D-06

 Cycle  24  Pass 1  IDiag  1:
 RMSU=  1.38D-08    CP:  1.00D+00  1.18D+00  1.22D+00
 E= -881.658819669498     Delta-E=       -0.000000000009 Rises=F Damp=F
 DIIS: error= 2.46D-08 at cycle  24 NSaved=  20.
 NSaved=20 IEnMin=20 EnMin= -881.658819669498     IErMin=20 ErrMin= 2.46D-08
 ErrMax= 2.46D-08  0.00D+00 EMaxC= 1.00D-01 BMatC= 1.89D-12 BMatP= 1.89D-11
 IDIUse=1 WtCom= 1.00D+00 WtEn= 0.00D+00
 Coeff-Com: -0.915D-06-0.189D-05 0.268D-04 0.972D-04 0.504D-04-0.314D-03
 Coeff-Com:  0.752D-05 0.115D-03 0.321D-03-0.451D-04-0.438D-03 0.208D-04
 Coeff-Com: -0.115D-02 0.143D-02 0.121D-01-0.131D-01-0.814D-01-0.490D-02
 Coeff-Com:  0.324D+00 0.764D+00
 Coeff:     -0.915D-06-0.189D-05 0.268D-04 0.972D-04 0.504D-04-0.314D-03
 Coeff:      0.752D-05 0.115D-03 0.321D-03-0.451D-04-0.438D-03 0.208D-04
 Coeff:     -0.115D-02 0.143D-02 0.121D-01-0.131D-01-0.814D-01-0.490D-02
 Coeff:      0.324D+00 0.764D+00
 Gap=     0.117 Goal=   None    Shift=    0.000
 Gap=     0.034 Goal=   None    Shift=    0.000
 RMSDP=1.37D-08 MaxDP=7.82D-07 DE=-8.64D-12 OVMax= 5.16D-06

 Cycle  25  Pass 1  IDiag  1:
 RMSU=  3.51D-09    CP:  1.00D+00  1.11D+00  1.38D+00  1.43D+00
 E= -881.658819669493     Delta-E=        0.000000000005 Rises=F Damp=F
 DIIS: error= 1.10D-08 at cycle  25 NSaved=  20.
 NSaved=20 IEnMin=19 EnMin= -881.658819669498     IErMin=20 ErrMin= 1.10D-08
 ErrMax= 1.10D-08  0.00D+00 EMaxC= 1.00D-01 BMatC= 4.52D-13 BMatP= 1.89D-12
 IDIUse=1 WtCom= 1.00D+00 WtEn= 0.00D+00
 Coeff-Com:  0.182D-06 0.123D-05 0.116D-04 0.341D-05-0.587D-04-0.269D-04
 Coeff-Com:  0.599D-05 0.143D-03 0.298D-03 0.277D-04-0.623D-03-0.197D-02
 Coeff-Com:  0.748D-03 0.850D-02 0.290D-02-0.316D-01-0.642D-01-0.685D-02
 Coeff-Com:  0.379D+00 0.713D+00
 Coeff:      0.182D-06 0.123D-05 0.116D-04 0.341D-05-0.587D-04-0.269D-04
 Coeff:      0.599D-05 0.143D-03 0.298D-03 0.277D-04-0.623D-03-0.197D-02
 Coeff:      0.748D-03 0.850D-02 0.290D-02-0.316D-01-0.642D-01-0.685D-02
 Coeff:      0.379D+00 0.713D+00
 Gap=     0.117 Goal=   None    Shift=    0.000
 Gap=     0.034 Goal=   None    Shift=    0.000
 RMSDP=6.95D-09 MaxDP=3.95D-07 DE= 4.55D-12 OVMax= 2.70D-06

 Error on total polarization charges =  0.01007
 SCF Done:  E(UB3LYP) =  -881.658819669     A.U. after   25 cycles
            NFock= 25  Conv=0.70D-08     -V/T= 2.0096
 <Sx>= 0.0000 <Sy>= 0.0000 <Sz>= 0.0000 <S**2>= 0.4882 S= 0.3592
 <L.S>=  0.00000000000    
 KE= 8.733042088755D+02 PE=-5.200713926262D+03 EE= 1.870477089362D+03
 Annihilation of the first spin contaminant:
 S**2 before annihilation     0.4882,   after     0.0120
 Leave Link  502 at Tue Jun 11 19:31:41 2019, MaxMem=   104857600 cpu:            2382.5 elap:              60.8
 (Enter /project/6004141/group/g16/g16/l701.exe)
 ... and contract with generalized density number  0.
 Compute integral first derivatives.
 R6Disp: Adding Grimme-D3 dispersion energy 1st derivatives to the gradient.
 PrsmSu:  requested number of processors reduced to:  28 ShMem   1 Linda.
 D1PCM: PCM CHGder 1st derivatives, ID1Alg=3 FixD1E=F DoIter=F DoCFld=F I1PDM=0.
 GePol: Maximum number of non-zero 1st derivatives   =     230
 CoulSu:  requested number of processors reduced to:  27 ShMem   1 Linda.
 CoulSu:  requested number of processors reduced to:  28 ShMem   1 Linda.
 Leave Link  701 at Tue Jun 11 19:31:42 2019, MaxMem=   104857600 cpu:              41.2 elap:               1.1
 (Enter /project/6004141/group/g16/g16/l702.exe)
 L702 exits ... SP integral derivatives will be done elsewhere.
 Leave Link  702 at Tue Jun 11 19:31:42 2019, MaxMem=   104857600 cpu:               1.3 elap:               0.1
 (Enter /project/6004141/group/g16/g16/l703.exe)
 Integral derivatives from FoFJK, PRISM(SPDF).
 Compute integral first derivatives, UseDBF=F ICtDFT=           0.
 Calling FoFJK, ICntrl=      2127 FMM=F ISym2X=0 I1Cent= 0 IOpClX= 1 NMat=1 NMatS=1 NMatT=0.
 FoFJK:  IHMeth= 1 ICntrl=    2127 DoSepK=F KAlg= 0 I1Cent=           0 FoldK=F
 IRaf=         0 NMat=       1 IRICut=       1 DoRegI=T DoRafI=F ISym2E= 0 IDoP0=0 IntGTp=1.
 FoFCou: FMM=F IPFlag=           0 FMFlag=      100000 FMFlg1=         800
         NFxFlg=           0 DoJE=F BraDBF=F KetDBF=F FulRan=T
         wScrn=  0.000000 ICntrl=      2127 IOpCl=  1 I1Cent=           0 NGrid=           0
         NMat0=    1 NMatS0=      1 NMatT0=    0 NMatD0=    1 NMtDS0=    0 NMtDT0=    0
 Symmetry not used in FoFCou.
 Leave Link  703 at Tue Jun 11 19:31:47 2019, MaxMem=   104857600 cpu:             191.4 elap:               4.8
 (Enter /project/6004141/group/g16/g16/l716.exe)
 Dipole        = 6.03524673D-02 2.20762961D-01 2.24820561D-01
 ***** Axes restored to original set *****
 -------------------------------------------------------------------
 Center     Atomic                   Forces (Hartrees/Bohr)
 Number     Number              X              Y              Z
 -------------------------------------------------------------------
      1        6           0.001394619    0.000188500   -0.000526437
      2        1          -0.000591262    0.000114090   -0.000058822
      3        6          -0.000575361   -0.001482507    0.000093951
      4        8           0.000104066    0.001748757   -0.001241943
      5        8          -0.000383727   -0.001989576    0.000562809
      6        7           0.001786293   -0.001162870   -0.003013978
      7        1           0.000225423   -0.000147598    0.000133560
      8        7           0.000077662   -0.000236536   -0.000084688
      9        1          -0.001665592    0.000277453    0.000327624
     10        1          -0.000941527    0.002201805    0.003905133
     11        6           0.000349354    0.000266587   -0.000100581
     12        1          -0.000326675    0.000156338   -0.000063851
     13        1           0.000011849   -0.000106996   -0.000188980
     14        1          -0.000058196    0.000068747   -0.000014729
     15        6           0.000555886    0.000647629   -0.000458139
     16        1           0.000084444   -0.000212448    0.000139762
     17        1          -0.000220787    0.000027770   -0.000047769
     18        1          -0.000209855   -0.000041527    0.000148989
     19        6          -0.000711752    0.000297840    0.000728910
     20        6           0.000133700   -0.000412901   -0.000265110
     21        6           0.000182602   -0.000322453   -0.000133536
     22        6          -0.000010216   -0.000283126    0.000002048
     23        1           0.000129611   -0.000082938   -0.000015434
     24        6           0.000055709    0.000225041    0.000040409
     25        1           0.000027703   -0.000026854   -0.000044613
     26        6           0.000126705    0.000018482   -0.000044856
     27        1          -0.000015466    0.000049618   -0.000014126
     28        1           0.000049283   -0.000021192    0.000004804
     29        1          -0.000003582   -0.000030532   -0.000017414
     30        6          -0.000640921   -0.000719439   -0.000590001
     31        6           0.000105907    0.000551733    0.000238002
     32        6           0.000558142    0.000238381    0.000357189
     33        6          -0.000141920    0.000190686   -0.000016118
     34        1           0.000137955    0.000085297    0.000094319
     35        6           0.000193301   -0.000151740    0.000014290
     36        1           0.000043525    0.000067106    0.000033461
     37        6           0.000120596    0.000008145    0.000073671
     38        1          -0.000023703    0.000014328   -0.000002254
     39        1           0.000051097   -0.000017497    0.000041849
     40        1           0.000015108    0.000004399    0.000002601
 -------------------------------------------------------------------
 Cartesian Forces:  Max     0.003905133 RMS     0.000692269
 Leave Link  716 at Tue Jun 11 19:31:47 2019, MaxMem=   104857600 cpu:               2.1 elap:               0.1
 (Enter /project/6004141/group/g16/g16/l103.exe)

 GradGradGradGradGradGradGradGradGradGradGradGradGradGradGradGradGradGrad
 Berny optimization.
 Tors failed for dihedral     3 -     4 -    10 -     6
 Tors failed for dihedral     7 -     6 -    10 -     4
 Tors failed for dihedral     8 -     6 -    10 -     4
 FormBX had a problem.
 Error termination via Lnk1e in /project/6004141/group/g16/g16/l103.exe at Tue Jun 11 19:31:47 2019.
 Job cpu time:       0 days 22 hours 17 minutes 27.2 seconds.
 Elapsed time:       0 days  0 hours 34 minutes 20.8 seconds.
 File lengths (MBytes):  RWF=   1393 Int=      0 D2E=      0 Chk=     28 Scr=      2
Error: segmentation violation
   rax 0000000000000000, rbx ffffffffffffffff, rcx ffffffffffffffff
   rdx 000000000006a8ac, rsp 00007ffd508bfdf8, rbp 00007ffd508c0370
   rsi 000000000000000b, rdi 000000000006a8ac, r8  0000000000000020
   r9  0000000000000401, r10 00007ffd508bf1e0, r11 0000000000000202
   r12 00007ffd508c03b8, r13 0000000000000000, r14 0000000000000000
   r15 00000000000003e6
  /lib64/libpthread.so.0(+0xf5d0) [0x2b6ffb5945d0]
  /lib64/libc.so.6(kill+0x7) [0x2b6ffbad94d7]
  /project/6004141/group/g16/g16/l103.exe() [0x4afdb9]
  /project/6004141/group/g16/g16/l103.exe() [0x4c7f2a]
  /project/6004141/group/g16/g16/l103.exe() [0x4fcddc]
  /project/6004141/group/g16/g16/l103.exe() [0x4ea34f]
  /project/6004141/group/g16/g16/l103.exe() [0x4e78e5]
  /project/6004141/group/g16/g16/l103.exe() [0x4e6d19]
  /project/6004141/group/g16/g16/l103.exe() [0x562fe8]
  /project/6004141/group/g16/g16/l103.exe() [0x4e9982]
  /project/6004141/group/g16/g16/l103.exe() [0x455f38]
  /project/6004141/group/g16/g16/l103.exe() [0x450bf2]
  /project/6004141/group/g16/g16/l103.exe() [0x450af4]
  /lib64/libc.so.6(__libc_start_main+0xf5) [0x2b6ffbac53d5]
  /project/6004141/group/g16/g16/l103.exe() [0x4509e9]
