 Entering Gaussian System, Link 0=g16
 Initial command:
 /project/6004141/group/g16/g16/l1.exe "/scratch/rzk/Gau-56489.inp" -scrdir="/scratch/rzk/"
 Entering Link 1 = /project/6004141/group/g16/g16/l1.exe PID=     56490.
  
 Copyright (c) 1988,1990,1992,1993,1995,1998,2003,2009,2016,
            Gaussian, Inc.  All Rights Reserved.
  
 This is part of the Gaussian(R) 16 program.  It is based on
 the Gaussian(R) 09 system (copyright 2009, Gaussian, Inc.),
 the Gaussian(R) 03 system (copyright 2003, Gaussian, Inc.),
 the Gaussian(R) 98 system (copyright 1998, Gaussian, Inc.),
 the Gaussian(R) 94 system (copyright 1995, Gaussian, Inc.),
 the Gaussian 92(TM) system (copyright 1992, Gaussian, Inc.),
 the Gaussian 90(TM) system (copyright 1990, Gaussian, Inc.),
 the Gaussian 88(TM) system (copyright 1988, Gaussian, Inc.),
 the Gaussian 86(TM) system (copyright 1986, Carnegie Mellon
 University), and the Gaussian 82(TM) system (copyright 1983,
 Carnegie Mellon University). Gaussian is a federally registered
 trademark of Gaussian, Inc.
  
 This software contains proprietary and confidential information,
 including trade secrets, belonging to Gaussian, Inc.
  
 This software is provided under written license and may be
 used, copied, transmitted, or stored only in accord with that
 written license.
  
 The following legend is applicable only to US Government
 contracts under FAR:
  
                    RESTRICTED RIGHTS LEGEND
  
 Use, reproduction and disclosure by the US Government is
 subject to restrictions as set forth in subparagraphs (a)
 and (c) of the Commercial Computer Software - Restricted
 Rights clause in FAR 52.227-19.
  
 Gaussian, Inc.
 340 Quinnipiac St., Bldg. 40, Wallingford CT 06492
  
  
 ---------------------------------------------------------------
 Warning -- This program may not be used in any manner that
 competes with the business of Gaussian, Inc. or will provide
 assistance to any competitor of Gaussian, Inc.  The licensee
 of this program is prohibited from giving any competitor of
 Gaussian, Inc. access to this program.  By using this program,
 the user acknowledges that Gaussian, Inc. is engaged in the
 business of creating and licensing software in the field of
 computational chemistry and represents and warrants to the
 licensee that it is not a competitor of Gaussian, Inc. and that
 it will not use this program in any manner prohibited above.
 ---------------------------------------------------------------
  

 Cite this work as:
 Gaussian 16, Revision A.03,
 M. J. Frisch, G. W. Trucks, H. B. Schlegel, G. E. Scuseria, 
 M. A. Robb, J. R. Cheeseman, G. Scalmani, V. Barone, 
 G. A. Petersson, H. Nakatsuji, X. Li, M. Caricato, A. V. Marenich, 
 J. Bloino, B. G. Janesko, R. Gomperts, B. Mennucci, H. P. Hratchian, 
 J. V. Ortiz, A. F. Izmaylov, J. L. Sonnenberg, D. Williams-Young, 
 F. Ding, F. Lipparini, F. Egidi, J. Goings, B. Peng, A. Petrone, 
 T. Henderson, D. Ranasinghe, V. G. Zakrzewski, J. Gao, N. Rega, 
 G. Zheng, W. Liang, M. Hada, M. Ehara, K. Toyota, R. Fukuda, 
 J. Hasegawa, M. Ishida, T. Nakajima, Y. Honda, O. Kitao, H. Nakai, 
 T. Vreven, K. Throssell, J. A. Montgomery, Jr., J. E. Peralta, 
 F. Ogliaro, M. J. Bearpark, J. J. Heyd, E. N. Brothers, K. N. Kudin, 
 V. N. Staroverov, T. A. Keith, R. Kobayashi, J. Normand, 
 K. Raghavachari, A. P. Rendell, J. C. Burant, S. S. Iyengar, 
 J. Tomasi, M. Cossi, J. M. Millam, M. Klene, C. Adamo, R. Cammi, 
 J. W. Ochterski, R. L. Martin, K. Morokuma, O. Farkas, 
 J. B. Foresman, and D. J. Fox, Gaussian, Inc., Wallingford CT, 2016.
 
 ******************************************
 Gaussian 16:  ES64L-G16RevA.03 25-Dec-2016
                11-Jun-2019 
 ******************************************
 %NProcShared=40
 Will use up to   40 processors via shared memory.
 %chk=AABH.chk
 ----------------------------------------------------------------------
 #p opt=(calcfc,ts) ub3lyp/6-31g(d,p) scrf=(iefpcm,solvent=acetonitrile
 ) guess=(mix,always) empiricaldispersion=gd3
 ----------------------------------------------------------------------
 1/5=1,10=4,18=20,26=3,38=1/1,3;
 2/9=110,12=2,17=6,18=5,40=1/2;
 3/5=1,6=6,7=101,11=2,25=1,30=1,70=2201,71=2,72=2,74=-5,116=2,124=31,140=1/1,2,3;
 4/13=-1/1;
 5/5=2,38=5,53=2/2;
 8/6=4,10=90,11=11/1;
 11/6=1,8=1,9=11,15=111,16=1/1,2,10;
 10/6=1,13=1/2;
 6/7=2,8=2,9=2,10=2,28=1/1;
 7/10=1,18=20,25=1/1,2,3,16;
 1/5=1,10=4,18=20,26=3/3(2);
 2/9=110/2;
 99//99;
 2/9=110/2;
 3/5=1,6=6,7=101,11=2,25=1,30=1,70=2205,71=1,72=2,74=-5,116=2,124=31/1,2,3;
 4/13=-1/1;
 5/5=2,38=5,53=2/2;
 7//1,2,3,16;
 1/5=1,18=20,26=3/3(-5);
 2/9=110/2;
 6/7=2,8=2,9=2,10=2,19=2,28=1/1;
 99/9=1/99;
 Leave Link    1 at Tue Jun 11 16:51:08 2019, MaxMem=           0 cpu:              12.8 elap:               0.3
 (Enter /project/6004141/group/g16/g16/l101.exe)
 -------------------
 Title Card Required
 -------------------
 Symbolic Z-matrix:
 Charge =  0 Multiplicity = 1
 C                     0.92302  -0.76977  -0.56791 
 H                     4.26371  -0.66296   1.05064 
 C                     0.90665   0.80129   0.70862 
 O                     1.92404   1.47805   0.30153 
 O                     1.92423  -1.55252  -0.0764 
 N                     4.3139    0.68534  -0.27603 
 H                     4.52564   0.86955  -1.2517 
 N                     4.59189  -0.58828   0.07766 
 H                     2.83559  -1.23084  -0.33318 
 H                     3.42099   1.11812   0.08691 
 C                     1.22509  -0.11673  -1.90032 
 H                     0.49727   0.65203  -2.15416 
 H                     2.21007   0.34686  -1.88108 
 H                     1.20604  -0.88876  -2.67674 
 C                     1.07896   0.08104   2.04766 
 H                     0.9616    0.8264    2.8413 
 H                     0.35537  -0.71618   2.21594 
 H                     2.08263  -0.3379    2.10446 
 C                    -0.39294  -1.44306  -0.41596 
 C                    -0.54397  -2.51246   0.48837 
 C                    -1.51422  -1.03528  -1.16243 
 C                    -1.77495  -3.14512   0.64354 
 H                     0.31352  -2.84975   1.05773 
 C                    -2.74117  -1.67476  -1.01092 
 H                    -1.43792  -0.20196  -1.85005 
 C                    -2.87989  -2.72912  -0.10453 
 H                    -1.87054  -3.96793   1.3455 
 H                    -3.5931   -1.34282  -1.59613 
 H                    -3.83949  -3.22222   0.01724 
 C                    -0.43963   1.44816   0.45922 
 C                    -0.53507   2.48082  -0.48668 
 C                    -1.5952    1.07338   1.16146 
 C                    -1.75451   3.10568  -0.74188 
 H                     0.36381   2.79037  -1.00785 
 C                    -2.81314   1.70763   0.91752 
 H                    -1.5569    0.27082   1.88873 
 C                    -2.90032   2.72066  -0.03972 
 H                    -1.80971   3.89888  -1.48183 
 H                    -3.69665   1.40248   1.4703 
 H                    -3.85098   3.208    -0.23476 
 
 Add virtual bond connecting atoms H10        and O4         Dist= 2.94D+00.
 Add virtual bond connecting atoms C1         and C3         Dist= 3.83D+00.
 Add virtual bond connecting atoms H9         and H2         Dist= 3.91D+00.
 Add virtual bond connecting atoms H9         and N8         Dist= 3.62D+00.
 ITRead=  0  0  0  0  0  0  0  0  0  0  0  0  0  0  0  0  0  0  0  0
 ITRead=  0  0  0  0  0  0  0  0  0  0  0  0  0  0  0  0  0  0  0  0
 MicOpt= -1 -1 -1 -1 -1 -1 -1 -1 -1 -1 -1 -1 -1 -1 -1 -1 -1 -1 -1 -1
 MicOpt= -1 -1 -1 -1 -1 -1 -1 -1 -1 -1 -1 -1 -1 -1 -1 -1 -1 -1 -1 -1
 NAtoms=     40 NQM=       40 NQMF=       0 NMMI=      0 NMMIF=      0
                NMic=       0 NMicF=      0.
                    Isotopes and Nuclear Properties:
 (Nuclear quadrupole moments (NQMom) in fm**2, nuclear magnetic moments (NMagM)
  in nuclear magnetons)

  Atom         1           2           3           4           5           6           7           8           9          10
 IAtWgt=          12           1          12          16          16          14           1          14           1           1
 AtmWgt=  12.0000000   1.0078250  12.0000000  15.9949146  15.9949146  14.0030740   1.0078250  14.0030740   1.0078250   1.0078250
 NucSpn=           0           1           0           0           0           2           1           2           1           1
 AtZEff=  -0.0000000  -0.0000000  -0.0000000  -0.0000000  -0.0000000  -0.0000000  -0.0000000  -0.0000000  -0.0000000  -0.0000000
 NQMom=    0.0000000   0.0000000   0.0000000   0.0000000   0.0000000   2.0440000   0.0000000   2.0440000   0.0000000   0.0000000
 NMagM=    0.0000000   2.7928460   0.0000000   0.0000000   0.0000000   0.4037610   2.7928460   0.4037610   2.7928460   2.7928460
 AtZNuc=   6.0000000   1.0000000   6.0000000   8.0000000   8.0000000   7.0000000   1.0000000   7.0000000   1.0000000   1.0000000

  Atom        11          12          13          14          15          16          17          18          19          20
 IAtWgt=          12           1           1           1          12           1           1           1          12          12
 AtmWgt=  12.0000000   1.0078250   1.0078250   1.0078250  12.0000000   1.0078250   1.0078250   1.0078250  12.0000000  12.0000000
 NucSpn=           0           1           1           1           0           1           1           1           0           0
 AtZEff=  -0.0000000  -0.0000000  -0.0000000  -0.0000000  -0.0000000  -0.0000000  -0.0000000  -0.0000000  -0.0000000  -0.0000000
 NQMom=    0.0000000   0.0000000   0.0000000   0.0000000   0.0000000   0.0000000   0.0000000   0.0000000   0.0000000   0.0000000
 NMagM=    0.0000000   2.7928460   2.7928460   2.7928460   0.0000000   2.7928460   2.7928460   2.7928460   0.0000000   0.0000000
 AtZNuc=   6.0000000   1.0000000   1.0000000   1.0000000   6.0000000   1.0000000   1.0000000   1.0000000   6.0000000   6.0000000

  Atom        21          22          23          24          25          26          27          28          29          30
 IAtWgt=          12          12           1          12           1          12           1           1           1          12
 AtmWgt=  12.0000000  12.0000000   1.0078250  12.0000000   1.0078250  12.0000000   1.0078250   1.0078250   1.0078250  12.0000000
 NucSpn=           0           0           1           0           1           0           1           1           1           0
 AtZEff=  -0.0000000  -0.0000000  -0.0000000  -0.0000000  -0.0000000  -0.0000000  -0.0000000  -0.0000000  -0.0000000  -0.0000000
 NQMom=    0.0000000   0.0000000   0.0000000   0.0000000   0.0000000   0.0000000   0.0000000   0.0000000   0.0000000   0.0000000
 NMagM=    0.0000000   0.0000000   2.7928460   0.0000000   2.7928460   0.0000000   2.7928460   2.7928460   2.7928460   0.0000000
 AtZNuc=   6.0000000   6.0000000   1.0000000   6.0000000   1.0000000   6.0000000   1.0000000   1.0000000   1.0000000   6.0000000

  Atom        31          32          33          34          35          36          37          38          39          40
 IAtWgt=          12          12          12           1          12           1          12           1           1           1
 AtmWgt=  12.0000000  12.0000000  12.0000000   1.0078250  12.0000000   1.0078250  12.0000000   1.0078250   1.0078250   1.0078250
 NucSpn=           0           0           0           1           0           1           0           1           1           1
 AtZEff=  -0.0000000  -0.0000000  -0.0000000  -0.0000000  -0.0000000  -0.0000000  -0.0000000  -0.0000000  -0.0000000  -0.0000000
 NQMom=    0.0000000   0.0000000   0.0000000   0.0000000   0.0000000   0.0000000   0.0000000   0.0000000   0.0000000   0.0000000
 NMagM=    0.0000000   0.0000000   0.0000000   2.7928460   0.0000000   2.7928460   0.0000000   2.7928460   2.7928460   2.7928460
 AtZNuc=   6.0000000   6.0000000   6.0000000   1.0000000   6.0000000   1.0000000   6.0000000   1.0000000   1.0000000   1.0000000
 Leave Link  101 at Tue Jun 11 16:51:08 2019, MaxMem=   104857600 cpu:               9.0 elap:               0.3
 (Enter /project/6004141/group/g16/g16/l103.exe)

 GradGradGradGradGradGradGradGradGradGradGradGradGradGradGradGradGradGrad
 Berny optimization.
 Initialization pass.
                           ----------------------------
                           !    Initial Parameters    !
                           ! (Angstroms and Degrees)  !
 --------------------------                            --------------------------
 ! Name  Definition              Value          Derivative Info.                !
 --------------------------------------------------------------------------------
 ! R1    R(1,3)                  2.0244         calculate D2E/DX2 analytically  !
 ! R2    R(1,5)                  1.3626         calculate D2E/DX2 analytically  !
 ! R3    R(1,11)                 1.5143         calculate D2E/DX2 analytically  !
 ! R4    R(1,19)                 1.486          calculate D2E/DX2 analytically  !
 ! R5    R(2,8)                  1.0295         calculate D2E/DX2 analytically  !
 ! R6    R(2,9)                  2.0681         calculate D2E/DX2 analytically  !
 ! R7    R(3,4)                  1.2879         calculate D2E/DX2 analytically  !
 ! R8    R(3,15)                 1.5302         calculate D2E/DX2 analytically  !
 ! R9    R(3,30)                 1.5143         calculate D2E/DX2 analytically  !
 ! R10   R(4,10)                 1.5545         calculate D2E/DX2 analytically  !
 ! R11   R(5,9)                  1.0            calculate D2E/DX2 analytically  !
 ! R12   R(6,7)                  1.0152         calculate D2E/DX2 analytically  !
 ! R13   R(6,8)                  1.3507         calculate D2E/DX2 analytically  !
 ! R14   R(6,10)                 1.0566         calculate D2E/DX2 analytically  !
 ! R15   R(8,9)                  1.9147         calculate D2E/DX2 analytically  !
 ! R16   R(11,12)                1.0886         calculate D2E/DX2 analytically  !
 ! R17   R(11,13)                1.0888         calculate D2E/DX2 analytically  !
 ! R18   R(11,14)                1.0951         calculate D2E/DX2 analytically  !
 ! R19   R(15,16)                1.0951         calculate D2E/DX2 analytically  !
 ! R20   R(15,17)                1.0897         calculate D2E/DX2 analytically  !
 ! R21   R(15,18)                1.0891         calculate D2E/DX2 analytically  !
 ! R22   R(19,20)                1.4086         calculate D2E/DX2 analytically  !
 ! R23   R(19,21)                1.4074         calculate D2E/DX2 analytically  !
 ! R24   R(20,22)                1.3927         calculate D2E/DX2 analytically  !
 ! R25   R(20,23)                1.0832         calculate D2E/DX2 analytically  !
 ! R26   R(21,24)                1.3919         calculate D2E/DX2 analytically  !
 ! R27   R(21,25)                1.0831         calculate D2E/DX2 analytically  !
 ! R28   R(22,26)                1.3977         calculate D2E/DX2 analytically  !
 ! R29   R(22,27)                1.0858         calculate D2E/DX2 analytically  !
 ! R30   R(24,26)                1.3973         calculate D2E/DX2 analytically  !
 ! R31   R(24,28)                1.0856         calculate D2E/DX2 analytically  !
 ! R32   R(26,29)                1.0857         calculate D2E/DX2 analytically  !
 ! R33   R(30,31)                1.4036         calculate D2E/DX2 analytically  !
 ! R34   R(30,32)                1.4032         calculate D2E/DX2 analytically  !
 ! R35   R(31,33)                1.3938         calculate D2E/DX2 analytically  !
 ! R36   R(31,34)                1.0842         calculate D2E/DX2 analytically  !
 ! R37   R(32,35)                1.3947         calculate D2E/DX2 analytically  !
 ! R38   R(32,36)                1.0837         calculate D2E/DX2 analytically  !
 ! R39   R(33,37)                1.3979         calculate D2E/DX2 analytically  !
 ! R40   R(33,38)                1.0862         calculate D2E/DX2 analytically  !
 ! R41   R(35,37)                1.3965         calculate D2E/DX2 analytically  !
 ! R42   R(35,39)                1.0859         calculate D2E/DX2 analytically  !
 ! R43   R(37,40)                1.086          calculate D2E/DX2 analytically  !
 ! A1    A(3,1,5)              102.9618         calculate D2E/DX2 analytically  !
 ! A2    A(3,1,11)             102.8135         calculate D2E/DX2 analytically  !
 ! A3    A(3,1,19)             106.2599         calculate D2E/DX2 analytically  !
 ! A4    A(5,1,11)             114.7433         calculate D2E/DX2 analytically  !
 ! A5    A(5,1,19)             110.7038         calculate D2E/DX2 analytically  !
 ! A6    A(11,1,19)            117.5179         calculate D2E/DX2 analytically  !
 ! A7    A(1,3,4)              101.6595         calculate D2E/DX2 analytically  !
 ! A8    A(1,3,15)             100.6966         calculate D2E/DX2 analytically  !
 ! A9    A(1,3,30)             103.5831         calculate D2E/DX2 analytically  !
 ! A10   A(4,3,15)             115.7831         calculate D2E/DX2 analytically  !
 ! A11   A(4,3,30)             115.1993         calculate D2E/DX2 analytically  !
 ! A12   A(15,3,30)            116.4427         calculate D2E/DX2 analytically  !
 ! A13   A(3,4,10)             133.0519         calculate D2E/DX2 analytically  !
 ! A14   A(1,5,9)              113.0935         calculate D2E/DX2 analytically  !
 ! A15   A(7,6,8)              112.3214         calculate D2E/DX2 analytically  !
 ! A16   A(7,6,10)             115.5987         calculate D2E/DX2 analytically  !
 ! A17   A(8,6,10)             118.0476         calculate D2E/DX2 analytically  !
 ! A18   A(2,8,6)              104.4925         calculate D2E/DX2 analytically  !
 ! A19   A(6,8,9)               94.0982         calculate D2E/DX2 analytically  !
 ! A20   A(2,9,5)              123.0828         calculate D2E/DX2 analytically  !
 ! A21   A(5,9,8)              152.7228         calculate D2E/DX2 analytically  !
 ! A22   A(4,10,6)             162.959          calculate D2E/DX2 analytically  !
 ! A23   A(1,11,12)            112.1073         calculate D2E/DX2 analytically  !
 ! A24   A(1,11,13)            110.3975         calculate D2E/DX2 analytically  !
 ! A25   A(1,11,14)            108.4427         calculate D2E/DX2 analytically  !
 ! A26   A(12,11,13)           107.9539         calculate D2E/DX2 analytically  !
 ! A27   A(12,11,14)           108.7166         calculate D2E/DX2 analytically  !
 ! A28   A(13,11,14)           109.1743         calculate D2E/DX2 analytically  !
 ! A29   A(3,15,16)            107.5633         calculate D2E/DX2 analytically  !
 ! A30   A(3,15,17)            113.8735         calculate D2E/DX2 analytically  !
 ! A31   A(3,15,18)            109.2975         calculate D2E/DX2 analytically  !
 ! A32   A(16,15,17)           108.3532         calculate D2E/DX2 analytically  !
 ! A33   A(16,15,18)           108.8324         calculate D2E/DX2 analytically  !
 ! A34   A(17,15,18)           108.812          calculate D2E/DX2 analytically  !
 ! A35   A(1,19,20)            120.3032         calculate D2E/DX2 analytically  !
 ! A36   A(1,19,21)            121.3342         calculate D2E/DX2 analytically  !
 ! A37   A(20,19,21)           118.3626         calculate D2E/DX2 analytically  !
 ! A38   A(19,20,22)           120.7413         calculate D2E/DX2 analytically  !
 ! A39   A(19,20,23)           119.274          calculate D2E/DX2 analytically  !
 ! A40   A(22,20,23)           119.9804         calculate D2E/DX2 analytically  !
 ! A41   A(19,21,24)           120.7607         calculate D2E/DX2 analytically  !
 ! A42   A(19,21,25)           120.2342         calculate D2E/DX2 analytically  !
 ! A43   A(24,21,25)           118.9924         calculate D2E/DX2 analytically  !
 ! A44   A(20,22,26)           120.2585         calculate D2E/DX2 analytically  !
 ! A45   A(20,22,27)           119.6098         calculate D2E/DX2 analytically  !
 ! A46   A(26,22,27)           120.1308         calculate D2E/DX2 analytically  !
 ! A47   A(21,24,26)           120.3179         calculate D2E/DX2 analytically  !
 ! A48   A(21,24,28)           119.5135         calculate D2E/DX2 analytically  !
 ! A49   A(26,24,28)           120.1664         calculate D2E/DX2 analytically  !
 ! A50   A(22,26,24)           119.5567         calculate D2E/DX2 analytically  !
 ! A51   A(22,26,29)           120.2315         calculate D2E/DX2 analytically  !
 ! A52   A(24,26,29)           120.2117         calculate D2E/DX2 analytically  !
 ! A53   A(3,30,31)            119.0593         calculate D2E/DX2 analytically  !
 ! A54   A(3,30,32)            122.3871         calculate D2E/DX2 analytically  !
 ! A55   A(31,30,32)           118.5385         calculate D2E/DX2 analytically  !
 ! A56   A(30,31,33)           120.8448         calculate D2E/DX2 analytically  !
 ! A57   A(30,31,34)           118.5298         calculate D2E/DX2 analytically  !
 ! A58   A(33,31,34)           120.622          calculate D2E/DX2 analytically  !
 ! A59   A(30,32,35)           120.675          calculate D2E/DX2 analytically  !
 ! A60   A(30,32,36)           120.3006         calculate D2E/DX2 analytically  !
 ! A61   A(35,32,36)           119.013          calculate D2E/DX2 analytically  !
 ! A62   A(31,33,37)           120.1115         calculate D2E/DX2 analytically  !
 ! A63   A(31,33,38)           119.7758         calculate D2E/DX2 analytically  !
 ! A64   A(37,33,38)           120.1104         calculate D2E/DX2 analytically  !
 ! A65   A(32,35,37)           120.2853         calculate D2E/DX2 analytically  !
 ! A66   A(32,35,39)           119.5816         calculate D2E/DX2 analytically  !
 ! A67   A(37,35,39)           120.1306         calculate D2E/DX2 analytically  !
 ! A68   A(33,37,35)           119.5336         calculate D2E/DX2 analytically  !
 ! A69   A(33,37,40)           120.2467         calculate D2E/DX2 analytically  !
 ! A70   A(35,37,40)           120.2194         calculate D2E/DX2 analytically  !
 ! D1    D(5,1,3,4)             77.2957         calculate D2E/DX2 analytically  !
 ! D2    D(5,1,3,15)           -42.1082         calculate D2E/DX2 analytically  !
 ! D3    D(5,1,3,30)          -162.8956         calculate D2E/DX2 analytically  !
 ! D4    D(11,1,3,4)           -42.2301         calculate D2E/DX2 analytically  !
 ! D5    D(11,1,3,15)         -161.634          calculate D2E/DX2 analytically  !
 ! D6    D(11,1,3,30)           77.5785         calculate D2E/DX2 analytically  !
 ! D7    D(19,1,3,4)          -166.2793         calculate D2E/DX2 analytically  !
 ! D8    D(19,1,3,15)           74.3169         calculate D2E/DX2 analytically  !
 ! D9    D(19,1,3,30)          -46.4706         calculate D2E/DX2 analytically  !
 ! D10   D(3,1,5,9)            -79.1766         calculate D2E/DX2 analytically  !
 ! D11   D(11,1,5,9)            31.7185         calculate D2E/DX2 analytically  !
 ! D12   D(19,1,5,9)           167.611          calculate D2E/DX2 analytically  !
 ! D13   D(3,1,11,12)          -57.1629         calculate D2E/DX2 analytically  !
 ! D14   D(3,1,11,13)           63.2359         calculate D2E/DX2 analytically  !
 ! D15   D(3,1,11,14)         -177.2004         calculate D2E/DX2 analytically  !
 ! D16   D(5,1,11,12)         -168.1466         calculate D2E/DX2 analytically  !
 ! D17   D(5,1,11,13)          -47.7478         calculate D2E/DX2 analytically  !
 ! D18   D(5,1,11,14)           71.8159         calculate D2E/DX2 analytically  !
 ! D19   D(19,1,11,12)          59.0856         calculate D2E/DX2 analytically  !
 ! D20   D(19,1,11,13)         179.4844         calculate D2E/DX2 analytically  !
 ! D21   D(19,1,11,14)         -60.9519         calculate D2E/DX2 analytically  !
 ! D22   D(3,1,19,20)          -92.919          calculate D2E/DX2 analytically  !
 ! D23   D(3,1,19,21)           87.0321         calculate D2E/DX2 analytically  !
 ! D24   D(5,1,19,20)           18.1817         calculate D2E/DX2 analytically  !
 ! D25   D(5,1,19,21)         -161.8672         calculate D2E/DX2 analytically  !
 ! D26   D(11,1,19,20)         152.7232         calculate D2E/DX2 analytically  !
 ! D27   D(11,1,19,21)         -27.3257         calculate D2E/DX2 analytically  !
 ! D28   D(1,3,4,10)           -54.8023         calculate D2E/DX2 analytically  !
 ! D29   D(15,3,4,10)           53.2661         calculate D2E/DX2 analytically  !
 ! D30   D(30,3,4,10)         -166.033          calculate D2E/DX2 analytically  !
 ! D31   D(1,3,15,16)         -173.1324         calculate D2E/DX2 analytically  !
 ! D32   D(1,3,15,17)          -53.0492         calculate D2E/DX2 analytically  !
 ! D33   D(1,3,15,18)           68.8615         calculate D2E/DX2 analytically  !
 ! D34   D(4,3,15,16)           78.2257         calculate D2E/DX2 analytically  !
 ! D35   D(4,3,15,17)         -161.6912         calculate D2E/DX2 analytically  !
 ! D36   D(4,3,15,18)          -39.7805         calculate D2E/DX2 analytically  !
 ! D37   D(30,3,15,16)         -61.9784         calculate D2E/DX2 analytically  !
 ! D38   D(30,3,15,17)          58.1048         calculate D2E/DX2 analytically  !
 ! D39   D(30,3,15,18)        -179.9845         calculate D2E/DX2 analytically  !
 ! D40   D(1,3,30,31)          -92.1922         calculate D2E/DX2 analytically  !
 ! D41   D(1,3,30,32)           89.2434         calculate D2E/DX2 analytically  !
 ! D42   D(4,3,30,31)           17.8962         calculate D2E/DX2 analytically  !
 ! D43   D(4,3,30,32)         -160.6682         calculate D2E/DX2 analytically  !
 ! D44   D(15,3,30,31)         158.3312         calculate D2E/DX2 analytically  !
 ! D45   D(15,3,30,32)         -20.2332         calculate D2E/DX2 analytically  !
 ! D46   D(3,4,10,6)            64.6284         calculate D2E/DX2 analytically  !
 ! D47   D(1,5,9,2)            119.2775         calculate D2E/DX2 analytically  !
 ! D48   D(1,5,9,8)            119.8727         calculate D2E/DX2 analytically  !
 ! D49   D(7,6,8,2)           -175.4608         calculate D2E/DX2 analytically  !
 ! D50   D(7,6,8,9)            -91.1697         calculate D2E/DX2 analytically  !
 ! D51   D(10,6,8,2)           -37.0472         calculate D2E/DX2 analytically  !
 ! D52   D(10,6,8,9)            47.2439         calculate D2E/DX2 analytically  !
 ! D53   D(7,6,10,4)            62.6095         calculate D2E/DX2 analytically  !
 ! D54   D(8,6,10,4)           -74.481          calculate D2E/DX2 analytically  !
 ! D55   D(6,8,9,5)           -105.1502         calculate D2E/DX2 analytically  !
 ! D56   D(1,19,20,22)         179.6372         calculate D2E/DX2 analytically  !
 ! D57   D(1,19,20,23)          -1.1094         calculate D2E/DX2 analytically  !
 ! D58   D(21,19,20,22)         -0.3153         calculate D2E/DX2 analytically  !
 ! D59   D(21,19,20,23)        178.9381         calculate D2E/DX2 analytically  !
 ! D60   D(1,19,21,24)         179.9784         calculate D2E/DX2 analytically  !
 ! D61   D(1,19,21,25)          -1.3314         calculate D2E/DX2 analytically  !
 ! D62   D(20,19,21,24)         -0.0696         calculate D2E/DX2 analytically  !
 ! D63   D(20,19,21,25)        178.6206         calculate D2E/DX2 analytically  !
 ! D64   D(19,20,22,26)          0.3131         calculate D2E/DX2 analytically  !
 ! D65   D(19,20,22,27)        179.9696         calculate D2E/DX2 analytically  !
 ! D66   D(23,20,22,26)       -178.9351         calculate D2E/DX2 analytically  !
 ! D67   D(23,20,22,27)          0.7214         calculate D2E/DX2 analytically  !
 ! D68   D(19,21,24,26)          0.4588         calculate D2E/DX2 analytically  !
 ! D69   D(19,21,24,28)        179.9269         calculate D2E/DX2 analytically  !
 ! D70   D(25,21,24,26)       -178.2475         calculate D2E/DX2 analytically  !
 ! D71   D(25,21,24,28)          1.2206         calculate D2E/DX2 analytically  !
 ! D72   D(20,22,26,24)          0.0777         calculate D2E/DX2 analytically  !
 ! D73   D(20,22,26,29)       -179.9613         calculate D2E/DX2 analytically  !
 ! D74   D(27,22,26,24)       -179.577          calculate D2E/DX2 analytically  !
 ! D75   D(27,22,26,29)          0.384          calculate D2E/DX2 analytically  !
 ! D76   D(21,24,26,22)         -0.4615         calculate D2E/DX2 analytically  !
 ! D77   D(21,24,26,29)        179.5774         calculate D2E/DX2 analytically  !
 ! D78   D(28,24,26,22)       -179.9261         calculate D2E/DX2 analytically  !
 ! D79   D(28,24,26,29)          0.1128         calculate D2E/DX2 analytically  !
 ! D80   D(3,30,31,33)        -179.7492         calculate D2E/DX2 analytically  !
 ! D81   D(3,30,31,34)          -0.4186         calculate D2E/DX2 analytically  !
 ! D82   D(32,30,31,33)         -1.1291         calculate D2E/DX2 analytically  !
 ! D83   D(32,30,31,34)        178.2014         calculate D2E/DX2 analytically  !
 ! D84   D(3,30,32,35)         178.9996         calculate D2E/DX2 analytically  !
 ! D85   D(3,30,32,36)          -2.2403         calculate D2E/DX2 analytically  !
 ! D86   D(31,30,32,35)          0.4281         calculate D2E/DX2 analytically  !
 ! D87   D(31,30,32,36)        179.1881         calculate D2E/DX2 analytically  !
 ! D88   D(30,31,33,37)          0.9122         calculate D2E/DX2 analytically  !
 ! D89   D(30,31,33,38)       -179.6327         calculate D2E/DX2 analytically  !
 ! D90   D(34,31,33,37)       -178.4043         calculate D2E/DX2 analytically  !
 ! D91   D(34,31,33,38)          1.0508         calculate D2E/DX2 analytically  !
 ! D92   D(30,32,35,37)          0.4909         calculate D2E/DX2 analytically  !
 ! D93   D(30,32,35,39)        179.9177         calculate D2E/DX2 analytically  !
 ! D94   D(36,32,35,37)       -178.2849         calculate D2E/DX2 analytically  !
 ! D95   D(36,32,35,39)          1.1419         calculate D2E/DX2 analytically  !
 ! D96   D(31,33,37,35)          0.0238         calculate D2E/DX2 analytically  !
 ! D97   D(31,33,37,40)        179.8233         calculate D2E/DX2 analytically  !
 ! D98   D(38,33,37,35)       -179.4294         calculate D2E/DX2 analytically  !
 ! D99   D(38,33,37,40)          0.3701         calculate D2E/DX2 analytically  !
 ! D100  D(32,35,37,33)         -0.7197         calculate D2E/DX2 analytically  !
 ! D101  D(32,35,37,40)        179.4808         calculate D2E/DX2 analytically  !
 ! D102  D(39,35,37,33)        179.8567         calculate D2E/DX2 analytically  !
 ! D103  D(39,35,37,40)          0.0571         calculate D2E/DX2 analytically  !
 --------------------------------------------------------------------------------
 Trust Radius=3.00D-01 FncErr=1.00D-07 GrdErr=1.00D-06 EigMax=2.50D+02 EigMin=1.00D-04
 Number of steps in this run=    226 maximum allowed number of steps=    240.
 Search for a saddle point of order  1.
 GradGradGradGradGradGradGradGradGradGradGradGradGradGradGradGradGradGrad

 Leave Link  103 at Tue Jun 11 16:51:09 2019, MaxMem=   104857600 cpu:               3.5 elap:               0.1
 (Enter /project/6004141/group/g16/g16/l202.exe)
                          Input orientation:                          
 ---------------------------------------------------------------------
 Center     Atomic      Atomic             Coordinates (Angstroms)
 Number     Number       Type             X           Y           Z
 ---------------------------------------------------------------------
      1          6           0        0.923021   -0.769770   -0.567909
      2          1           0        4.263707   -0.662955    1.050644
      3          6           0        0.906650    0.801289    0.708616
      4          8           0        1.924044    1.478049    0.301529
      5          8           0        1.924230   -1.552519   -0.076399
      6          7           0        4.313901    0.685344   -0.276025
      7          1           0        4.525638    0.869546   -1.251703
      8          7           0        4.591891   -0.588276    0.077664
      9          1           0        2.835593   -1.230839   -0.333182
     10          1           0        3.420993    1.118116    0.086914
     11          6           0        1.225086   -0.116734   -1.900323
     12          1           0        0.497269    0.652028   -2.154165
     13          1           0        2.210068    0.346864   -1.881081
     14          1           0        1.206037   -0.888757   -2.676744
     15          6           0        1.078960    0.081039    2.047664
     16          1           0        0.961601    0.826395    2.841300
     17          1           0        0.355374   -0.716184    2.215944
     18          1           0        2.082625   -0.337903    2.104456
     19          6           0       -0.392941   -1.443063   -0.415960
     20          6           0       -0.543972   -2.512463    0.488367
     21          6           0       -1.514215   -1.035283   -1.162426
     22          6           0       -1.774949   -3.145119    0.643538
     23          1           0        0.313520   -2.849752    1.057732
     24          6           0       -2.741171   -1.674761   -1.010916
     25          1           0       -1.437920   -0.201956   -1.850052
     26          6           0       -2.879886   -2.729115   -0.104531
     27          1           0       -1.870539   -3.967925    1.345502
     28          1           0       -3.593096   -1.342821   -1.596127
     29          1           0       -3.839485   -3.222222    0.017244
     30          6           0       -0.439626    1.448157    0.459216
     31          6           0       -0.535074    2.480823   -0.486678
     32          6           0       -1.595201    1.073378    1.161458
     33          6           0       -1.754509    3.105682   -0.741879
     34          1           0        0.363811    2.790369   -1.007849
     35          6           0       -2.813136    1.707630    0.917519
     36          1           0       -1.556903    0.270823    1.888733
     37          6           0       -2.900319    2.720661   -0.039719
     38          1           0       -1.809714    3.898875   -1.481828
     39          1           0       -3.696648    1.402483    1.470296
     40          1           0       -3.850976    3.208003   -0.234761
 ---------------------------------------------------------------------
                    Distance matrix (angstroms):
                    1          2          3          4          5
     1  C    0.000000
     2  H    3.713665   0.000000
     3  C    2.024354   3.678427   0.000000
     4  O    2.609724   3.258695   1.287950   0.000000
     5  O    1.362607   2.744941   2.681815   3.054042   0.000000
     6  N    3.701435   1.892216   3.548566   2.583286   3.280001
     7  H    4.016688   2.778123   4.116380   3.090485   3.743670
     8  N    3.729653   1.029549   3.988733   3.381896   2.840760
     9  H    1.981316   2.068085   2.989266   2.927773   0.999999
    10  H    3.198870   2.193435   2.609370   1.554499   3.065822
    11  C    1.514274   4.270806   2.784013   2.807139   2.424248
    12  H    2.172322   5.117229   2.895753   2.957775   3.348635
    13  H    2.151228   3.719164   2.934609   2.474909   2.635571
    14  H    2.131066   4.826360   3.795596   3.871358   2.778160
    15  C    2.754889   3.419092   1.530196   2.390563   2.809740
    16  H    3.764563   4.040856   2.133540   2.793096   3.885724
    17  H    2.841643   4.078704   2.208771   3.307623   2.900966
    18  H    2.944949   2.444033   2.151522   2.563859   2.501302
    19  C    1.485991   4.944074   2.826787   3.796855   2.344475
    20  C    2.510929   5.181758   3.624054   4.695764   2.707854
    21  C    2.522710   6.198443   3.568527   4.503513   3.642786
    22  C    3.793274   6.541578   4.771723   5.930700   4.091285
    23  H    2.709340   4.515098   3.715345   4.679262   2.358697
    24  C    3.800206   7.371709   4.732252   5.781605   4.759646
    25  H    2.745969   6.413666   3.612519   4.330649   4.034094
    26  C    4.303005   7.525581   5.240498   6.398661   4.946180
    27  H    4.657608   6.974148   5.555520   6.719179   4.717654
    28  H    4.667005   8.318471   5.491517   6.480528   5.726642
    29  H    5.388728   8.560344   6.260386   7.442555   6.001424
    30  C    2.798391   5.189212   1.514298   2.369113   3.857299
    31  C    3.563565   5.939276   2.515578   2.770214   4.741767
    32  C    3.567821   6.111787   2.557021   3.645315   4.562238
    33  C    4.713657   7.323571   3.807352   4.155676   5.972840
    34  H    3.630544   5.601074   2.682791   2.423011   4.707779
    35  C    4.722592   7.464523   3.834306   4.782575   5.836016
    36  H    3.642519   5.954312   2.782654   4.011683   4.393701
    37  C    5.203847   7.997563   4.328626   4.993497   6.444974
    38  H    5.486286   8.006881   4.666017   4.793924   6.755388
    39  H    5.496754   8.234646   4.704460   5.741420   6.535945
    40  H    6.222918   9.082107   5.414539   6.052372   7.486030
                    6          7          8          9         10
     6  N    0.000000
     7  H    1.015239   0.000000
     8  N    1.350734   1.974044   0.000000
     9  H    2.420830   2.848078   1.914749   0.000000
    10  H    1.056551   1.753261   2.069508   2.456983   0.000000
    11  C    3.580845   3.505296   3.933212   2.508165   3.208734
    12  H    4.253845   4.133946   4.825489   3.511257   3.713197
    13  H    2.667749   2.455846   3.222460   2.297046   2.436016
    14  H    4.230847   4.017726   4.375050   2.874849   4.070795
    15  C    4.028593   4.836027   4.082838   3.236543   3.225707
    16  H    4.579905   5.427421   4.776817   4.221539   3.704099
    17  H    4.883045   5.650683   4.747281   3.593661   4.158779
    18  H    3.419403   4.323199   3.235273   2.703031   2.825190
    19  C    5.167597   5.499004   5.081621   3.236560   4.621538
    20  C    5.865935   6.337726   5.499842   3.706611   5.391031
    21  C    6.141107   6.333733   6.246773   4.432462   5.527590
    22  C    7.252044   7.707585   6.884353   5.086801   6.744095
    23  H    5.502623   6.075245   4.937536   3.303994   5.132529
    24  C    7.475574   7.703116   7.492613   5.635307   6.854025
    25  H    6.028956   6.088527   6.342236   4.649990   5.394763
    26  C    7.964830   8.313131   7.774564   5.913021   7.385047
    27  H    7.907563   8.429572   7.402192   5.697131   7.446621
    28  H    8.269022   8.421819   8.388380   6.552527   7.621436
    29  H    9.046147   9.398302   8.833426   6.974602   8.459192
    30  C    4.870162   5.283548   5.441397   4.304878   3.892546
    31  C    5.175005   5.365844   6.001968   5.016113   4.223321
    32  C    6.093801   6.582520   6.497370   5.212993   5.130190
    33  C    6.549859   6.685841   7.388760   6.327834   5.605634
    34  H    4.535406   4.590188   5.519986   4.768123   3.652574
    35  C    7.298238   7.698410   7.798139   6.488990   6.316787
    36  H    6.270913   6.871544   6.467278   5.146447   5.361334
    37  C    7.499555   7.748572   8.191218   6.971453   6.522513
    38  H    7.019929   7.026128   7.971643   7.015143   6.128121
    39  H    8.229995   8.677516   8.637269   7.270288   7.256406
    40  H    8.545802   8.756153   9.262362   8.026407   7.573152
                   11         12         13         14         15
    11  C    0.000000
    12  H    1.088645   0.000000
    13  H    1.088799   1.761074   0.000000
    14  H    1.095085   1.774672   1.779864   0.000000
    15  C    3.955638   4.280159   4.096963   4.824592   0.000000
    16  H    4.841684   5.020028   4.908106   5.783624   1.095074
    17  H    4.249634   4.581483   4.621209   4.969085   1.089706
    18  H    4.101529   4.650717   4.045943   4.892006   1.089074
    19  C    2.565247   2.864129   3.482251   2.824027   3.249434
    20  C    3.817712   4.252195   4.623286   3.964452   3.433885
    21  C    2.981945   2.806534   4.036964   3.116793   4.274975
    22  C    4.964127   5.235307   5.869242   5.000172   4.530393
    23  H    4.129217   4.755261   4.738340   4.311427   3.186754
    24  C    4.353124   4.148308   5.418387   4.355828   5.199149
    25  H    2.664844   2.136991   3.689171   2.854054   4.648329
    26  C    5.186540   5.199837   6.206884   5.167007   5.310496
    27  H    5.911848   6.260843   6.758668   5.926640   5.058328
    28  H    4.981034   4.584966   6.050863   4.940201   6.093660
    29  H    6.242676   6.207436   7.275926   6.177372   6.263006
    30  C    3.284444   2.888140   3.702798   4.243067   2.588104
    31  C    3.441491   2.681555   3.746191   4.379718   3.845381
    32  C    4.329537   3.943263   4.925945   5.140885   2.986844
    33  C    4.539157   3.617385   4.962532   5.335174   4.995854
    34  H    3.160625   2.429888   3.184637   4.126805   4.145849
    35  C    5.251264   4.637706   5.909012   5.984455   4.367086
    36  H    4.716631   4.550820   5.329855   5.460956   2.647461
    37  C    5.341500   4.504856   5.928034   6.069922   5.211471
    38  H    5.050769   4.039334   5.379111   5.783079   5.947909
    39  H    6.155693   5.593643   6.872798   6.817921   4.988587
    40  H    6.292406   5.396698   6.901648   6.951266   6.268304
                   16         17         18         19         20
    16  H    0.000000
    17  H    1.771477   0.000000
    18  H    1.776295   1.771700   0.000000
    19  C    4.194635   2.831121   3.701662   0.000000
    20  C    4.353277   2.649521   3.773522   1.408628   0.000000
    21  C    5.062147   3.874348   4.908779   1.407392   2.418378
    22  C    5.300169   3.593113   4.989551   2.435052   1.392708
    23  H    4.137050   2.428028   3.245728   2.156300   1.083159
    24  C    5.899650   4.573848   5.895909   2.433483   2.788777
    25  H    5.368798   4.473551   5.296306   2.165398   3.406727
    26  C    6.006379   4.461323   5.934984   2.817058   2.419703
    27  H    5.765755   4.035614   5.420385   3.414817   2.147750
    28  H    6.718744   5.524036   6.849670   3.412306   3.874317
    29  H    6.886002   5.358297   6.909930   3.902786   3.403839
    30  C    2.832728   2.898705   3.501225   3.021136   3.962102
    31  C    4.006570   4.279944   4.638053   3.927096   5.087602
    32  C    3.069219   2.849424   4.050600   3.204084   3.796892
    33  C    5.040989   5.273233   5.889270   4.759325   5.877283
    34  H    4.362396   4.763279   4.735699   4.341077   5.584153
    35  C    4.327372   4.195264   5.437049   4.190749   4.810661
    36  H    2.749347   2.176707   3.696383   3.099003   3.276238
    37  C    5.177156   5.243992   6.227522   4.874946   5.763405
    38  H    5.984125   6.297610   6.779530   5.628465   6.825615
    39  H    4.889868   4.632885   6.068863   4.750745   5.121558
    40  H    6.188304   6.252886   7.297466   5.798556   6.647023
                   21         22         23         24         25
    21  C    0.000000
    22  C    2.789426   0.000000
    23  H    3.400296   2.149535   0.000000
    24  C    1.391872   2.415110   3.871827   0.000000
    25  H    1.083090   3.872181   4.305064   2.138169   0.000000
    26  C    2.419352   1.397695   3.400478   1.397297   3.393028
    27  H    3.875185   1.085772   2.470473   3.401368   4.957948
    28  H    2.145792   3.401476   4.957364   1.085556   2.451700
    29  H    3.403117   2.158819   4.297534   2.158250   4.286760
    30  C    3.154669   4.786987   4.404256   4.148616   3.008685
    31  C    3.711921   5.870767   5.614298   4.733980   3.141850
    32  C    3.139020   4.253971   4.364049   3.685746   3.274203
    33  C    4.169196   6.402524   6.556107   4.888611   3.502677
    34  H    4.264562   6.521610   6.006673   5.438594   3.592986
    35  C    3.679258   4.970118   5.528595   3.894176   3.632793
    36  H    3.319233   3.642350   3.731894   3.687242   3.770436
    37  C    4.157989   6.011711   6.524006   4.504252   3.735988
    38  H    4.953307   7.357733   7.516745   5.670519   4.134082
    39  H    4.199636   5.005711   5.859450   4.066790   4.324441
    40  H    4.932189   6.741176   7.463911   5.067097   4.478820
                   26         27         28         29         30
    26  C    0.000000
    27  H    2.157783   0.000000
    28  H    2.157623   4.302506   0.000000
    29  H    1.085732   2.489396   2.489141   0.000000
    30  C    4.870552   5.671592   4.685975   5.793688   0.000000
    31  C    5.726049   6.835693   5.020222   6.610431   1.403647
    32  C    4.208574   5.052170   4.175389   4.979781   1.403195
    33  C    5.976415   7.376079   4.888693   6.705651   2.432886
    34  H    6.465467   7.497007   5.752082   7.407413   2.144603
    35  C    4.553433   5.769193   4.028896   5.115401   2.431238
    36  H    3.837058   4.284910   4.346743   4.573184   2.162855
    37  C    5.450200   6.907711   4.406158   6.016904   2.814820
    38  H    6.853646   8.359667   5.537950   7.554946   3.413329
    39  H    4.496363   5.673758   4.117082   4.849707   3.410654
    40  H    6.017420   7.610079   4.757081   6.435171   3.900765
                   31         32         33         34         35
    31  C    0.000000
    32  C    2.412700   0.000000
    33  C    1.393771   2.788966   0.000000
    34  H    1.084174   3.389938   2.158111   0.000000
    35  C    2.785527   1.394685   2.414300   3.869413   0.000000
    36  H    3.401590   1.083739   3.872414   4.292720   2.141446
    37  C    2.419024   2.420682   1.397909   3.405390   1.396473
    38  H    2.150791   3.875101   1.086152   2.485488   3.400776
    39  H    3.871449   2.149365   3.400957   4.955276   1.085942
    40  H    3.404036   3.405080   2.159355   4.305405   2.157772
                   36         37         38         39         40
    36  H    0.000000
    37  C    3.394908   0.000000
    38  H    4.958564   2.158075   0.000000
    39  H    2.456472   2.156821   4.302038   0.000000
    40  H    4.289408   1.085952   2.489825   2.488160   0.000000
 Stoichiometry    C16H20N2O2
 Framework group  C1[X(C16H20N2O2)]
 Deg. of freedom   114
 Full point group                 C1      NOp   1
 Largest Abelian subgroup         C1      NOp   1
 Largest concise Abelian subgroup C1      NOp   1
                         Standard orientation:                         
 ---------------------------------------------------------------------
 Center     Atomic      Atomic             Coordinates (Angstroms)
 Number     Number       Type             X           Y           Z
 ---------------------------------------------------------------------
      1          6           0       -0.923021    0.769770   -0.567909
      2          1           0       -4.263707    0.662954    1.050644
      3          6           0       -0.906650   -0.801289    0.708616
      4          8           0       -1.924044   -1.478049    0.301529
      5          8           0       -1.924230    1.552519   -0.076399
      6          7           0       -4.313901   -0.685345   -0.276025
      7          1           0       -4.525638   -0.869547   -1.251703
      8          7           0       -4.591891    0.588275    0.077664
      9          1           0       -2.835593    1.230838   -0.333182
     10          1           0       -3.420993   -1.118117    0.086914
     11          6           0       -1.225086    0.116734   -1.900323
     12          1           0       -0.497269   -0.652028   -2.154165
     13          1           0       -2.210068   -0.346864   -1.881081
     14          1           0       -1.206037    0.888757   -2.676744
     15          6           0       -1.078960   -0.081039    2.047664
     16          1           0       -0.961601   -0.826395    2.841300
     17          1           0       -0.355374    0.716184    2.215944
     18          1           0       -2.082625    0.337903    2.104456
     19          6           0        0.392941    1.443063   -0.415960
     20          6           0        0.543971    2.512463    0.488367
     21          6           0        1.514215    1.035283   -1.162426
     22          6           0        1.774948    3.145119    0.643538
     23          1           0       -0.313521    2.849752    1.057732
     24          6           0        2.741171    1.674762   -1.010916
     25          1           0        1.437920    0.201956   -1.850052
     26          6           0        2.879885    2.729116   -0.104531
     27          1           0        1.870538    3.967925    1.345502
     28          1           0        3.593096    1.342822   -1.596127
     29          1           0        3.839484    3.222223    0.017244
     30          6           0        0.439626   -1.448157    0.459216
     31          6           0        0.535075   -2.480823   -0.486678
     32          6           0        1.595201   -1.073378    1.161458
     33          6           0        1.754510   -3.105682   -0.741879
     34          1           0       -0.363810   -2.790369   -1.007849
     35          6           0        2.813136   -1.707629    0.917519
     36          1           0        1.556903   -0.270823    1.888733
     37          6           0        2.900320   -2.720660   -0.039719
     38          1           0        1.809715   -3.898875   -1.481828
     39          1           0        3.696648   -1.402482    1.470296
     40          1           0        3.850977   -3.208002   -0.234761
 ---------------------------------------------------------------------
 Rotational constants (GHZ):           0.4499268           0.3097370           0.2214987
 Leave Link  202 at Tue Jun 11 16:51:09 2019, MaxMem=   104857600 cpu:               5.5 elap:               0.2
 (Enter /project/6004141/group/g16/g16/l301.exe)
 Standard basis: 6-31G(d,p) (6D, 7F)
 Ernie: Thresh=  0.10000D-02 Tol=  0.10000D-05 Strict=F.
 There are   400 symmetry adapted cartesian basis functions of A   symmetry.
 There are   400 symmetry adapted basis functions of A   symmetry.
   400 basis functions,   700 primitive gaussians,   400 cartesian basis functions
    73 alpha electrons       73 beta electrons
       nuclear repulsion energy      1613.3991261226 Hartrees.
 IExCor=  402 DFT=T Ex+Corr=B3LYP ExCW=0 ScaHFX=  0.200000
 ScaDFX=  0.800000  0.720000  1.000000  0.810000 ScalE2=  1.000000  1.000000
 IRadAn=      5 IRanWt=     -1 IRanGd=            0 ICorTp=0 IEmpDi=131
 NAtoms=   40 NActive=   40 NUniq=   40 SFac= 1.00D+00 NAtFMM=   60 NAOKFM=F Big=F
 Integral buffers will be    131072 words long.
 Raffenetti 2 integral format.
 Two-electron integral symmetry is turned on.
 R6Disp:  Grimme-D3 Dispersion energy=       -0.0515780863 Hartrees.
 Nuclear repulsion after empirical dispersion term =     1613.3475480364 Hartrees.
 Force inversion solution in PCM.
 ------------------------------------------------------------------------------
 Polarizable Continuum Model (PCM)
 =================================
 Model                : PCM.
 Atomic radii         : UFF (Universal Force Field).
 Polarization charges : Total charges.
 Charge compensation  : None.
 Solution method      : Matrix inversion.
 Cavity type          : Scaled VdW (van der Waals Surface) (Alpha=1.100).
 Cavity algorithm     : GePol (No added spheres)
                        Default sphere list used, NSphG=   40.
                        Lebedev-Laikov grids with approx.  5.0 points / Ang**2.
                        Smoothing algorithm: York/Karplus (Gamma=1.0000).
                        Polarization charges: spherical gaussians, with
                                              point-specific exponents (IZeta= 3).
                        Self-potential: point-specific (ISelfS= 7).
                        Self-field    : sphere-specific E.n sum rule (ISelfD= 2).
 1st derivatives      : Analytical E(r).r(x)/FMM algorithm (CHGder, D1EAlg=3).
                        Cavity 1st derivative terms included.
 2nd derivatives      : Analytical E(r).r(xy)/FMM algorithm (CHGder, D2EAlg=3).
                        Cavity 2nd derivative terms included.
 Solvent              : Acetonitrile, Eps=  35.688000 Eps(inf)=   1.806874
 ------------------------------------------------------------------------------
 GePol: Number of generator spheres                  =      40
 GePol: Total number of spheres                      =      40
 GePol: Number of exposed spheres                    =      40 (100.00%)
 GePol: Number of points                             =    2625
 GePol: Average weight of points                     =       0.13
 GePol: Minimum weight of points                     =   0.48D-11
 GePol: Maximum weight of points                     =    0.20577
 GePol: Number of points with low weight             =     173
 GePol: Fraction of low-weight points (<1% of avg)   =       6.59%
 GePol: Cavity surface area                          =    340.059 Ang**2
 GePol: Cavity volume                                =    396.506 Ang**3
 Leave Link  301 at Tue Jun 11 16:51:10 2019, MaxMem=   104857600 cpu:              23.6 elap:               0.7
 (Enter /project/6004141/group/g16/g16/l302.exe)
 NPDir=0 NMtPBC=     1 NCelOv=     1 NCel=       1 NClECP=     1 NCelD=      1
         NCelK=      1 NCelE2=     1 NClLst=     1 CellRange=     0.0.
 One-electron integrals computed using PRISM.
 One-electron integral symmetry used in STVInt
 PrsmSu:  requested number of processors reduced to:  27 ShMem   1 Linda.
 NBasis=   400 RedAO= T EigKep=  4.29D-04  NBF=   400
 NBsUse=   400 1.00D-06 EigRej= -1.00D+00 NBFU=   400
 Precomputing XC quadrature grid using
 IXCGrd= 4 IRadAn=           5 IRanWt=          -1 IRanGd=           0 AccXCQ= 0.00D+00.
 Generated NRdTot=       0 NPtTot=           0 NUsed=           0 NTot=          32
 NSgBfM=   398   398   398   398   398 MxSgAt=    40 MxSgA2=    40.
 Leave Link  302 at Tue Jun 11 16:51:11 2019, MaxMem=   104857600 cpu:              24.7 elap:               0.7
 (Enter /project/6004141/group/g16/g16/l303.exe)
 DipDrv:  MaxL=1.
 Leave Link  303 at Tue Jun 11 16:51:11 2019, MaxMem=   104857600 cpu:               3.2 elap:               0.1
 (Enter /project/6004141/group/g16/g16/l401.exe)
 ExpMin= 1.61D-01 ExpMax= 5.48D+03 ExpMxC= 8.25D+02 IAcc=3 IRadAn=         5 AccDes= 0.00D+00
 Harris functional with IExCor=  402 and IRadAn=       5 diagonalized for initial guess.
 HarFok:  IExCor=  402 AccDes= 0.00D+00 IRadAn=         5 IDoV= 1 UseB2=F ITyADJ=14
 ICtDFT=  3500011 ScaDFX=  1.000000  1.000000  1.000000  1.000000
 FoFCou: FMM=F IPFlag=           0 FMFlag=      100000 FMFlg1=           0
         NFxFlg=           0 DoJE=T BraDBF=F KetDBF=T FulRan=T
         wScrn=  0.000000 ICntrl=       500 IOpCl=  0 I1Cent=   200000004 NGrid=           0
         NMat0=    1 NMatS0=      1 NMatT0=    0 NMatD0=    1 NMtDS0=    0 NMtDT0=    0
 Petite list used in FoFCou.
 Harris En= -881.712630726461    
 JPrj=0 DoOrth=F DoCkMO=T.
 Mixing orbitals, IMix= 1 IMixAn=  0 NRI=1 NE=   73 Coef=  7.07106781D-01  7.07106781D-01
 Mixing orbitals, IMix= 1 IMixAn=  0 NRI=1 NE=   73 Coef= -7.07106781D-01  7.07106781D-01
 Initial guess <Sx>= 0.0000 <Sy>= 0.0000 <Sz>= 0.0000 <S**2>= 1.0000 S= 0.6180
 Leave Link  401 at Tue Jun 11 16:51:12 2019, MaxMem=   104857600 cpu:              39.9 elap:               1.1
 (Enter /project/6004141/group/g16/g16/l502.exe)
 Integral symmetry usage will be decided dynamically.
 UHF open shell SCF:
 Using DIIS extrapolation, IDIIS=  1040.
 NGot=   104857600 LenX=   104517248 LenY=   104356807
 Requested convergence on RMS density matrix=1.00D-08 within 128 cycles.
 Requested convergence on MAX density matrix=1.00D-06.
 Requested convergence on             energy=1.00D-06.
 No special actions if energy rises.
 Fock matrices will be formed incrementally for  20 cycles.

 Cycle   1  Pass 1  IDiag  1:
 FoFJK:  IHMeth= 1 ICntrl=       0 DoSepK=F KAlg= 0 I1Cent=           0 FoldK=F
 IRaf= 810000000 NMat=       1 IRICut=       1 DoRegI=T DoRafI=F ISym2E= 0 IDoP0=0 IntGTp=1.
 FoFCou: FMM=F IPFlag=           0 FMFlag=      100000 FMFlg1=           0
         NFxFlg=           0 DoJE=F BraDBF=F KetDBF=F FulRan=T
         wScrn=  0.000000 ICntrl=         0 IOpCl=  1 I1Cent=           0 NGrid=           0
         NMat0=    1 NMatS0=      1 NMatT0=    0 NMatD0=    1 NMtDS0=    0 NMtDT0=    0
 Symmetry not used in FoFCou.
 Inv3:  Mode=1 IEnd=    20671875.
 Iteration    1 A*A^-1 deviation from unit magnitude is 2.89D-15 for   1013.
 Iteration    1 A*A^-1 deviation from orthogonality  is 2.54D-15 for   2003   1180.
 Iteration    1 A^-1*A deviation from unit magnitude is 2.89D-15 for   1013.
 Iteration    1 A^-1*A deviation from orthogonality  is 2.22D-15 for   2529    115.
 E= -881.131841303435    
 DIIS: error= 2.29D-02 at cycle   1 NSaved=   1.
 NSaved= 1 IEnMin= 1 EnMin= -881.131841303435     IErMin= 1 ErrMin= 2.29D-02
 ErrMax= 2.29D-02  0.00D+00 EMaxC= 1.00D-01 BMatC= 1.96D+00 BMatP= 1.96D+00
 IDIUse=3 WtCom= 7.71D-01 WtEn= 2.29D-01
 Coeff-Com:  0.100D+01
 Coeff-En:   0.100D+01
 Coeff:      0.100D+01
 Gap=     0.026 Goal=   None    Shift=    0.000
 Gap=     0.035 Goal=   None    Shift=    0.000
 GapD=    0.026 DampG=0.250 DampE=0.500 DampFc=0.2500 IDamp=-1.
 Damping current iteration by 2.50D-01
 RMSDP=4.13D-03 MaxDP=1.58D-01              OVMax= 5.17D-01

 Cycle   2  Pass 1  IDiag  1:
 RMSU=  1.02D-03    CP:  9.89D-01
 E= -881.306762349984     Delta-E=       -0.174921046550 Rises=F Damp=T
 DIIS: error= 1.36D-02 at cycle   2 NSaved=   2.
 NSaved= 2 IEnMin= 2 EnMin= -881.306762349984     IErMin= 2 ErrMin= 1.36D-02
 ErrMax= 1.36D-02  0.00D+00 EMaxC= 1.00D-01 BMatC= 5.25D-01 BMatP= 1.96D+00
 IDIUse=3 WtCom= 8.64D-01 WtEn= 1.36D-01
 Coeff-Com: -0.771D+00 0.177D+01
 Coeff-En:   0.000D+00 0.100D+01
 Coeff:     -0.666D+00 0.167D+01
 Gap=    -0.003 Goal=   None    Shift=    0.000
 Gap=     0.012 Goal=   None    Shift=    0.000
 RMSDP=2.43D-03 MaxDP=1.24D-01 DE=-1.75D-01 OVMax= 9.46D-01

 Cycle   3  Pass 1  IDiag  1:
 RMSU=  2.39D-03    CP:  9.63D-01  1.25D+00
 E= -881.235453321126     Delta-E=        0.071309028858 Rises=F Damp=F
 DIIS: error= 1.50D-02 at cycle   3 NSaved=   3.
 NSaved= 3 IEnMin= 2 EnMin= -881.306762349984     IErMin= 2 ErrMin= 1.36D-02
 ErrMax= 1.50D-02  0.00D+00 EMaxC= 1.00D-01 BMatC= 1.13D+00 BMatP= 5.25D-01
 IDIUse=2 WtCom= 0.00D+00 WtEn= 1.00D+00
 Coeff-En:   0.000D+00 0.583D+00 0.417D+00
 Coeff:      0.000D+00 0.583D+00 0.417D+00
 Gap=    -0.166 Goal=   None    Shift=    0.000
 Gap=    -0.117 Goal=   None    Shift=    0.000
 RMSDP=3.75D-03 MaxDP=2.45D-01 DE= 7.13D-02 OVMax= 9.22D-01

 Cycle   4  Pass 1  IDiag  1:
 RMSU=  1.61D-03    CP:  9.61D-01  2.87D+00 -2.36D-01
 E= -881.147577104613     Delta-E=        0.087876216514 Rises=F Damp=F
 DIIS: error= 2.22D-02 at cycle   4 NSaved=   4.
 NSaved= 4 IEnMin= 2 EnMin= -881.306762349984     IErMin= 2 ErrMin= 1.36D-02
 ErrMax= 2.22D-02  0.00D+00 EMaxC= 1.00D-01 BMatC= 1.75D+00 BMatP= 5.25D-01
 IDIUse=2 WtCom= 0.00D+00 WtEn= 1.00D+00
 Coeff-En:   0.000D+00 0.000D+00 0.532D+00 0.468D+00
 Coeff:      0.000D+00 0.000D+00 0.532D+00 0.468D+00
 Gap=     0.253 Goal=   None    Shift=    0.000
 Gap=     0.232 Goal=   None    Shift=    0.000
 RMSDP=1.58D-03 MaxDP=9.86D-02 DE= 8.79D-02 OVMax= 2.21D-01

 Cycle   5  Pass 1  IDiag  1:
 RMSU=  1.14D-03    CP:  9.67D-01  2.09D+00 -9.35D-02  5.87D-01
 E= -881.535265250531     Delta-E=       -0.387688145918 Rises=F Damp=F
 DIIS: error= 8.11D-03 at cycle   5 NSaved=   5.
 NSaved= 5 IEnMin= 5 EnMin= -881.535265250531     IErMin= 5 ErrMin= 8.11D-03
 ErrMax= 8.11D-03  0.00D+00 EMaxC= 1.00D-01 BMatC= 2.52D-01 BMatP= 5.25D-01
 IDIUse=3 WtCom= 9.19D-01 WtEn= 8.11D-02
 Coeff-Com: -0.445D+00 0.734D+00 0.250D+00-0.578D-01 0.519D+00
 Coeff-En:   0.000D+00 0.000D+00 0.287D+00 0.000D+00 0.713D+00
 Coeff:     -0.409D+00 0.674D+00 0.253D+00-0.531D-01 0.535D+00
 Gap=     0.016 Goal=   None    Shift=    0.000
 Gap=     0.014 Goal=   None    Shift=    0.000
 RMSDP=1.25D-03 MaxDP=8.60D-02 DE=-3.88D-01 OVMax= 5.00D-01

 Cycle   6  Pass 1  IDiag  1:
 RMSU=  8.99D-04    CP:  9.67D-01  2.13D+00  1.08D-01  1.83D-01  7.36D-01
 E= -881.629288755712     Delta-E=       -0.094023505181 Rises=F Damp=F
 DIIS: error= 3.62D-03 at cycle   6 NSaved=   6.
 NSaved= 6 IEnMin= 6 EnMin= -881.629288755712     IErMin= 6 ErrMin= 3.62D-03
 ErrMax= 3.62D-03  0.00D+00 EMaxC= 1.00D-01 BMatC= 3.28D-02 BMatP= 2.52D-01
 IDIUse=3 WtCom= 9.64D-01 WtEn= 3.62D-02
 Coeff-Com: -0.236D+00 0.348D+00 0.135D+00-0.906D-01 0.339D+00 0.504D+00
 Coeff-En:   0.000D+00 0.000D+00 0.123D-01 0.000D+00 0.000D+00 0.988D+00
 Coeff:     -0.227D+00 0.335D+00 0.131D+00-0.874D-01 0.326D+00 0.522D+00
 Gap=     0.036 Goal=   None    Shift=    0.000
 Gap=     0.035 Goal=   None    Shift=    0.000
 RMSDP=7.92D-04 MaxDP=6.57D-02 DE=-9.40D-02 OVMax= 3.19D-01

 Cycle   7  Pass 1  IDiag  1:
 RMSU=  5.47D-04    CP:  9.66D-01  1.95D+00  3.01D-01  1.32D-01  6.99D-01
                    CP:  1.30D+00
 E= -881.644431390489     Delta-E=       -0.015142634776 Rises=F Damp=F
 DIIS: error= 3.04D-03 at cycle   7 NSaved=   7.
 NSaved= 7 IEnMin= 7 EnMin= -881.644431390489     IErMin= 7 ErrMin= 3.04D-03
 ErrMax= 3.04D-03  0.00D+00 EMaxC= 1.00D-01 BMatC= 2.30D-02 BMatP= 3.28D-02
 IDIUse=3 WtCom= 9.70D-01 WtEn= 3.04D-02
 Coeff-Com: -0.501D-01 0.633D-01 0.541D-01 0.528D-02 0.185D+00 0.248D+00
 Coeff-Com:  0.495D+00
 Coeff-En:   0.000D+00 0.000D+00 0.000D+00 0.000D+00 0.000D+00 0.894D-01
 Coeff-En:   0.911D+00
 Coeff:     -0.486D-01 0.614D-01 0.525D-01 0.512D-02 0.179D+00 0.243D+00
 Coeff:      0.507D+00
 Gap=     0.073 Goal=   None    Shift=    0.000
 Gap=     0.051 Goal=   None    Shift=    0.000
 RMSDP=3.11D-04 MaxDP=1.37D-02 DE=-1.51D-02 OVMax= 1.17D-01

 Cycle   8  Pass 1  IDiag  1:
 RMSU=  1.56D-04    CP:  9.65D-01  1.89D+00  3.36D-01  1.96D-01  5.80D-01
                    CP:  1.37D+00  1.31D+00
 E= -881.648963011568     Delta-E=       -0.004531621079 Rises=F Damp=F
 DIIS: error= 2.50D-03 at cycle   8 NSaved=   8.
 NSaved= 8 IEnMin= 8 EnMin= -881.648963011568     IErMin= 8 ErrMin= 2.50D-03
 ErrMax= 2.50D-03  0.00D+00 EMaxC= 1.00D-01 BMatC= 1.71D-02 BMatP= 2.30D-02
 IDIUse=3 WtCom= 9.75D-01 WtEn= 2.50D-02
 Coeff-Com: -0.608D-01 0.839D-01 0.168D-01 0.178D-01 0.165D+00 0.356D-01
 Coeff-Com: -0.111D-01 0.753D+00
 Coeff-En:   0.000D+00 0.000D+00 0.000D+00 0.000D+00 0.000D+00 0.000D+00
 Coeff-En:   0.000D+00 0.100D+01
 Coeff:     -0.593D-01 0.818D-01 0.163D-01 0.173D-01 0.160D+00 0.347D-01
 Coeff:     -0.108D-01 0.760D+00
 Gap=     0.097 Goal=   None    Shift=    0.000
 Gap=     0.058 Goal=   None    Shift=    0.000
 RMSDP=2.20D-04 MaxDP=9.80D-03 DE=-4.53D-03 OVMax= 7.90D-02

 Cycle   9  Pass 1  IDiag  1:
 RMSU=  7.42D-05    CP:  9.65D-01  1.87D+00  3.48D-01  2.48D-01  4.89D-01
                    CP:  1.37D+00  1.56D+00  1.40D+00
 E= -881.651870171232     Delta-E=       -0.002907159665 Rises=F Damp=F
 DIIS: error= 2.16D-03 at cycle   9 NSaved=   9.
 NSaved= 9 IEnMin= 9 EnMin= -881.651870171232     IErMin= 9 ErrMin= 2.16D-03
 ErrMax= 2.16D-03  0.00D+00 EMaxC= 1.00D-01 BMatC= 1.18D-02 BMatP= 1.71D-02
 IDIUse=3 WtCom= 9.78D-01 WtEn= 2.16D-02
 Coeff-Com: -0.732D-01 0.976D-01-0.435D-02 0.794D-02 0.148D+00-0.137D+00
 Coeff-Com: -0.837D+00 0.510D+00 0.129D+01
 Coeff-En:   0.000D+00 0.000D+00 0.000D+00 0.000D+00 0.000D+00 0.000D+00
 Coeff-En:   0.000D+00 0.000D+00 0.100D+01
 Coeff:     -0.716D-01 0.955D-01-0.425D-02 0.777D-02 0.145D+00-0.134D+00
 Coeff:     -0.819D+00 0.499D+00 0.128D+01
 Gap=     0.141 Goal=   None    Shift=    0.000
 Gap=     0.062 Goal=   None    Shift=    0.000
 RMSDP=3.28D-04 MaxDP=1.23D-02 DE=-2.91D-03 OVMax= 1.10D-01

 Cycle  10  Pass 1  IDiag  1:
 RMSU=  6.87D-05    CP:  9.64D-01  1.83D+00  3.61D-01  3.54D-01  3.55D-01
                    CP:  1.35D+00  1.89D+00  2.16D+00  1.39D+00
 E= -881.655519623002     Delta-E=       -0.003649451770 Rises=F Damp=F
 DIIS: error= 6.26D-04 at cycle  10 NSaved=  10.
 NSaved=10 IEnMin=10 EnMin= -881.655519623002     IErMin=10 ErrMin= 6.26D-04
 ErrMax= 6.26D-04  0.00D+00 EMaxC= 1.00D-01 BMatC= 1.17D-03 BMatP= 1.18D-02
 IDIUse=3 WtCom= 9.94D-01 WtEn= 6.26D-03
 Coeff-Com: -0.187D-01 0.223D-01-0.704D-02-0.281D-03 0.448D-01-0.388D-01
 Coeff-Com: -0.423D+00 0.257D-01 0.540D+00 0.855D+00
 Coeff-En:   0.000D+00 0.000D+00 0.000D+00 0.000D+00 0.000D+00 0.000D+00
 Coeff-En:   0.000D+00 0.000D+00 0.000D+00 0.100D+01
 Coeff:     -0.186D-01 0.222D-01-0.699D-02-0.279D-03 0.446D-01-0.386D-01
 Coeff:     -0.420D+00 0.255D-01 0.536D+00 0.856D+00
 Gap=     0.156 Goal=   None    Shift=    0.000
 Gap=     0.066 Goal=   None    Shift=    0.000
 RMSDP=9.73D-05 MaxDP=3.90D-03 DE=-3.65D-03 OVMax= 2.13D-02

 Cycle  11  Pass 1  IDiag  1:
 RMSU=  4.22D-05    CP:  9.64D-01  1.83D+00  3.59D-01  3.88D-01  3.16D-01
                    CP:  1.35D+00  1.95D+00  2.35D+00  1.65D+00  1.31D+00
 E= -881.655804712329     Delta-E=       -0.000285089327 Rises=F Damp=F
 DIIS: error= 2.66D-04 at cycle  11 NSaved=  11.
 NSaved=11 IEnMin=11 EnMin= -881.655804712329     IErMin=11 ErrMin= 2.66D-04
 ErrMax= 2.66D-04  0.00D+00 EMaxC= 1.00D-01 BMatC= 1.98D-04 BMatP= 1.17D-03
 IDIUse=3 WtCom= 9.97D-01 WtEn= 2.66D-03
 Coeff-Com:  0.711D-02-0.103D-01-0.235D-02-0.261D-03-0.378D-02 0.283D-01
 Coeff-Com:  0.501D-02-0.192D-01-0.998D-01 0.503D+00 0.592D+00
 Coeff-En:   0.000D+00 0.000D+00 0.000D+00 0.000D+00 0.000D+00 0.000D+00
 Coeff-En:   0.000D+00 0.000D+00 0.000D+00 0.000D+00 0.100D+01
 Coeff:      0.709D-02-0.102D-01-0.234D-02-0.260D-03-0.377D-02 0.282D-01
 Coeff:      0.500D-02-0.191D-01-0.995D-01 0.502D+00 0.593D+00
 Gap=     0.152 Goal=   None    Shift=    0.000
 Gap=     0.065 Goal=   None    Shift=    0.000
 RMSDP=4.99D-05 MaxDP=2.10D-03 DE=-2.85D-04 OVMax= 1.94D-02

 Cycle  12  Pass 1  IDiag  1:
 RMSU=  1.28D-05    CP:  9.64D-01  1.83D+00  3.55D-01  3.74D-01  3.27D-01
                    CP:  1.36D+00  1.89D+00  2.23D+00  1.57D+00  1.46D+00
                    CP:  7.84D-01
 E= -881.655884196224     Delta-E=       -0.000079483895 Rises=F Damp=F
 DIIS: error= 5.72D-05 at cycle  12 NSaved=  12.
 NSaved=12 IEnMin=12 EnMin= -881.655884196224     IErMin=12 ErrMin= 5.72D-05
 ErrMax= 5.72D-05  0.00D+00 EMaxC= 1.00D-01 BMatC= 1.08D-05 BMatP= 1.98D-04
 IDIUse=1 WtCom= 1.00D+00 WtEn= 0.00D+00
 Coeff-Com:  0.177D-02-0.230D-02-0.400D-03-0.858D-03-0.164D-02 0.145D-01
 Coeff-Com:  0.266D-01 0.235D-01-0.989D-01 0.894D-01 0.155D+00 0.793D+00
 Coeff:      0.177D-02-0.230D-02-0.400D-03-0.858D-03-0.164D-02 0.145D-01
 Coeff:      0.266D-01 0.235D-01-0.989D-01 0.894D-01 0.155D+00 0.793D+00
 Gap=     0.150 Goal=   None    Shift=    0.000
 Gap=     0.065 Goal=   None    Shift=    0.000
 RMSDP=2.05D-05 MaxDP=8.98D-04 DE=-7.95D-05 OVMax= 8.38D-03

 Cycle  13  Pass 1  IDiag  1:
 RMSU=  5.88D-06    CP:  9.64D-01  1.83D+00  3.53D-01  3.68D-01  3.31D-01
                    CP:  1.37D+00  1.87D+00  2.20D+00  1.53D+00  1.50D+00
                    CP:  8.51D-01  1.21D+00
 E= -881.655892015643     Delta-E=       -0.000007819420 Rises=F Damp=F
 DIIS: error= 4.25D-05 at cycle  13 NSaved=  13.
 NSaved=13 IEnMin=13 EnMin= -881.655892015643     IErMin=13 ErrMin= 4.25D-05
 ErrMax= 4.25D-05  0.00D+00 EMaxC= 1.00D-01 BMatC= 8.55D-06 BMatP= 1.08D-05
 IDIUse=1 WtCom= 1.00D+00 WtEn= 0.00D+00
 Coeff-Com: -0.318D-03 0.321D-03 0.435D-03-0.493D-03 0.375D-03 0.865D-03
 Coeff-Com:  0.775D-02 0.225D-01-0.435D-01-0.726D-01-0.725D-01 0.453D+00
 Coeff-Com:  0.704D+00
 Coeff:     -0.318D-03 0.321D-03 0.435D-03-0.493D-03 0.375D-03 0.865D-03
 Coeff:      0.775D-02 0.225D-01-0.435D-01-0.726D-01-0.725D-01 0.453D+00
 Coeff:      0.704D+00
 Gap=     0.151 Goal=   None    Shift=    0.000
 Gap=     0.065 Goal=   None    Shift=    0.000
 RMSDP=8.86D-06 MaxDP=3.95D-04 DE=-7.82D-06 OVMax= 2.94D-03

 Cycle  14  Pass 1  IDiag  1:
 RMSU=  2.99D-06    CP:  9.64D-01  1.83D+00  3.52D-01  3.67D-01  3.31D-01
                    CP:  1.37D+00  1.86D+00  2.19D+00  1.52D+00  1.56D+00
                    CP:  8.93D-01  1.50D+00  1.04D+00
 E= -881.655895796919     Delta-E=       -0.000003781276 Rises=F Damp=F
 DIIS: error= 1.80D-05 at cycle  14 NSaved=  14.
 NSaved=14 IEnMin=14 EnMin= -881.655895796919     IErMin=14 ErrMin= 1.80D-05
 ErrMax= 1.80D-05  0.00D+00 EMaxC= 1.00D-01 BMatC= 6.87D-07 BMatP= 8.55D-06
 IDIUse=1 WtCom= 1.00D+00 WtEn= 0.00D+00
 Coeff-Com: -0.983D-03 0.132D-02 0.277D-03-0.227D-03 0.857D-03-0.348D-02
 Coeff-Com: -0.857D-02 0.606D-02 0.966D-02-0.513D-01-0.775D-01-0.393D-01
 Coeff-Com:  0.280D+00 0.883D+00
 Coeff:     -0.983D-03 0.132D-02 0.277D-03-0.227D-03 0.857D-03-0.348D-02
 Coeff:     -0.857D-02 0.606D-02 0.966D-02-0.513D-01-0.775D-01-0.393D-01
 Coeff:      0.280D+00 0.883D+00
 Gap=     0.151 Goal=   None    Shift=    0.000
 Gap=     0.065 Goal=   None    Shift=    0.000
 RMSDP=4.81D-06 MaxDP=1.93D-04 DE=-3.78D-06 OVMax= 1.51D-03

 Cycle  15  Pass 1  IDiag  1:
 RMSU=  1.77D-06    CP:  9.64D-01  1.83D+00  3.52D-01  3.66D-01  3.31D-01
                    CP:  1.37D+00  1.86D+00  2.19D+00  1.52D+00  1.59D+00
                    CP:  9.20D-01  1.65D+00  1.31D+00  1.23D+00
 E= -881.655896367633     Delta-E=       -0.000000570714 Rises=F Damp=F
 DIIS: error= 1.54D-05 at cycle  15 NSaved=  15.
 NSaved=15 IEnMin=15 EnMin= -881.655896367633     IErMin=15 ErrMin= 1.54D-05
 ErrMax= 1.54D-05  0.00D+00 EMaxC= 1.00D-01 BMatC= 7.08D-07 BMatP= 6.87D-07
 IDIUse=1 WtCom= 1.00D+00 WtEn= 0.00D+00
 Coeff-Com: -0.370D-03 0.491D-03 0.119D-03-0.302D-04 0.352D-03-0.256D-02
 Coeff-Com: -0.916D-02-0.160D-02 0.216D-01-0.899D-02-0.255D-01-0.135D+00
 Coeff-Com: -0.194D-01 0.446D+00 0.734D+00
 Coeff:     -0.370D-03 0.491D-03 0.119D-03-0.302D-04 0.352D-03-0.256D-02
 Coeff:     -0.916D-02-0.160D-02 0.216D-01-0.899D-02-0.255D-01-0.135D+00
 Coeff:     -0.194D-01 0.446D+00 0.734D+00
 Gap=     0.151 Goal=   None    Shift=    0.000
 Gap=     0.066 Goal=   None    Shift=    0.000
 RMSDP=1.89D-06 MaxDP=9.12D-05 DE=-5.71D-07 OVMax= 4.28D-04

 Cycle  16  Pass 1  IDiag  1:
 RMSU=  8.45D-07    CP:  9.64D-01  1.83D+00  3.52D-01  3.66D-01  3.31D-01
                    CP:  1.37D+00  1.86D+00  2.19D+00  1.52D+00  1.59D+00
                    CP:  9.24D-01  1.70D+00  1.40D+00  1.58D+00  1.18D+00
 E= -881.655896537148     Delta-E=       -0.000000169514 Rises=F Damp=F
 DIIS: error= 1.21D-05 at cycle  16 NSaved=  16.
 NSaved=16 IEnMin=16 EnMin= -881.655896537148     IErMin=16 ErrMin= 1.21D-05
 ErrMax= 1.21D-05  0.00D+00 EMaxC= 1.00D-01 BMatC= 4.62D-07 BMatP= 6.87D-07
 IDIUse=1 WtCom= 1.00D+00 WtEn= 0.00D+00
 Coeff-Com:  0.113D-03-0.167D-03 0.613D-05 0.370D-04-0.567D-04-0.617D-03
 Coeff-Com: -0.376D-02-0.213D-02 0.133D-01 0.129D-01 0.116D-01-0.605D-01
 Coeff-Com: -0.869D-01-0.674D-01 0.365D+00 0.818D+00
 Coeff:      0.113D-03-0.167D-03 0.613D-05 0.370D-04-0.567D-04-0.617D-03
 Coeff:     -0.376D-02-0.213D-02 0.133D-01 0.129D-01 0.116D-01-0.605D-01
 Coeff:     -0.869D-01-0.674D-01 0.365D+00 0.818D+00
 Gap=     0.151 Goal=   None    Shift=    0.000
 Gap=     0.066 Goal=   None    Shift=    0.000
 RMSDP=1.21D-06 MaxDP=5.32D-05 DE=-1.70D-07 OVMax= 1.69D-04

 Cycle  17  Pass 1  IDiag  1:
 RMSU=  4.08D-07    CP:  9.64D-01  1.83D+00  3.52D-01  3.66D-01  3.31D-01
                    CP:  1.37D+00  1.86D+00  2.19D+00  1.52D+00  1.59D+00
                    CP:  9.20D-01  1.71D+00  1.45D+00  1.73D+00  1.50D+00
                    CP:  1.18D+00
 E= -881.655896677421     Delta-E=       -0.000000140273 Rises=F Damp=F
 DIIS: error= 4.36D-06 at cycle  17 NSaved=  17.
 NSaved=17 IEnMin=17 EnMin= -881.655896677421     IErMin=17 ErrMin= 4.36D-06
 ErrMax= 4.36D-06  0.00D+00 EMaxC= 1.00D-01 BMatC= 6.42D-08 BMatP= 4.62D-07
 IDIUse=1 WtCom= 1.00D+00 WtEn= 0.00D+00
 Coeff-Com:  0.262D-04-0.244D-04-0.108D-04-0.129D-05-0.421D-04 0.465D-04
 Coeff-Com: -0.248D-03-0.259D-03 0.308D-02 0.606D-02 0.814D-02-0.144D-02
 Coeff-Com: -0.193D-01-0.102D+00 0.238D-01 0.311D+00 0.772D+00
 Coeff:      0.262D-04-0.244D-04-0.108D-04-0.129D-05-0.421D-04 0.465D-04
 Coeff:     -0.248D-03-0.259D-03 0.308D-02 0.606D-02 0.814D-02-0.144D-02
 Coeff:     -0.193D-01-0.102D+00 0.238D-01 0.311D+00 0.772D+00
 Gap=     0.151 Goal=   None    Shift=    0.000
 Gap=     0.066 Goal=   None    Shift=    0.000
 RMSDP=6.20D-07 MaxDP=2.60D-05 DE=-1.40D-07 OVMax= 6.92D-05

 Cycle  18  Pass 1  IDiag  1:
 RMSU=  2.07D-07    CP:  9.64D-01  1.83D+00  3.52D-01  3.65D-01  3.31D-01
                    CP:  1.37D+00  1.86D+00  2.19D+00  1.52D+00  1.58D+00
                    CP:  9.18D-01  1.70D+00  1.45D+00  1.76D+00  1.60D+00
                    CP:  1.39D+00  1.21D+00
 E= -881.655896701237     Delta-E=       -0.000000023816 Rises=F Damp=F
 DIIS: error= 1.79D-06 at cycle  18 NSaved=  18.
 NSaved=18 IEnMin=18 EnMin= -881.655896701237     IErMin=18 ErrMin= 1.79D-06
 ErrMax= 1.79D-06  0.00D+00 EMaxC= 1.00D-01 BMatC= 5.29D-09 BMatP= 6.42D-08
 IDIUse=1 WtCom= 1.00D+00 WtEn= 0.00D+00
 Coeff-Com: -0.399D-05 0.129D-04-0.259D-05 0.794D-05-0.327D-04 0.130D-03
 Coeff-Com:  0.128D-02 0.282D-03-0.289D-02-0.199D-02-0.177D-03 0.173D-01
 Coeff-Com:  0.217D-01-0.284D-01-0.109D+00-0.131D+00 0.386D+00 0.847D+00
 Coeff:     -0.399D-05 0.129D-04-0.259D-05 0.794D-05-0.327D-04 0.130D-03
 Coeff:      0.128D-02 0.282D-03-0.289D-02-0.199D-02-0.177D-03 0.173D-01
 Coeff:      0.217D-01-0.284D-01-0.109D+00-0.131D+00 0.386D+00 0.847D+00
 Gap=     0.151 Goal=   None    Shift=    0.000
 Gap=     0.066 Goal=   None    Shift=    0.000
 RMSDP=3.30D-07 MaxDP=1.42D-05 DE=-2.38D-08 OVMax= 8.90D-05

 Cycle  19  Pass 1  IDiag  1:
 RMSU=  1.17D-07    CP:  9.64D-01  1.83D+00  3.52D-01  3.66D-01  3.31D-01
                    CP:  1.37D+00  1.86D+00  2.19D+00  1.52D+00  1.58D+00
                    CP:  9.18D-01  1.70D+00  1.45D+00  1.78D+00  1.66D+00
                    CP:  1.53D+00  1.59D+00  1.28D+00
 E= -881.655896705363     Delta-E=       -0.000000004126 Rises=F Damp=F
 DIIS: error= 1.54D-06 at cycle  19 NSaved=  19.
 NSaved=19 IEnMin=19 EnMin= -881.655896705363     IErMin=19 ErrMin= 1.54D-06
 ErrMax= 1.54D-06  0.00D+00 EMaxC= 1.00D-01 BMatC= 6.11D-09 BMatP= 5.29D-09
 IDIUse=1 WtCom= 1.00D+00 WtEn= 0.00D+00
 Coeff-Com: -0.145D-04 0.215D-04-0.255D-05 0.438D-05-0.424D-05 0.548D-04
 Coeff-Com:  0.768D-03 0.342D-04-0.243D-02-0.287D-02-0.248D-02 0.722D-02
 Coeff-Com:  0.148D-01 0.200D-01-0.467D-01-0.132D+00-0.634D-01 0.371D+00
 Coeff-Com:  0.836D+00
 Coeff:     -0.145D-04 0.215D-04-0.255D-05 0.438D-05-0.424D-05 0.548D-04
 Coeff:      0.768D-03 0.342D-04-0.243D-02-0.287D-02-0.248D-02 0.722D-02
 Coeff:      0.148D-01 0.200D-01-0.467D-01-0.132D+00-0.634D-01 0.371D+00
 Coeff:      0.836D+00
 Gap=     0.151 Goal=   None    Shift=    0.000
 Gap=     0.066 Goal=   None    Shift=    0.000
 RMSDP=2.08D-07 MaxDP=7.79D-06 DE=-4.13D-09 OVMax= 5.88D-05

 Cycle  20  Pass 1  IDiag  1:
 RMSU=  6.52D-08    CP:  9.64D-01  1.83D+00  3.52D-01  3.66D-01  3.31D-01
                    CP:  1.37D+00  1.86D+00  2.19D+00  1.52D+00  1.58D+00
                    CP:  9.18D-01  1.70D+00  1.45D+00  1.78D+00  1.67D+00
                    CP:  1.57D+00  1.75D+00  1.66D+00  1.31D+00
 E= -881.655896707757     Delta-E=       -0.000000002394 Rises=F Damp=F
 DIIS: error= 7.57D-07 at cycle  20 NSaved=  20.
 NSaved=20 IEnMin=20 EnMin= -881.655896707757     IErMin=20 ErrMin= 7.57D-07
 ErrMax= 7.57D-07  0.00D+00 EMaxC= 1.00D-01 BMatC= 1.57D-09 BMatP= 5.29D-09
 IDIUse=1 WtCom= 1.00D+00 WtEn= 0.00D+00
 Coeff-Com:  0.104D-04-0.165D-04-0.444D-05 0.514D-05-0.854D-05 0.320D-04
 Coeff-Com:  0.178D-03-0.187D-03-0.714D-03-0.651D-03-0.744D-03-0.118D-02
 Coeff-Com: -0.253D-03 0.141D-01 0.649D-02-0.239D-01-0.154D+00-0.445D-01
 Coeff-Com:  0.433D+00 0.772D+00
 Coeff:      0.104D-04-0.165D-04-0.444D-05 0.514D-05-0.854D-05 0.320D-04
 Coeff:      0.178D-03-0.187D-03-0.714D-03-0.651D-03-0.744D-03-0.118D-02
 Coeff:     -0.253D-03 0.141D-01 0.649D-02-0.239D-01-0.154D+00-0.445D-01
 Coeff:      0.433D+00 0.772D+00
 Gap=     0.151 Goal=   None    Shift=    0.000
 Gap=     0.066 Goal=   None    Shift=    0.000
 RMSDP=1.15D-07 MaxDP=4.63D-06 DE=-2.39D-09 OVMax= 1.88D-05

 Cycle  21  Pass 1  IDiag  1:
 Restarting incremental Fock formation.
 E= -881.655896708453     Delta-E=       -0.000000000695 Rises=F Damp=F
 DIIS: error= 2.87D-07 at cycle  21 NSaved=  20.
 NSaved=20 IEnMin=20 EnMin= -881.655896708453     IErMin=20 ErrMin= 2.87D-07
 ErrMax= 2.87D-07  0.00D+00 EMaxC= 1.00D-01 BMatC= 1.35D-10 BMatP= 1.57D-09
 IDIUse=1 WtCom= 1.00D+00 WtEn= 0.00D+00
 Coeff-Com: -0.187D-06-0.297D-06-0.144D-05 0.538D-05 0.738D-05-0.113D-03
 Coeff-Com: -0.730D-04 0.290D-03 0.387D-03 0.212D-03-0.226D-02-0.343D-02
 Coeff-Com:  0.743D-03 0.147D-01 0.250D-01-0.547D-01-0.103D+00-0.604D-01
 Coeff-Com:  0.399D+00 0.784D+00
 Coeff:     -0.187D-06-0.297D-06-0.144D-05 0.538D-05 0.738D-05-0.113D-03
 Coeff:     -0.730D-04 0.290D-03 0.387D-03 0.212D-03-0.226D-02-0.343D-02
 Coeff:      0.743D-03 0.147D-01 0.250D-01-0.547D-01-0.103D+00-0.604D-01
 Coeff:      0.399D+00 0.784D+00
 Gap=     0.151 Goal=   None    Shift=    0.000
 Gap=     0.066 Goal=   None    Shift=    0.000
 RMSDP=4.21D-08 MaxDP=2.13D-06 DE=-6.95D-10 OVMax= 7.42D-06

 Cycle  22  Pass 1  IDiag  1:
 RMSU=  4.21D-08    CP:  1.00D+00
 E= -881.655896708535     Delta-E=       -0.000000000082 Rises=F Damp=F
 DIIS: error= 9.79D-08 at cycle  22 NSaved=  20.
 NSaved=20 IEnMin=20 EnMin= -881.655896708535     IErMin=20 ErrMin= 9.79D-08
 ErrMax= 9.79D-08  0.00D+00 EMaxC= 1.00D-01 BMatC= 4.02D-11 BMatP= 1.35D-10
 IDIUse=1 WtCom= 1.00D+00 WtEn= 0.00D+00
 Coeff-Com:  0.621D-06-0.135D-06 0.224D-05 0.370D-05-0.627D-04-0.126D-05
 Coeff-Com:  0.232D-03 0.380D-03 0.346D-03-0.802D-03-0.180D-02-0.330D-02
 Coeff-Com:  0.520D-02 0.163D-01-0.361D-02-0.365D-01-0.111D+00 0.918D-01
 Coeff-Com:  0.407D+00 0.636D+00
 Coeff:      0.621D-06-0.135D-06 0.224D-05 0.370D-05-0.627D-04-0.126D-05
 Coeff:      0.232D-03 0.380D-03 0.346D-03-0.802D-03-0.180D-02-0.330D-02
 Coeff:      0.520D-02 0.163D-01-0.361D-02-0.365D-01-0.111D+00 0.918D-01
 Coeff:      0.407D+00 0.636D+00
 Gap=     0.151 Goal=   None    Shift=    0.000
 Gap=     0.066 Goal=   None    Shift=    0.000
 RMSDP=2.07D-08 MaxDP=6.99D-07 DE=-8.21D-11 OVMax= 5.65D-06

 Cycle  23  Pass 1  IDiag  1:
 RMSU=  1.75D-08    CP:  1.00D+00  1.26D+00
 E= -881.655896708550     Delta-E=       -0.000000000016 Rises=F Damp=F
 DIIS: error= 2.58D-08 at cycle  23 NSaved=  20.
 NSaved=20 IEnMin=20 EnMin= -881.655896708550     IErMin=20 ErrMin= 2.58D-08
 ErrMax= 2.58D-08  0.00D+00 EMaxC= 1.00D-01 BMatC= 3.19D-12 BMatP= 4.02D-11
 IDIUse=1 WtCom= 1.00D+00 WtEn= 0.00D+00
 Coeff-Com: -0.874D-07-0.116D-06 0.174D-06 0.136D-05 0.998D-05 0.319D-04
 Coeff-Com:  0.587D-04 0.810D-04 0.173D-03 0.125D-03-0.150D-02-0.120D-02
 Coeff-Com:  0.965D-03 0.102D-01 0.118D-01-0.309D-01-0.541D-01-0.342D-01
 Coeff-Com:  0.247D+00 0.851D+00
 Coeff:     -0.874D-07-0.116D-06 0.174D-06 0.136D-05 0.998D-05 0.319D-04
 Coeff:      0.587D-04 0.810D-04 0.173D-03 0.125D-03-0.150D-02-0.120D-02
 Coeff:      0.965D-03 0.102D-01 0.118D-01-0.309D-01-0.541D-01-0.342D-01
 Coeff:      0.247D+00 0.851D+00
 Gap=     0.151 Goal=   None    Shift=    0.000
 Gap=     0.066 Goal=   None    Shift=    0.000
 RMSDP=9.06D-09 MaxDP=5.49D-07 DE=-1.57D-11 OVMax= 2.67D-06

 Error on total polarization charges =  0.01000
 SCF Done:  E(UB3LYP) =  -881.655896709     A.U. after   23 cycles
            NFock= 23  Conv=0.91D-08     -V/T= 2.0094
 <Sx>= 0.0000 <Sy>= 0.0000 <Sz>= 0.0000 <S**2>= 0.9795 S= 0.6088
 <L.S>=  0.00000000000    
 KE= 8.734209308086D+02 PE=-5.276329987387D+03 EE= 1.907905611834D+03
 Annihilation of the first spin contaminant:
 S**2 before annihilation     0.9795,   after     0.1004
 Leave Link  502 at Tue Jun 11 16:52:12 2019, MaxMem=   104857600 cpu:            2315.5 elap:              59.2
 (Enter /project/6004141/group/g16/g16/l801.exe)
 DoSCS=F DFT=T ScalE2(SS,OS)=  1.000000  1.000000
 Range of M.O.s used for correlation:     1   400
 NBasis=   400 NAE=    73 NBE=    73 NFC=     0 NFV=     0
 NROrb=    400 NOA=    73 NOB=    73 NVA=   327 NVB=   327

 **** Warning!!: The smallest beta delta epsilon is  0.65548093D-01

 Leave Link  801 at Tue Jun 11 16:52:12 2019, MaxMem=   104857600 cpu:               2.1 elap:               0.1
 (Enter /project/6004141/group/g16/g16/l1101.exe)
 Using compressed storage, NAtomX=    40.
 Will process     41 centers per pass.
 PrsmSu:  requested number of processors reduced to:  25 ShMem   1 Linda.
[...]
     6  N(14)              0.03660       5.91223       2.10963       1.97211
     7  H(1)              -0.00345      -7.70705      -2.75007      -2.57079
     8  N(14)              0.05788       9.35100       3.33667       3.11916
     9  H(1)               0.00097       2.16251       0.77164       0.72133
    10  H(1)              -0.00126      -2.82165      -1.00684      -0.94120
    11  C(13)              0.00175       0.98516       0.35153       0.32861
    12  H(1)              -0.00020      -0.44085      -0.15731      -0.14705
    13  H(1)              -0.00065      -1.44624      -0.51605      -0.48241
    14  H(1)              -0.00419      -9.35373      -3.33764      -3.12007
    15  C(13)             -0.00364      -2.04462      -0.72957      -0.68201
    16  H(1)              -0.00056      -1.25375      -0.44737      -0.41821
    17  H(1)               0.00055       1.23940       0.44225       0.41342
    18  H(1)               0.00027       0.60765       0.21683       0.20269
    19  C(13)              0.00139       0.77939       0.27811       0.25998
    20  C(13)             -0.00524      -2.94264      -1.05001      -0.98156
    21  C(13)             -0.00532      -2.99090      -1.06723      -0.99766
    22  C(13)              0.00374       2.10320       0.75047       0.70155
    23  H(1)               0.00074       1.64951       0.58859       0.55022
    24  C(13)              0.00367       2.06242       0.73592       0.68795
    25  H(1)               0.00064       1.43311       0.51137       0.47804
    26  C(13)             -0.00578      -3.24748      -1.15878      -1.08324
    27  H(1)              -0.00034      -0.76954      -0.27459      -0.25669
    28  H(1)              -0.00033      -0.73557      -0.26247      -0.24536
    29  H(1)               0.00080       1.78954       0.63855       0.59693
    30  C(13)             -0.00640      -3.60017      -1.28463      -1.20089
    31  C(13)             -0.00034      -0.18947      -0.06761      -0.06320
    32  C(13)             -0.00196      -1.10126      -0.39296      -0.36734
    33  C(13)              0.00049       0.27638       0.09862       0.09219
    34  H(1)               0.00004       0.08753       0.03123       0.02920
    35  C(13)              0.00006       0.03647       0.01301       0.01217
    36  H(1)              -0.00008      -0.17269      -0.06162      -0.05760
    37  C(13)             -0.00096      -0.53967      -0.19257      -0.18001
    38  H(1)              -0.00006      -0.13240      -0.04725      -0.04417
    39  H(1)              -0.00011      -0.24546      -0.08759      -0.08188
    40  H(1)               0.00013       0.28521       0.10177       0.09514
 --------------------------------------------------------
       Center         ----  Spin Dipole Couplings  ----
                      3XX-RR        3YY-RR        3ZZ-RR
 --------------------------------------------------------
     1   Atom        0.144476     -0.085919     -0.058558
     2   Atom       -0.009525     -0.019774      0.029300
     3   Atom        0.017100     -0.005450     -0.011650
     4   Atom        0.423711     -0.135465     -0.288246
     5   Atom        0.135756     -0.080128     -0.055628
     6   Atom       -0.108793     -0.008278      0.117071
     7   Atom       -0.015101     -0.001459      0.016560
     8   Atom        0.024915     -0.142883      0.117968
     9   Atom        0.001382     -0.001374     -0.000008
    10   Atom        0.000379     -0.002983      0.002605
    11   Atom        0.010768      0.004800     -0.015568
    12   Atom        0.003603      0.000190     -0.003794
    13   Atom        0.006054     -0.000459     -0.005595
    14   Atom        0.003772      0.000398     -0.004170
    15   Atom        0.011777      0.003570     -0.015347
    16   Atom        0.003430      0.000248     -0.003678
    17   Atom        0.003021      0.000108     -0.003129
    18   Atom        0.004059     -0.000891     -0.003168
    19   Atom       -0.018073     -0.003355      0.021428
    20   Atom        0.020836      0.004528     -0.025364
    21   Atom        0.016013      0.002024     -0.018037
    22   Atom       -0.010276      0.000820      0.009456
    23   Atom        0.000634     -0.000600     -0.000034
    24   Atom       -0.009623     -0.000025      0.009647
    25   Atom        0.001291     -0.001305      0.000014
    26   Atom        0.022509     -0.001603     -0.020906
    27   Atom       -0.000916      0.000157      0.000758
    28   Atom       -0.000181     -0.000283      0.000464
    29   Atom       -0.001902      0.000487      0.001414
    30   Atom       -0.013797      0.002510      0.011287
    31   Atom        0.002391     -0.000377     -0.002015
    32   Atom       -0.002437      0.001603      0.000834
    33   Atom       -0.001950      0.000272      0.001678
    34   Atom        0.001324     -0.001497      0.000174
    35   Atom       -0.002719      0.000672      0.002047
    36   Atom       -0.000239      0.000030      0.000209
    37   Atom        0.003986     -0.001574     -0.002412
    38   Atom       -0.000022     -0.000320      0.000342
    39   Atom       -0.000406      0.000134      0.000272
    40   Atom       -0.000588      0.000077      0.000512
 --------------------------------------------------------
                        XY            XZ            YZ
 --------------------------------------------------------
     1   Atom       -0.000574     -0.001566      0.211201
     2   Atom        0.031354      0.025839      0.019909
     3   Atom       -0.002294     -0.012207      0.030441
     4   Atom        0.085484     -0.091928      0.637313
     5   Atom        0.020544     -0.025790      0.197570
     6   Atom        0.174303     -0.229173     -0.263077
     7   Atom        0.013400      0.006981      0.015423
     8   Atom        0.432853     -0.554070     -0.447526
     9   Atom       -0.000340     -0.013637     -0.000990
    10   Atom       -0.004116      0.006777     -0.010205
    11   Atom       -0.000141     -0.004640     -0.004969
    12   Atom        0.000680      0.002086     -0.002561
    13   Atom       -0.002547     -0.006718      0.000088
    14   Atom        0.000067     -0.001839      0.000466
    15   Atom        0.000662      0.004704     -0.012227
    16   Atom       -0.000461      0.000295      0.000110
    17   Atom       -0.001710     -0.000984     -0.001489
    18   Atom        0.001570      0.004724     -0.001474
    19   Atom       -0.019194      0.008138     -0.017761
    20   Atom        0.006425     -0.012966      0.028505
    21   Atom        0.010732     -0.015375      0.030338
    22   Atom       -0.004558      0.004551     -0.014193
    23   Atom        0.001545      0.001489     -0.001329
    24   Atom       -0.005171      0.004344     -0.014905
    25   Atom        0.000887      0.001511     -0.001309
    26   Atom        0.008578     -0.013380      0.037138
    27   Atom       -0.000399      0.000218     -0.000291
    28   Atom       -0.000917     -0.000159     -0.000663
    29   Atom       -0.002964     -0.001769      0.000962
    30   Atom        0.012063      0.000856     -0.001641
    31   Atom        0.000066      0.003756      0.003860
    32   Atom       -0.003934      0.004002      0.003742
    33   Atom        0.001434     -0.000138     -0.002462
    34   Atom        0.001272      0.001335     -0.002050
    35   Atom        0.001752     -0.000514     -0.002415
    36   Atom       -0.000432     -0.001603      0.000128
    37   Atom       -0.001045      0.002054      0.007086
    38   Atom        0.000385      0.000152     -0.000332
    39   Atom        0.000369     -0.000286     -0.000017
    40   Atom        0.000752      0.000412      0.000147
 --------------------------------------------------------


 ---------------------------------------------------------------------------------
              Anisotropic Spin Dipole Couplings in Principal Axis System
 ---------------------------------------------------------------------------------

       Atom             a.u.   MegaHertz   Gauss  10(-4) cm-1        Axes

              Baa    -0.2839   -38.094   -13.593   -12.707 -0.0015  0.7296 -0.6839
     1 C(13)  Bbb     0.1390    18.649     6.655     6.221  0.2688  0.6590  0.7025
              Bcc     0.1449    19.445     6.938     6.486  0.9632 -0.1828 -0.1972
 
              Baa    -0.0465   -24.790    -8.846    -8.269 -0.6576  0.7529  0.0264
     2 H(1)   Bbb    -0.0099    -5.287    -1.887    -1.764 -0.5686 -0.5190  0.6382
              Bcc     0.0564    30.076    10.732    10.032  0.4942  0.4047  0.7694
 
              Baa    -0.0402    -5.390    -1.923    -1.798  0.1338 -0.6484  0.7495
     3 C(13)  Bbb     0.0101     1.353     0.483     0.451  0.7657  0.5478  0.3372
              Bcc     0.0301     4.037     1.440     1.346  0.6292 -0.5287 -0.5697
 
              Baa    -0.8659    62.659    22.358    20.901  0.0969 -0.6607  0.7443
     4 O(17)  Bbb     0.4288   -31.029   -11.072   -10.350 -0.3780  0.6674  0.6416
              Bcc     0.4371   -31.630   -11.286   -10.551  0.9207  0.3435  0.1851
 
              Baa    -0.2685    19.426     6.932     6.480 -0.0805  0.7256 -0.6834
     5 O(17)  Bbb     0.1280    -9.258    -3.304    -3.088  0.4095  0.6491  0.6410
              Bcc     0.1405   -10.167    -3.628    -3.391  0.9087 -0.2283 -0.3494
 
              Baa    -0.2530    -9.756    -3.481    -3.254  0.8879 -0.1751  0.4254
     6 N(14)  Bbb    -0.2155    -8.310    -2.965    -2.772 -0.1114  0.8153  0.5682
              Bcc     0.4684    18.066     6.446     6.026 -0.4463 -0.5519  0.7044
 
              Baa    -0.0235   -12.518    -4.467    -4.175  0.8300 -0.5536  0.0686
     7 H(1)   Bbb    -0.0057    -3.068    -1.095    -1.023  0.4792  0.6447 -0.5956
              Bcc     0.0292    15.585     5.561     5.199  0.2855  0.5272  0.8003
 
              Baa    -0.5011   -19.326    -6.896    -6.446  0.7223 -0.6728  0.1600
     8 N(14)  Bbb    -0.4732   -18.250    -6.512    -6.088  0.3524  0.5571  0.7520
              Bcc     0.9743    37.576    13.408    12.534 -0.5951 -0.4867  0.6395
 
              Baa    -0.0130    -6.961    -2.484    -2.322  0.6857  0.0813  0.7234
     9 H(1)   Bbb    -0.0013    -0.698    -0.249    -0.233 -0.0761  0.9963 -0.0398
              Bcc     0.0144     7.659     2.733     2.555  0.7239  0.0278 -0.6893
 
              Baa    -0.0109    -5.791    -2.066    -1.932 -0.1004  0.7678  0.6327
    10 H(1)   Bbb    -0.0039    -2.069    -0.738    -0.690  0.8703  0.3760 -0.3181
              Bcc     0.0147     7.860     2.805     2.622  0.4822 -0.5187  0.7060
 
              Baa    -0.0175    -2.342    -0.836    -0.781  0.1595  0.2161  0.9633
    11 C(13)  Bbb     0.0058     0.779     0.278     0.260 -0.1523  0.9694 -0.1923
              Bcc     0.0116     1.562     0.558     0.521  0.9754  0.1161 -0.1875
 
              Baa    -0.0056    -2.967    -1.059    -0.990 -0.2310  0.4184  0.8784
    12 H(1)   Bbb     0.0014     0.753     0.269     0.251  0.1037  0.9083 -0.4053
              Bcc     0.0042     2.215     0.790     0.739  0.9674  0.0025  0.2532
 
              Baa    -0.0088    -4.685    -1.672    -1.563  0.4267  0.1211  0.8963
    13 H(1)   Bbb    -0.0009    -0.474    -0.169    -0.158  0.1562  0.9662 -0.2049
              Bcc     0.0097     5.160     1.841     1.721  0.8908 -0.2274 -0.3934
 
              Baa    -0.0046    -2.464    -0.879    -0.822  0.2139 -0.0932  0.9724
    14 H(1)   Bbb     0.0004     0.236     0.084     0.079  0.0291  0.9956  0.0890
              Bcc     0.0042     2.229     0.795     0.743  0.9764 -0.0092 -0.2156
 
              Baa    -0.0220    -2.946    -1.051    -0.983 -0.1329  0.4310  0.8925
    15 C(13)  Bbb     0.0089     1.201     0.428     0.400  0.3880  0.8512 -0.3533
              Bcc     0.0130     1.745     0.623     0.582  0.9120 -0.2994  0.2804
 
              Baa    -0.0037    -1.971    -0.703    -0.658 -0.0435 -0.0329  0.9985
    16 H(1)   Bbb     0.0002     0.100     0.036     0.034  0.1373  0.9898  0.0386
              Bcc     0.0035     1.871     0.668     0.624  0.9896 -0.1387  0.0386
 
              Baa    -0.0041    -2.166    -0.773    -0.722  0.2215  0.4075  0.8859
    17 H(1)   Bbb     0.0002     0.127     0.045     0.042  0.3401  0.8192 -0.4618
              Bcc     0.0038     2.039     0.728     0.680  0.9139 -0.4036 -0.0429
 
              Baa    -0.0063    -3.343    -1.193    -1.115 -0.4331  0.3539  0.8290
    18 H(1)   Bbb    -0.0002    -0.111    -0.040    -0.037  0.0615  0.9292 -0.3645
              Bcc     0.0065     3.454     1.233     1.152  0.8992  0.1068  0.4242
 
              Baa    -0.0315    -4.231    -1.510    -1.411  0.8011  0.5937  0.0760
    19 C(13)  Bbb    -0.0043    -0.579    -0.207    -0.193 -0.5158  0.6203  0.5910
              Bcc     0.0358     4.810     1.716     1.604  0.3037 -0.5126  0.8031
 
              Baa    -0.0457    -6.136    -2.190    -2.047  0.2118 -0.5025  0.8382
    20 C(13)  Bbb     0.0213     2.852     1.018     0.951  0.3907  0.8297  0.3987
              Bcc     0.0245     3.285     1.172     1.096  0.8958 -0.2431 -0.3721
 
              Baa    -0.0457    -6.127    -2.186    -2.044  0.2909 -0.5593  0.7762
    21 C(13)  Bbb     0.0217     2.908     1.038     0.970  0.9489  0.2726 -0.1591
              Bcc     0.0240     3.219     1.148     1.074 -0.1226  0.7828  0.6100
 
              Baa    -0.0119    -1.604    -0.572    -0.535  0.9059  0.4153  0.0827
    22 C(13)  Bbb    -0.0093    -1.249    -0.446    -0.417 -0.3742  0.6937  0.6154
              Bcc     0.0213     2.853     1.018     0.952  0.1982 -0.5884  0.7839
 
              Baa    -0.0030    -1.575    -0.562    -0.526 -0.5128  0.6521  0.5584
    23 H(1)   Bbb     0.0010     0.542     0.193     0.181  0.1385  0.7048 -0.6958
              Bcc     0.0019     1.034     0.369     0.345  0.8473  0.2794  0.4517
 
              Baa    -0.0125    -1.680    -0.600    -0.560  0.7072  0.6431  0.2938
    24 C(13)  Bbb    -0.0093    -1.252    -0.447    -0.418  0.6768 -0.4957 -0.5443
              Bcc     0.0218     2.932     1.046     0.978  0.2044 -0.5837  0.7858
 
              Baa    -0.0027    -1.459    -0.521    -0.487 -0.3726  0.7415  0.5580
    25 H(1)   Bbb     0.0004     0.236     0.084     0.079  0.4050  0.6709 -0.6212
              Bcc     0.0023     1.223     0.436     0.408  0.8350  0.0055  0.5503
 
              Baa    -0.0529    -7.105    -2.535    -2.370  0.2054 -0.5959  0.7764
    26 C(13)  Bbb     0.0250     3.350     1.195     1.117  0.8258  0.5313  0.1892
              Bcc     0.0280     3.756     1.340     1.253 -0.5252  0.6023  0.6012
 
              Baa    -0.0011    -0.563    -0.201    -0.188  0.9524  0.2975 -0.0668
    27 H(1)   Bbb     0.0001     0.059     0.021     0.020 -0.2347  0.8551  0.4623
              Bcc     0.0009     0.505     0.180     0.168  0.1947 -0.4246  0.8842
 
              Baa    -0.0013    -0.720    -0.257    -0.240  0.6118  0.7241  0.3184
    28 H(1)   Bbb     0.0004     0.188     0.067     0.063  0.6818 -0.2785 -0.6765
              Bcc     0.0010     0.532     0.190     0.178  0.4012 -0.6310  0.6640
 
              Baa    -0.0041    -2.174    -0.776    -0.725  0.8416  0.5084  0.1820
    29 H(1)   Bbb     0.0002     0.116     0.041     0.039  0.1963 -0.6021  0.7739
              Bcc     0.0039     2.058     0.734     0.687 -0.5031  0.6156  0.6066
 
              Baa    -0.0203    -2.721    -0.971    -0.908  0.8813 -0.4700 -0.0483
    30 C(13)  Bbb     0.0085     1.145     0.408     0.382  0.4562  0.8198  0.3463
              Bcc     0.0117     1.576     0.563     0.526 -0.1231 -0.3272  0.9369
 
              Baa    -0.0062    -0.830    -0.296    -0.277 -0.3398 -0.5178  0.7851
    31 C(13)  Bbb     0.0008     0.107     0.038     0.036 -0.6014  0.7615  0.2418
              Bcc     0.0054     0.723     0.258     0.241  0.7231  0.3900  0.5701
 
              Baa    -0.0081    -1.087    -0.388    -0.363  0.7038  0.4854 -0.5187
    32 C(13)  Bbb     0.0031     0.416     0.149     0.139  0.7066 -0.4035  0.5812
              Bcc     0.0050     0.671     0.239     0.224 -0.0729  0.7756  0.6270
 
              Baa    -0.0029    -0.394    -0.140    -0.131  0.7801 -0.5613 -0.2763
    33 C(13)  Bbb    -0.0008    -0.104    -0.037    -0.035  0.6004  0.5475  0.5829
              Bcc     0.0037     0.498     0.178     0.166 -0.1759 -0.6207  0.7641
 
              Baa    -0.0035    -1.892    -0.675    -0.631 -0.3487  0.7623  0.5453
    34 H(1)   Bbb     0.0013     0.715     0.255     0.239  0.4593  0.6461 -0.6095
              Bcc     0.0022     1.177     0.420     0.392  0.8170 -0.0380  0.5754
 
              Baa    -0.0035    -0.471    -0.168    -0.157  0.8937 -0.4358 -0.1067
    35 C(13)  Bbb    -0.0007    -0.091    -0.033    -0.030  0.3944  0.6497  0.6498
              Bcc     0.0042     0.562     0.201     0.188 -0.2139 -0.6228  0.7525
 
              Baa    -0.0017    -0.890    -0.318    -0.297  0.7574  0.1449  0.6367
    36 H(1)   Bbb    -0.0000    -0.012    -0.004    -0.004  0.0386  0.9635 -0.2651
              Bcc     0.0017     0.902     0.322     0.301 -0.6518  0.2253  0.7242
 
              Baa    -0.0095    -1.269    -0.453    -0.423 -0.1627 -0.6715  0.7229
    37 C(13)  Bbb     0.0040     0.535     0.191     0.178  0.8564 -0.4600 -0.2345
              Bcc     0.0055     0.734     0.262     0.245  0.4900  0.5810  0.6499
 
              Baa    -0.0007    -0.377    -0.135    -0.126 -0.5164  0.7921  0.3255
    38 H(1)   Bbb     0.0002     0.121     0.043     0.040  0.8560  0.4670  0.2216
              Bcc     0.0005     0.256     0.091     0.085 -0.0235 -0.3931  0.9192
 
              Baa    -0.0007    -0.352    -0.126    -0.118  0.8773 -0.4023  0.2617
    39 H(1)   Bbb     0.0002     0.101     0.036     0.034  0.1433  0.7401  0.6571
              Bcc     0.0005     0.251     0.090     0.084 -0.4580 -0.5390  0.7069
 
              Baa    -0.0011    -0.599    -0.214    -0.200  0.8445 -0.5088 -0.1673
    40 H(1)   Bbb     0.0002     0.116     0.042     0.039 -0.2617 -0.6645  0.7000
              Bcc     0.0009     0.483     0.172     0.161  0.4673  0.5474  0.6943
 

 ---------------------------------------------------------------------------------

 No NMR shielding tensors so no spin-rotation constants.
 Leave Link  601 at Tue Jun 11 17:14:40 2019, MaxMem=   104857600 cpu:              20.9 elap:               0.6
 (Enter /project/6004141/group/g16/g16/l9999.exe)


 SUCCESS IS COUNTED SWEETEST
 BY THOSE WHO NE'ER SUCCEED.
 TO COMPREHEND NECTAR
 REQUIRES SOREST NEED.
           EMILY DICKINSON
 Error termination request processed by link 9999.
 Error termination via Lnk1e in /project/6004141/group/g16/g16/l9999.exe at Tue Jun 11 17:14:40 2019.
 Job cpu time:       0 days 15 hours 15 minutes 52.6 seconds.
 Elapsed time:       0 days  0 hours 23 minutes 26.7 seconds.
 File lengths (MBytes):  RWF=   1388 Int=      0 D2E=      0 Chk=     28 Scr=      2
Error: segmentation violation
   rax 0000000000000000, rbx ffffffffffffffff, rcx ffffffffffffffff
   rdx 000000000000dcaa, rsp 00007ffe6df37948, rbp 00007ffe6df37ec0
   rsi 000000000000000b, rdi 000000000000dcaa, r8  0000000000000020
   r9  0000000000000401, r10 00007ffe6df36d20, r11 0000000000000206
   r12 00007ffe6df37f08, r13 0000000000000000, r14 0000000000000000
   r15 00000000000003e6
  /lib64/libpthread.so.0(+0xf5d0) [0x2aaac8e505d0]
  /lib64/libc.so.6(kill+0x7) [0x2aaac93954d7]
  /project/6004141/group/g16/g16/l9999.exe() [0x498d59]
  /project/6004141/group/g16/g16/l9999.exe() [0x4afeea]
  /project/6004141/group/g16/g16/l9999.exe() [0x4e374c]
  /project/6004141/group/g16/g16/l9999.exe() [0x4d6daf]
  /project/6004141/group/g16/g16/l9999.exe() [0x455160]
  /project/6004141/group/g16/g16/l9999.exe() [0x450beb]
  /project/6004141/group/g16/g16/l9999.exe() [0x450af4]
  /lib64/libc.so.6(__libc_start_main+0xf5) [0x2aaac93813d5]
  /project/6004141/group/g16/g16/l9999.exe() [0x4509e9]
