 Entering Gaussian System, Link 0=g16
 Initial command:
 /project/6004141/group/g16/g16/l1.exe "/scratch/rzk/Gau-358672.inp" -scrdir="/scratch/rzk/"
 Entering Link 1 = /project/6004141/group/g16/g16/l1.exe PID=    358673.
  
 Copyright (c) 1988,1990,1992,1993,1995,1998,2003,2009,2016,
            Gaussian, Inc.  All Rights Reserved.
  
 This is part of the Gaussian(R) 16 program.  It is based on
 the Gaussian(R) 09 system (copyright 2009, Gaussian, Inc.),
 the Gaussian(R) 03 system (copyright 2003, Gaussian, Inc.),
 the Gaussian(R) 98 system (copyright 1998, Gaussian, Inc.),
 the Gaussian(R) 94 system (copyright 1995, Gaussian, Inc.),
 the Gaussian 92(TM) system (copyright 1992, Gaussian, Inc.),
 the Gaussian 90(TM) system (copyright 1990, Gaussian, Inc.),
 the Gaussian 88(TM) system (copyright 1988, Gaussian, Inc.),
 the Gaussian 86(TM) system (copyright 1986, Carnegie Mellon
 University), and the Gaussian 82(TM) system (copyright 1983,
 Carnegie Mellon University). Gaussian is a federally registered
 trademark of Gaussian, Inc.
  
 This software contains proprietary and confidential information,
 including trade secrets, belonging to Gaussian, Inc.
  
 This software is provided under written license and may be
 used, copied, transmitted, or stored only in accord with that
 written license.
  
 The following legend is applicable only to US Government
 contracts under FAR:
  
                    RESTRICTED RIGHTS LEGEND
  
 Use, reproduction and disclosure by the US Government is
 subject to restrictions as set forth in subparagraphs (a)
 and (c) of the Commercial Computer Software - Restricted
 Rights clause in FAR 52.227-19.
  
 Gaussian, Inc.
 340 Quinnipiac St., Bldg. 40, Wallingford CT 06492
  
  
 ---------------------------------------------------------------
 Warning -- This program may not be used in any manner that
 competes with the business of Gaussian, Inc. or will provide
 assistance to any competitor of Gaussian, Inc.  The licensee
 of this program is prohibited from giving any competitor of
 Gaussian, Inc. access to this program.  By using this program,
 the user acknowledges that Gaussian, Inc. is engaged in the
 business of creating and licensing software in the field of
 computational chemistry and represents and warrants to the
 licensee that it is not a competitor of Gaussian, Inc. and that
 it will not use this program in any manner prohibited above.
 ---------------------------------------------------------------
  

 Cite this work as:
 Gaussian 16, Revision A.03,
 M. J. Frisch, G. W. Trucks, H. B. Schlegel, G. E. Scuseria, 
 M. A. Robb, J. R. Cheeseman, G. Scalmani, V. Barone, 
 G. A. Petersson, H. Nakatsuji, X. Li, M. Caricato, A. V. Marenich, 
 J. Bloino, B. G. Janesko, R. Gomperts, B. Mennucci, H. P. Hratchian, 
 J. V. Ortiz, A. F. Izmaylov, J. L. Sonnenberg, D. Williams-Young, 
 F. Ding, F. Lipparini, F. Egidi, J. Goings, B. Peng, A. Petrone, 
 T. Henderson, D. Ranasinghe, V. G. Zakrzewski, J. Gao, N. Rega, 
 G. Zheng, W. Liang, M. Hada, M. Ehara, K. Toyota, R. Fukuda, 
 J. Hasegawa, M. Ishida, T. Nakajima, Y. Honda, O. Kitao, H. Nakai, 
 T. Vreven, K. Throssell, J. A. Montgomery, Jr., J. E. Peralta, 
 F. Ogliaro, M. J. Bearpark, J. J. Heyd, E. N. Brothers, K. N. Kudin, 
 V. N. Staroverov, T. A. Keith, R. Kobayashi, J. Normand, 
 K. Raghavachari, A. P. Rendell, J. C. Burant, S. S. Iyengar, 
 J. Tomasi, M. Cossi, J. M. Millam, M. Klene, C. Adamo, R. Cammi, 
 J. W. Ochterski, R. L. Martin, K. Morokuma, O. Farkas, 
 J. B. Foresman, and D. J. Fox, Gaussian, Inc., Wallingford CT, 2016.
 
 ******************************************
 Gaussian 16:  ES64L-G16RevA.03 25-Dec-2016
                12-Jun-2019 
 ******************************************
 %NProcShared=40
 Will use up to   40 processors via shared memory.
 %chk=AABH-freq.chk
 ----------------------------------------------------------------------
 #p freq ub3lyp/6-31g(d,p) scrf=(iefpcm,solvent=acetonitrile) guess=(mi
 x,always) empiricaldispersion=gd3
 ----------------------------------------------------------------------
 1/10=4,30=1,38=1/1,3;
 2/12=2,17=6,18=5,40=1/2;
 3/5=1,6=6,7=101,11=2,25=1,30=1,70=2201,71=2,72=2,74=-5,116=2,124=31,140=1/1,2,3;
 4/13=-1/1;
 5/5=2,38=5,53=2,98=1/2;
 8/6=4,10=90,11=11/1;
 11/6=1,8=1,9=11,15=111,16=1/1,2,10;
 10/6=1/2;
 6/7=2,8=2,9=2,10=2,28=1/1;
 7/8=1,10=1,25=1/1,2,3,16;
 1/10=4,30=1/3;
 99//99;
 Leave Link    1 at Wed Jun 12 00:55:26 2019, MaxMem=           0 cpu:              10.0 elap:               0.3
 (Enter /project/6004141/group/g16/g16/l101.exe)
 -------------------
 Title Card Required
 -------------------
 Symbolic Z-matrix:
 Charge =  0 Multiplicity = 1
 C                     0.04082  -0.77886   1.23221 
 H                    -3.56592  -1.89447  -1.88009 
 C                    -1.11342   0.26518  -0.24681 
 O                    -2.25255   0.23437   0.39571 
 O                    -0.87969  -1.78114   1.45722 
 N                    -4.16349  -1.35423  -0.2009 
 H                    -4.9347   -1.35511   0.46403 
 N                    -4.40341  -1.99999  -1.2903 
 H                    -1.75013  -1.32696   1.43475 
 H                    -3.31457  -0.69471  -0.01586 
 C                     0.08902   0.23566   2.35034 
 H                     0.73164   1.08623   2.12574 
 H                    -0.9196    0.61485   2.53488 
 H                     0.45169  -0.24886   3.26532 
 C                    -0.99775  -0.6932   -1.4217 
 H                    -1.66818  -0.34855  -2.21895 
 H                     0.00752  -0.77292  -1.83302 
 H                    -1.30664  -1.69051  -1.09827 
 C                     1.27597  -1.24848   0.60533 
 C                     1.33326  -2.52407  -0.00131 
 C                     2.4312   -0.43732   0.54738 
 C                     2.48817  -2.96084  -0.64213 
 H                     0.45947  -3.16276   0.04445 
 C                     3.58305  -0.87894  -0.09867 
 H                     2.42537   0.54712   0.99886 
 C                     3.62053  -2.1409   -0.69895 
 H                     2.50805  -3.94655  -1.09827 
 H                     4.45675  -0.23453  -0.13227 
 H                     4.52087  -2.48275  -1.20041 
 C                    -0.41832   1.58107  -0.33842 
 C                    -0.93974   2.68223   0.36629 
 C                     0.7572    1.76775  -1.08919 
 C                    -0.30438   3.92085   0.33228 
 H                    -1.85263   2.54271   0.93378 
 C                     1.39326   3.00871  -1.12149 
 H                     1.18945   0.94181  -1.64059 
 C                     0.86885   4.09056  -0.41003 
 H                    -0.72567   4.75793   0.88199 
 H                     2.30179   3.12943  -1.70449 
 H                     1.36542   5.05599  -0.43743 
 
 ITRead=  0  0  0  0  0  0  0  0  0  0  0  0  0  0  0  0  0  0  0  0
 ITRead=  0  0  0  0  0  0  0  0  0  0  0  0  0  0  0  0  0  0  0  0
 MicOpt= -1 -1 -1 -1 -1 -1 -1 -1 -1 -1 -1 -1 -1 -1 -1 -1 -1 -1 -1 -1
 MicOpt= -1 -1 -1 -1 -1 -1 -1 -1 -1 -1 -1 -1 -1 -1 -1 -1 -1 -1 -1 -1
 NAtoms=     40 NQM=       40 NQMF=       0 NMMI=      0 NMMIF=      0
                NMic=       0 NMicF=      0.
                    Isotopes and Nuclear Properties:
 (Nuclear quadrupole moments (NQMom) in fm**2, nuclear magnetic moments (NMagM)
  in nuclear magnetons)

  Atom         1           2           3           4           5           6           7           8           9          10
 IAtWgt=          12           1          12          16          16          14           1          14           1           1
 AtmWgt=  12.0000000   1.0078250  12.0000000  15.9949146  15.9949146  14.0030740   1.0078250  14.0030740   1.0078250   1.0078250
 NucSpn=           0           1           0           0           0           2           1           2           1           1
 AtZEff=  -0.0000000  -0.0000000  -0.0000000  -0.0000000  -0.0000000  -0.0000000  -0.0000000  -0.0000000  -0.0000000  -0.0000000
 NQMom=    0.0000000   0.0000000   0.0000000   0.0000000   0.0000000   2.0440000   0.0000000   2.0440000   0.0000000   0.0000000
 NMagM=    0.0000000   2.7928460   0.0000000   0.0000000   0.0000000   0.4037610   2.7928460   0.4037610   2.7928460   2.7928460
 AtZNuc=   6.0000000   1.0000000   6.0000000   8.0000000   8.0000000   7.0000000   1.0000000   7.0000000   1.0000000   1.0000000

  Atom        11          12          13          14          15          16          17          18          19          20
 IAtWgt=          12           1           1           1          12           1           1           1          12          12
 AtmWgt=  12.0000000   1.0078250   1.0078250   1.0078250  12.0000000   1.0078250   1.0078250   1.0078250  12.0000000  12.0000000
 NucSpn=           0           1           1           1           0           1           1           1           0           0
 AtZEff=  -0.0000000  -0.0000000  -0.0000000  -0.0000000  -0.0000000  -0.0000000  -0.0000000  -0.0000000  -0.0000000  -0.0000000
 NQMom=    0.0000000   0.0000000   0.0000000   0.0000000   0.0000000   0.0000000   0.0000000   0.0000000   0.0000000   0.0000000
 NMagM=    0.0000000   2.7928460   2.7928460   2.7928460   0.0000000   2.7928460   2.7928460   2.7928460   0.0000000   0.0000000
 AtZNuc=   6.0000000   1.0000000   1.0000000   1.0000000   6.0000000   1.0000000   1.0000000   1.0000000   6.0000000   6.0000000

  Atom        21          22          23          24          25          26          27          28          29          30
 IAtWgt=          12          12           1          12           1          12           1           1           1          12
 AtmWgt=  12.0000000  12.0000000   1.0078250  12.0000000   1.0078250  12.0000000   1.0078250   1.0078250   1.0078250  12.0000000
 NucSpn=           0           0           1           0           1           0           1           1           1           0
 AtZEff=  -0.0000000  -0.0000000  -0.0000000  -0.0000000  -0.0000000  -0.0000000  -0.0000000  -0.0000000  -0.0000000  -0.0000000
 NQMom=    0.0000000   0.0000000   0.0000000   0.0000000   0.0000000   0.0000000   0.0000000   0.0000000   0.0000000   0.0000000
 NMagM=    0.0000000   0.0000000   2.7928460   0.0000000   2.7928460   0.0000000   2.7928460   2.7928460   2.7928460   0.0000000
 AtZNuc=   6.0000000   6.0000000   1.0000000   6.0000000   1.0000000   6.0000000   1.0000000   1.0000000   1.0000000   6.0000000

  Atom        31          32          33          34          35          36          37          38          39          40
 IAtWgt=          12          12          12           1          12           1          12           1           1           1
 AtmWgt=  12.0000000  12.0000000  12.0000000   1.0078250  12.0000000   1.0078250  12.0000000   1.0078250   1.0078250   1.0078250
 NucSpn=           0           0           0           1           0           1           0           1           1           1
 AtZEff=  -0.0000000  -0.0000000  -0.0000000  -0.0000000  -0.0000000  -0.0000000  -0.0000000  -0.0000000  -0.0000000  -0.0000000
 NQMom=    0.0000000   0.0000000   0.0000000   0.0000000   0.0000000   0.0000000   0.0000000   0.0000000   0.0000000   0.0000000
 NMagM=    0.0000000   0.0000000   0.0000000   2.7928460   0.0000000   2.7928460   0.0000000   2.7928460   2.7928460   2.7928460
 AtZNuc=   6.0000000   6.0000000   6.0000000   1.0000000   6.0000000   1.0000000   6.0000000   1.0000000   1.0000000   1.0000000
 Leave Link  101 at Wed Jun 12 00:55:27 2019, MaxMem=   104857600 cpu:              10.7 elap:               0.4
 (Enter /project/6004141/group/g16/g16/l103.exe)

 GradGradGradGradGradGradGradGradGradGradGradGradGradGradGradGradGradGrad
 Berny optimization.
 Initialization pass.
 Trust Radius=3.00D-01 FncErr=1.00D-07 GrdErr=1.00D-07 EigMax=2.50D+02 EigMin=1.00D-04
 Number of steps in this run=      2 maximum allowed number of steps=      2.
 GradGradGradGradGradGradGradGradGradGradGradGradGradGradGradGradGradGrad

 Leave Link  103 at Wed Jun 12 00:55:27 2019, MaxMem=   104857600 cpu:               1.4 elap:               0.1
 (Enter /project/6004141/group/g16/g16/l202.exe)
                          Input orientation:                          
 ---------------------------------------------------------------------
 Center     Atomic      Atomic             Coordinates (Angstroms)
 Number     Number       Type             X           Y           Z
 ---------------------------------------------------------------------
      1          6           0        0.040816   -0.778860    1.232213
      2          1           0       -3.565922   -1.894467   -1.880089
      3          6           0       -1.113422    0.265177   -0.246812
      4          8           0       -2.252548    0.234366    0.395707
      5          8           0       -0.879693   -1.781141    1.457223
      6          7           0       -4.163487   -1.354232   -0.200903
      7          1           0       -4.934704   -1.355113    0.464026
      8          7           0       -4.403411   -1.999988   -1.290296
      9          1           0       -1.750134   -1.326958    1.434747
     10          1           0       -3.314569   -0.694709   -0.015855
     11          6           0        0.089016    0.235655    2.350344
     12          1           0        0.731641    1.086234    2.125735
     13          1           0       -0.919604    0.614853    2.534882
     14          1           0        0.451688   -0.248863    3.265317
     15          6           0       -0.997745   -0.693196   -1.421704
     16          1           0       -1.668183   -0.348546   -2.218953
     17          1           0        0.007524   -0.772924   -1.833020
     18          1           0       -1.306637   -1.690509   -1.098273
     19          6           0        1.275972   -1.248483    0.605334
     20          6           0        1.333255   -2.524065   -0.001311
     21          6           0        2.431199   -0.437322    0.547379
     22          6           0        2.488171   -2.960841   -0.642126
     23          1           0        0.459466   -3.162755    0.044450
     24          6           0        3.583049   -0.878937   -0.098665
     25          1           0        2.425370    0.547119    0.998856
     26          6           0        3.620532   -2.140901   -0.698946
     27          1           0        2.508045   -3.946553   -1.098272
     28          1           0        4.456747   -0.234532   -0.132272
     29          1           0        4.520870   -2.482747   -1.200406
     30          6           0       -0.418318    1.581068   -0.338423
     31          6           0       -0.939739    2.682226    0.366285
     32          6           0        0.757198    1.767749   -1.089192
     33          6           0       -0.304384    3.920853    0.332278
     34          1           0       -1.852630    2.542707    0.933775
     35          6           0        1.393261    3.008707   -1.121485
     36          1           0        1.189447    0.941811   -1.640592
     37          6           0        0.868849    4.090561   -0.410030
     38          1           0       -0.725669    4.757932    0.881988
     39          1           0        2.301794    3.129429   -1.704491
     40          1           0        1.365416    5.055990   -0.437428
 ---------------------------------------------------------------------
                    Distance matrix (angstroms):
                    1          2          3          4          5
     1  C    0.000000
     2  H    4.892807   0.000000
     3  C    2.147043   3.653274   0.000000
     4  O    2.643083   3.381735   1.308200   0.000000
     5  O    1.379324   4.285595   2.673160   2.659665   0.000000
     6  N    4.478955   1.862419   3.453620   2.555636   3.703368
     7  H    5.067344   2.767552   4.211036   3.118505   4.196553
     8  N    5.254080   1.029747   4.128421   3.530036   4.473628
     9  H    1.883861   3.821948   2.401653   1.941586   0.982067
    10  H    3.580972   2.231136   2.412420   1.469848   3.046131
    11  C    1.510556   5.982688   2.862158   3.050169   2.409051
    12  H    2.180412   6.587887   3.115665   3.553035   3.356359
    13  H    2.135835   5.726400   2.810278   2.549035   2.627495
    14  H    2.140847   6.732340   3.879286   3.972539   2.718392
    15  C    2.851179   2.872055   1.520602   2.395388   3.079900
    16  H    3.875099   2.471055   2.138634   2.741845   4.023471
    17  H    3.065420   3.745609   2.202324   3.330133   3.553780
    18  H    2.842164   2.399417   2.141734   2.613784   2.592500
    19  C    1.462578   5.480745   2.954069   3.833176   2.378304
    20  C    2.497543   5.284708   3.718383   4.541426   2.752525
    21  C    2.509896   6.631842   3.699808   4.734095   3.687231
    22  C    3.776736   6.270706   4.851282   5.810410   4.140225
    23  H    2.696109   4.638551   3.782794   4.361059   2.387076
    24  C    3.785322   7.437241   4.836092   5.961379   4.811530
    25  H    2.738389   7.081331   3.762211   4.726999   4.068702
    26  C    4.289394   7.287040   5.329536   6.429092   5.003051
    27  H    4.642484   6.458744   5.619491   6.509632   4.764067
    28  H    4.653876   8.376960   5.593712   6.746352   5.778935
    29  H    5.375105   8.136599   6.340794   7.470574   6.059812
    30  C    2.871752   4.935938   1.491017   2.391015   3.839487
    31  C    3.700059   5.734906   2.499636   2.777832   4.595149
    32  C    3.519566   5.720726   2.542940   3.689818   4.664575
    33  C    4.797536   7.024966   3.788648   4.170078   5.840310
    34  H    3.834972   5.526456   2.669711   2.403724   4.462764
    35  C    4.659900   7.014990   3.817783   4.826050   5.895651
    36  H    3.540208   5.542145   2.775547   4.061320   4.614354
    37  C    5.205176   7.592682   4.311566   5.026189   6.404757
    38  H    5.600556   7.742772   4.648590   4.799008   6.566132
    39  H    5.386184   7.726607   4.689613   5.790877   6.650714
    40  H    6.211903   8.643392   5.397487   6.085379   7.441544
                    6          7          8          9         10
     6  N    0.000000
     7  H    1.018286   0.000000
     8  N    1.288930   1.943137   0.000000
     9  H    2.915539   3.329351   3.862474   0.000000
    10  H    1.090814   1.814182   2.124507   2.225184   0.000000
    11  C    5.207723   5.597008   6.199537   2.581192   4.248396
    12  H    5.944022   6.389751   6.896578   3.529896   4.912228
    13  H    4.678097   4.928513   5.797093   2.381325   3.735916
    14  H    5.876765   6.171243   6.884187   3.059623   5.014934
    15  C    3.456768   4.415174   3.650142   3.021102   2.709998
    16  H    3.363105   4.345309   3.327332   3.783323   2.772013
    17  H    4.516532   5.480965   4.610486   3.751615   3.787414
    18  H    3.013295   3.964359   3.118118   2.597123   2.488983
    19  C    5.499901   6.213198   6.034365   3.138694   4.665363
    20  C    5.623390   6.392988   5.903006   3.605914   4.994900
    21  C    6.700040   7.423329   7.247818   4.366053   5.779042
    22  C    6.857144   7.674699   6.988366   4.994618   6.260939
    23  H    4.970176   5.704444   5.175050   3.191459   4.509792
    24  C    7.761777   8.549590   8.152318   5.567308   6.900575
    25  H    6.961867   7.620710   7.639386   4.597499   5.959755
    26  C    7.839506   8.669604   8.046938   5.836026   7.117142
    27  H    7.213511   8.034354   7.182911   5.604512   6.756401
    28  H    8.692921   9.476847   9.108252   6.494175   7.785799
    29  H    8.814228   9.666942   8.937781   6.899665   8.123690
    30  C    4.760377   5.446359   5.441598   3.657114   3.697497
    31  C    5.196850   5.680617   6.055115   4.227518   4.146027
    32  C    5.894825   6.675515   6.392822   4.715315   4.878016
    33  C    6.557704   7.020900   7.381811   5.553841   5.521397
    34  H    4.670513   4.991277   5.664720   3.903304   3.676945
    35  C    7.124616   7.848561   7.662697   5.934075   6.091089
    36  H    5.999868   6.870990   6.329056   4.821427   5.060052
    37  C    7.417136   8.006283   8.103480   6.293789   6.368294
    38  H    7.095759   7.433706   7.994629   6.195237   6.102444
    39  H    8.010234   8.785243   8.452352   6.792078   7.001361
    40  H    8.468510   9.033625   9.153883   7.345319   7.426340
                   11         12         13         14         15
    11  C    0.000000
    12  H    1.089450   0.000000
    13  H    1.093234   1.765279   0.000000
    14  H    1.097025   1.777500   1.777634   0.000000
    15  C    4.033877   4.329142   4.167934   4.926099   0.000000
    16  H    4.930265   5.166630   4.907897   5.880562   1.097213
    17  H    4.303999   4.433120   4.675902   5.144411   1.089084
    18  H    4.189381   4.717956   4.320220   4.920464   1.093003
    19  C    2.580037   2.838806   3.466371   2.958749   3.096291
    20  C    3.833336   4.233264   4.621737   4.077323   3.286816
    21  C    3.031403   2.775055   4.035483   3.367665   3.962375
    22  C    4.992836   5.208192   5.872980   5.173993   4.231024
    23  H    4.123539   4.739170   4.730159   4.343364   3.220527
    24  C    4.410014   4.115869   5.425943   4.638835   4.771646
    25  H    2.716998   2.104571   3.681415   3.108996   4.372094
    26  C    5.236200   5.170968   6.218091   5.416342   4.893538
    27  H    5.935951   6.235285   6.764245   6.078028   4.793694
    28  H    5.045942   4.551860   6.061379   5.252077   5.623566
    29  H    6.295940   6.177305   7.290148   6.441363   5.805737
    30  C    3.049097   2.763936   3.072579   4.134308   2.584862
    31  C    3.313689   2.904542   2.996206   4.351062   3.820176
    32  C    3.824158   3.286468   4.156290   4.808514   3.040829
    33  C    4.219957   3.510684   4.019900   5.153726   4.984641
    34  H    3.331538   3.196958   2.674080   4.305674   4.092698
    35  C    4.630817   3.831198   4.944583   5.544579   4.417140
    36  H    4.199664   3.796796   4.689305   5.101954   2.739520
    37  C    4.805008   3.933816   4.894039   5.702000   5.233736
    38  H    4.823979   4.141500   4.464837   5.668723   5.924172
    39  H    5.450872   4.616347   5.888360   6.287666   5.057607
    40  H    5.712836   4.767645   5.812026   6.533505   6.293367
                   16         17         18         19         20
    16  H    0.000000
    17  H    1.771168   0.000000
    18  H    1.785358   1.763189   0.000000
    19  C    4.177862   2.789388   3.125305   0.000000
    20  C    4.319658   2.859933   2.977780   1.413651   0.000000
    21  C    4.946252   3.413668   4.272010   1.412760   2.420958
    22  C    5.156137   3.515511   4.027702   2.440851   1.391132
    23  H    4.191617   3.072529   2.567575   2.155391   1.083294
    24  C    5.687915   3.975375   5.056372   2.440242   2.788816
    25  H    5.283340   3.950698   4.830404   2.167986   3.409578
    26  C    5.787354   4.026327   4.963800   2.827458   2.421806
    27  H    5.625163   4.106626   4.431877   3.420506   2.146375
    28  H    6.471631   4.793537   6.022427   3.418989   3.874960
    29  H    6.625453   4.867647   5.881999   3.913243   3.405940
    30  C    2.970179   2.820716   3.474147   3.430402   4.475910
    31  C    4.049650   4.203845   4.626052   4.518517   5.692723
    32  C    3.411384   2.751420   4.027288   3.498314   4.464862
    33  C    5.157179   5.178547   5.876935   5.412404   6.658086
    34  H    4.281712   4.701993   4.727308   4.926372   6.057758
    35  C    4.674187   4.089900   5.419651   4.595577   5.645348
    36  H    3.188349   2.091480   3.667922   3.138321   3.836694
    37  C    5.423505   5.140065   6.215077   5.449964   6.643493
    38  H    6.048164   6.204773   6.770624   6.337202   7.618849
    39  H    5.302990   4.528637   6.051452   5.055068   5.983384
    40  H    6.448687   6.145550   7.286414   6.390754   7.592659
                   21         22         23         24         25
    21  C    0.000000
    22  C    2.790397   0.000000
    23  H    3.401272   2.151232   0.000000
    24  C    1.392535   2.414215   3.872090   0.000000
    25  H    1.083046   3.873312   4.305675   2.139722   0.000000
    26  C    2.422812   1.399204   3.404286   1.397961   3.396527
    27  H    3.876696   1.086321   2.473222   3.400752   4.959624
    28  H    2.146135   3.401177   4.958223   1.086156   2.452941
    29  H    3.406647   2.161508   4.301986   2.159988   4.290450
    30  C    3.602539   5.400819   4.839520   4.703195   3.308161
    31  C    4.596477   6.679196   6.018734   5.775264   4.035193
    32  C    3.216051   5.055264   5.067905   3.996439   2.938142
    33  C    5.150085   7.490363   7.130485   6.191594   4.390668
    34  H    5.232692   7.184362   6.220047   6.505397   4.721005
    35  C    3.967057   6.088031   6.349671   4.577675   3.408887
    36  H    2.869002   4.232530   4.496632   3.379644   2.941084
    37  C    4.884598   7.238670   7.279062   5.670956   4.118701
    38  H    6.088386   8.498891   8.052534   7.162473   5.260575
    39  H    4.220116   6.185042   6.785613   4.504141   3.740546
    40  H    5.681744   8.097658   8.282555   6.344763   4.849364
                   26         27         28         29         30
    26  C    0.000000
    27  H    2.158117   0.000000
    28  H    2.157456   4.302290   0.000000
    29  H    1.085785   2.490908   2.489878   0.000000
    30  C    5.504120   6.300442   5.206262   6.453928   0.000000
    31  C    6.722599   7.613991   6.154518   7.677872   1.407495
    32  C    4.860917   5.976520   4.314103   5.678407   1.407246
    33  C    7.294741   8.476574   6.336513   8.163228   2.436681
    34  H    7.386302   8.078069   6.975511   8.392343   2.144875
    35  C    5.626521   7.044070   4.569692   6.320145   2.435807
    36  H    4.037324   5.092044   3.786035   4.797889   2.165457
    37  C    6.818090   8.231394   5.626419   7.561106   2.821255
    38  H    8.305583   9.494546   7.267108   9.180957   3.417065
    39  H    5.525085   7.104897   4.293242   6.055982   3.415051
    40  H    7.546468   9.098796   6.135069   8.208019   3.907249
                   31         32         33         34         35
    31  C    0.000000
    32  C    2.415425   0.000000
    33  C    1.392490   2.789873   0.000000
    34  H    1.083919   3.391778   2.158275   0.000000
    35  C    2.786205   1.394846   2.414008   3.870020   0.000000
    36  H    3.404414   1.083077   3.872782   4.294702   2.140811
    37  C    2.420137   2.422640   1.398677   3.407068   1.396991
    38  H    2.149496   3.876292   1.086445   2.485949   3.400523
    39  H    3.872420   2.149079   3.401021   4.956201   1.086233
    40  H    3.405062   3.406942   2.160837   4.307274   2.158721
                   36         37         38         39         40
    36  H    0.000000
    37  C    3.395835   0.000000
    38  H    4.959220   2.158051   0.000000
    39  H    2.455009   2.157020   4.302026   0.000000
    40  H    4.290109   1.085994   2.490448   2.488753   0.000000
 Stoichiometry    C16H20N2O2
 Framework group  C1[X(C16H20N2O2)]
 Deg. of freedom   114
 Full point group                 C1      NOp   1
 Largest Abelian subgroup         C1      NOp   1
 Largest concise Abelian subgroup C1      NOp   1
                         Standard orientation:                         
 ---------------------------------------------------------------------
 Center     Atomic      Atomic             Coordinates (Angstroms)
 Number     Number       Type             X           Y           Z
 ---------------------------------------------------------------------
      1          6           0        0.040816   -0.778860    1.232213
      2          1           0       -3.565922   -1.894467   -1.880089
      3          6           0       -1.113422    0.265177   -0.246812
      4          8           0       -2.252548    0.234366    0.395707
      5          8           0       -0.879693   -1.781141    1.457223
      6          7           0       -4.163487   -1.354232   -0.200903
      7          1           0       -4.934704   -1.355113    0.464026
      8          7           0       -4.403411   -1.999988   -1.290296
      9          1           0       -1.750134   -1.326958    1.434747
     10          1           0       -3.314569   -0.694709   -0.015855
     11          6           0        0.089016    0.235655    2.350344
     12          1           0        0.731641    1.086234    2.125735
     13          1           0       -0.919604    0.614853    2.534882
     14          1           0        0.451688   -0.248863    3.265317
     15          6           0       -0.997745   -0.693196   -1.421704
     16          1           0       -1.668183   -0.348546   -2.218953
     17          1           0        0.007524   -0.772924   -1.833020
     18          1           0       -1.306637   -1.690509   -1.098273
     19          6           0        1.275972   -1.248483    0.605334
     20          6           0        1.333255   -2.524065   -0.001311
     21          6           0        2.431199   -0.437322    0.547379
     22          6           0        2.488171   -2.960841   -0.642126
     23          1           0        0.459466   -3.162755    0.044450
     24          6           0        3.583049   -0.878937   -0.098665
     25          1           0        2.425370    0.547119    0.998856
     26          6           0        3.620532   -2.140901   -0.698946
     27          1           0        2.508045   -3.946553   -1.098272
     28          1           0        4.456747   -0.234532   -0.132272
     29          1           0        4.520870   -2.482747   -1.200406
     30          6           0       -0.418318    1.581068   -0.338423
     31          6           0       -0.939739    2.682226    0.366285
     32          6           0        0.757198    1.767749   -1.089192
     33          6           0       -0.304384    3.920853    0.332278
     34          1           0       -1.852630    2.542707    0.933775
     35          6           0        1.393261    3.008707   -1.121485
     36          1           0        1.189447    0.941811   -1.640592
     37          6           0        0.868849    4.090561   -0.410030
     38          1           0       -0.725669    4.757932    0.881988
     39          1           0        2.301794    3.129429   -1.704491
     40          1           0        1.365416    5.055990   -0.437428
 ---------------------------------------------------------------------
 Rotational constants (GHZ):           0.3494550           0.3195684           0.2035747
 Leave Link  202 at Wed Jun 12 00:55:27 2019, MaxMem=   104857600 cpu:               3.7 elap:               0.1
 (Enter /project/6004141/group/g16/g16/l301.exe)
 Standard basis: 6-31G(d,p) (6D, 7F)
 Ernie: Thresh=  0.10000D-02 Tol=  0.10000D-05 Strict=F.
 There are   400 symmetry adapted cartesian basis functions of A   symmetry.
 There are   400 symmetry adapted basis functions of A   symmetry.
   400 basis functions,   700 primitive gaussians,   400 cartesian basis functions
    73 alpha electrons       73 beta electrons
       nuclear repulsion energy      1576.4296142000 Hartrees.
 IExCor=  402 DFT=T Ex+Corr=B3LYP ExCW=0 ScaHFX=  0.200000
 ScaDFX=  0.800000  0.720000  1.000000  0.810000 ScalE2=  1.000000  1.000000
 IRadAn=      5 IRanWt=     -1 IRanGd=            0 ICorTp=0 IEmpDi=131
 NAtoms=   40 NActive=   40 NUniq=   40 SFac= 1.00D+00 NAtFMM=   60 NAOKFM=F Big=F
 Integral buffers will be    131072 words long.
 Raffenetti 2 integral format.
 Two-electron integral symmetry is turned on.
 R6Disp:  Grimme-D3 Dispersion energy=       -0.0487435833 Hartrees.
 Nuclear repulsion after empirical dispersion term =     1576.3808706168 Hartrees.
 Force inversion solution in PCM.
 ------------------------------------------------------------------------------
 Polarizable Continuum Model (PCM)
 =================================
 Model                : PCM.
 Atomic radii         : UFF (Universal Force Field).
 Polarization charges : Total charges.
 Charge compensation  : None.
 Solution method      : Matrix inversion.
 Cavity type          : Scaled VdW (van der Waals Surface) (Alpha=1.100).
 Cavity algorithm     : GePol (No added spheres)
                        Default sphere list used, NSphG=   40.
                        Lebedev-Laikov grids with approx.  5.0 points / Ang**2.
                        Smoothing algorithm: York/Karplus (Gamma=1.0000).
                        Polarization charges: spherical gaussians, with
                                              point-specific exponents (IZeta= 3).
                        Self-potential: point-specific (ISelfS= 7).
                        Self-field    : sphere-specific E.n sum rule (ISelfD= 2).
 1st derivatives      : Analytical E(r).r(x)/FMM algorithm (CHGder, D1EAlg=3).
                        Cavity 1st derivative terms included.
 2nd derivatives      : Analytical E(r).r(xy)/FMM algorithm (CHGder, D2EAlg=3).
                        Cavity 2nd derivative terms included.
 Solvent              : Acetonitrile, Eps=  35.688000 Eps(inf)=   1.806874
 ------------------------------------------------------------------------------
 GePol: Number of generator spheres                  =      40
 GePol: Total number of spheres                      =      40
 GePol: Number of exposed spheres                    =      40 (100.00%)
 GePol: Number of points                             =    2728
 GePol: Average weight of points                     =       0.13
 GePol: Minimum weight of points                     =   0.12D-09
 GePol: Maximum weight of points                     =    0.20577
 GePol: Number of points with low weight             =     183
 GePol: Fraction of low-weight points (<1% of avg)   =       6.71%
 GePol: Cavity surface area                          =    352.669 Ang**2
 GePol: Cavity volume                                =    400.714 Ang**3
 Leave Link  301 at Wed Jun 12 00:55:28 2019, MaxMem=   104857600 cpu:              24.8 elap:               0.7
 (Enter /project/6004141/group/g16/g16/l302.exe)
 NPDir=0 NMtPBC=     1 NCelOv=     1 NCel=       1 NClECP=     1 NCelD=      1
         NCelK=      1 NCelE2=     1 NClLst=     1 CellRange=     0.0.
 One-electron integrals computed using PRISM.
 One-electron integral symmetry used in STVInt
 PrsmSu:  requested number of processors reduced to:  27 ShMem   1 Linda.
 NBasis=   400 RedAO= T EigKep=  4.45D-04  NBF=   400
 NBsUse=   400 1.00D-06 EigRej= -1.00D+00 NBFU=   400
 Precomputing XC quadrature grid using
 IXCGrd= 4 IRadAn=           5 IRanWt=          -1 IRanGd=           0 AccXCQ= 0.00D+00.
 Generated NRdTot=       0 NPtTot=           0 NUsed=           0 NTot=          32
 NSgBfM=   398   398   398   398   398 MxSgAt=    40 MxSgA2=    40.
 Leave Link  302 at Wed Jun 12 00:55:30 2019, MaxMem=   104857600 cpu:              30.2 elap:               0.8
 (Enter /project/6004141/group/g16/g16/l303.exe)
 DipDrv:  MaxL=1.
 Leave Link  303 at Wed Jun 12 00:55:30 2019, MaxMem=   104857600 cpu:               7.5 elap:               0.2
 (Enter /project/6004141/group/g16/g16/l401.exe)
 ExpMin= 1.61D-01 ExpMax= 5.48D+03 ExpMxC= 8.25D+02 IAcc=3 IRadAn=         5 AccDes= 0.00D+00
 Harris functional with IExCor=  402 and IRadAn=       5 diagonalized for initial guess.
 HarFok:  IExCor=  402 AccDes= 0.00D+00 IRadAn=         5 IDoV= 1 UseB2=F ITyADJ=14
 ICtDFT=  3500011 ScaDFX=  1.000000  1.000000  1.000000  1.000000
 FoFCou: FMM=F IPFlag=           0 FMFlag=      100000 FMFlg1=           0
         NFxFlg=           0 DoJE=T BraDBF=F KetDBF=T FulRan=T
         wScrn=  0.000000 ICntrl=       500 IOpCl=  0 I1Cent=   200000004 NGrid=           0
         NMat0=    1 NMatS0=      1 NMatT0=    0 NMatD0=    1 NMtDS0=    0 NMtDT0=    0
 Petite list used in FoFCou.
 Harris En= -881.732828847751    
 JPrj=0 DoOrth=F DoCkMO=T.
 Mixing orbitals, IMix= 1 IMixAn=  0 NRI=1 NE=   73 Coef=  7.07106781D-01  7.07106781D-01
 Mixing orbitals, IMix= 1 IMixAn=  0 NRI=1 NE=   73 Coef= -7.07106781D-01  7.07106781D-01
 Initial guess <Sx>= 0.0000 <Sy>= 0.0000 <Sz>= 0.0000 <S**2>= 1.0000 S= 0.6180
 Leave Link  401 at Wed Jun 12 00:55:32 2019, MaxMem=   104857600 cpu:              40.2 elap:               1.1
 (Enter /project/6004141/group/g16/g16/l502.exe)
 Integral symmetry usage will be decided dynamically.
 UHF open shell SCF:
 Using DIIS extrapolation, IDIIS=  1040.
 NGot=   104857600 LenX=   104517248 LenY=   104356807
 Requested convergence on RMS density matrix=1.00D-08 within 128 cycles.
 Requested convergence on MAX density matrix=1.00D-06.
 Requested convergence on             energy=1.00D-06.
 No special actions if energy rises.
 Fock matrices will be formed incrementally for  20 cycles.

 Cycle   1  Pass 1  IDiag  1:
 FoFJK:  IHMeth= 1 ICntrl=       0 DoSepK=F KAlg= 0 I1Cent=           0 FoldK=F
 IRaf= 790000000 NMat=       1 IRICut=       1 DoRegI=T DoRafI=F ISym2E= 0 IDoP0=0 IntGTp=1.
 FoFCou: FMM=F IPFlag=           0 FMFlag=      100000 FMFlg1=           0
         NFxFlg=           0 DoJE=F BraDBF=F KetDBF=F FulRan=T
         wScrn=  0.000000 ICntrl=         0 IOpCl=  1 I1Cent=           0 NGrid=           0
         NMat0=    1 NMatS0=      1 NMatT0=    0 NMatD0=    1 NMtDS0=    0 NMtDT0=    0
 Symmetry not used in FoFCou.
 CoulSu:  requested number of processors reduced to:  39 ShMem   1 Linda.
 Inv3:  Mode=1 IEnd=    22325952.
 Iteration    1 A*A^-1 deviation from unit magnitude is 3.66D-15 for   1655.
 Iteration    1 A*A^-1 deviation from orthogonality  is 2.43D-15 for   2387    488.
 Iteration    1 A^-1*A deviation from unit magnitude is 3.66D-15 for   1655.
 Iteration    1 A^-1*A deviation from orthogonality  is 1.96D-15 for   2476   2398.
 CoulSu:  requested number of processors reduced to:  39 ShMem   1 Linda.
 CoulSu:  requested number of processors reduced to:  39 ShMem   1 Linda.
 E= -881.120161425094    
 DIIS: error= 2.71D-02 at cycle   1 NSaved=   1.
 NSaved= 1 IEnMin= 1 EnMin= -881.120161425094     IErMin= 1 ErrMin= 2.71D-02
 ErrMax= 2.71D-02  0.00D+00 EMaxC= 1.00D-01 BMatC= 2.00D+00 BMatP= 2.00D+00
 IDIUse=3 WtCom= 7.29D-01 WtEn= 2.71D-01
 Coeff-Com:  0.100D+01
 Coeff-En:   0.100D+01
 Coeff:      0.100D+01
 Gap=     0.024 Goal=   None    Shift=    0.000
 Gap=     0.029 Goal=   None    Shift=    0.000
 GapD=    0.024 DampG=0.250 DampE=0.500 DampFc=0.2500 IDamp=-1.
 Damping current iteration by 2.50D-01
 RMSDP=4.16D-03 MaxDP=1.74D-01              OVMax= 6.06D-01

 Cycle   2  Pass 1  IDiag  1:
 RMSU=  1.02D-03    CP:  9.87D-01
 E= -881.311152552229     Delta-E=       -0.190991127135 Rises=F Damp=T
 DIIS: error= 1.57D-02 at cycle   2 NSaved=   2.
 NSaved= 2 IEnMin= 2 EnMin= -881.311152552229     IErMin= 2 ErrMin= 1.57D-02
 ErrMax= 1.57D-02  0.00D+00 EMaxC= 1.00D-01 BMatC= 5.25D-01 BMatP= 2.00D+00
 IDIUse=3 WtCom= 8.43D-01 WtEn= 1.57D-01
 Coeff-Com: -0.724D+00 0.172D+01
 Coeff-En:   0.000D+00 0.100D+01
 Coeff:     -0.610D+00 0.161D+01
 Gap=     0.119 Goal=   None    Shift=    0.000
 Gap=     0.154 Goal=   None    Shift=    0.000
 RMSDP=2.03D-03 MaxDP=7.48D-02 DE=-1.91D-01 OVMax= 8.37D-01

 Cycle   3  Pass 1  IDiag  1:
 RMSU=  1.99D-03    CP:  9.67D-01  1.24D+00
 E= -881.332728366866     Delta-E=       -0.021575814637 Rises=F Damp=F
 DIIS: error= 2.62D-02 at cycle   3 NSaved=   3.
 NSaved= 3 IEnMin= 3 EnMin= -881.332728366866     IErMin= 2 ErrMin= 1.57D-02
 ErrMax= 2.62D-02  0.00D+00 EMaxC= 1.00D-01 BMatC= 9.13D-01 BMatP= 5.25D-01
 IDIUse=2 WtCom= 0.00D+00 WtEn= 1.00D+00
 Coeff-En:   0.000D+00 0.466D+00 0.534D+00
 Coeff:      0.000D+00 0.466D+00 0.534D+00
 Gap=    -0.079 Goal=   None    Shift=    0.000
 Gap=    -0.101 Goal=   None    Shift=    0.000
 RMSDP=3.46D-03 MaxDP=1.98D-01 DE=-2.16D-02 OVMax= 7.79D-01

 Cycle   4  Pass 1  IDiag  1:
 RMSU=  1.09D-03    CP:  9.61D-01  2.95D+00 -3.93D-01
 E= -881.207502404930     Delta-E=        0.125225961935 Rises=F Damp=F
 DIIS: error= 4.31D-02 at cycle   4 NSaved=   4.
 NSaved= 4 IEnMin= 3 EnMin= -881.332728366866     IErMin= 2 ErrMin= 1.57D-02
 ErrMax= 4.31D-02  0.00D+00 EMaxC= 1.00D-01 BMatC= 1.70D+00 BMatP= 5.25D-01
 IDIUse=2 WtCom= 0.00D+00 WtEn= 1.00D+00
 Coeff-En:   0.000D+00 0.000D+00 0.556D+00 0.444D+00
 Coeff:      0.000D+00 0.000D+00 0.556D+00 0.444D+00
 Gap=     0.250 Goal=   None    Shift=    0.000
 Gap=     0.250 Goal=   None    Shift=    0.000
 RMSDP=1.74D-03 MaxDP=1.09D-01 DE= 1.25D-01 OVMax= 2.11D-01

 Cycle   5  Pass 1  IDiag  1:
 RMSU=  1.25D-03    CP:  9.65D-01  2.15D+00 -5.94D-02  4.55D-01
 E= -881.604171334947     Delta-E=       -0.396668930016 Rises=F Damp=F
 DIIS: error= 1.28D-02 at cycle   5 NSaved=   5.
 NSaved= 5 IEnMin= 5 EnMin= -881.604171334947     IErMin= 5 ErrMin= 1.28D-02
 ErrMax= 1.28D-02  0.00D+00 EMaxC= 1.00D-01 BMatC= 1.62D-01 BMatP= 5.25D-01
 IDIUse=3 WtCom= 8.72D-01 WtEn= 1.28D-01
 Coeff-Com: -0.455D+00 0.780D+00 0.238D+00-0.600D-01 0.497D+00
 Coeff-En:   0.000D+00 0.000D+00 0.204D+00 0.000D+00 0.796D+00
 Coeff:     -0.397D+00 0.680D+00 0.233D+00-0.523D-01 0.535D+00
 Gap=     0.039 Goal=   None    Shift=    0.000
 Gap=     0.041 Goal=   None    Shift=    0.000
 RMSDP=6.02D-04 MaxDP=2.08D-02 DE=-3.97D-01 OVMax= 1.45D-01

 Cycle   6  Pass 1  IDiag  1:
 RMSU=  4.68D-04    CP:  9.64D-01  2.36D+00  1.75D-02  2.62D-01  8.64D-01
 E= -881.633399337968     Delta-E=       -0.029228003021 Rises=F Damp=F
 DIIS: error= 4.96D-03 at cycle   6 NSaved=   6.
 NSaved= 6 IEnMin= 6 EnMin= -881.633399337968     IErMin= 6 ErrMin= 4.96D-03
 ErrMax= 4.96D-03  0.00D+00 EMaxC= 1.00D-01 BMatC= 6.40D-02 BMatP= 1.62D-01
 IDIUse=3 WtCom= 9.50D-01 WtEn= 4.96D-02
 Coeff-Com: -0.230D+00 0.345D+00 0.115D+00-0.152D+00 0.305D+00 0.617D+00
 Coeff-En:   0.000D+00 0.000D+00 0.129D+00 0.000D+00 0.000D+00 0.871D+00
 Coeff:     -0.218D+00 0.328D+00 0.116D+00-0.144D+00 0.289D+00 0.629D+00
 Gap=     0.024 Goal=   None    Shift=    0.000
 Gap=     0.028 Goal=   None    Shift=    0.000
 RMSDP=7.12D-04 MaxDP=4.38D-02 DE=-2.92D-02 OVMax= 2.52D-01

 Cycle   7  Pass 1  IDiag  1:
 RMSU=  4.94D-04    CP:  9.65D-01  2.13D+00  1.93D-01  9.01D-02  9.34D-01
                    CP:  1.45D+00
 E= -881.656309195213     Delta-E=       -0.022909857246 Rises=F Damp=F
 DIIS: error= 2.44D-03 at cycle   7 NSaved=   7.
 NSaved= 7 IEnMin= 7 EnMin= -881.656309195213     IErMin= 7 ErrMin= 2.44D-03
 ErrMax= 2.44D-03  0.00D+00 EMaxC= 1.00D-01 BMatC= 3.00D-03 BMatP= 6.40D-02
 IDIUse=3 WtCom= 9.76D-01 WtEn= 2.44D-02
 Coeff-Com: -0.576D-01 0.791D-01 0.432D-01-0.463D-01 0.120D+00 0.287D+00
 Coeff-Com:  0.574D+00
 Coeff-En:   0.000D+00 0.000D+00 0.000D+00 0.000D+00 0.000D+00 0.000D+00
 Coeff-En:   0.100D+01
 Coeff:     -0.562D-01 0.772D-01 0.422D-01-0.452D-01 0.117D+00 0.280D+00
 Coeff:      0.584D+00
 Gap=     0.028 Goal=   None    Shift=    0.000
 Gap=     0.047 Goal=   None    Shift=    0.000
 RMSDP=3.31D-04 MaxDP=2.29D-02 DE=-2.29D-02 OVMax= 1.42D-01

 Cycle   8  Pass 1  IDiag  1:
 RMSU=  1.62D-04    CP:  9.65D-01  2.03D+00  2.59D-01  1.00D-01  8.31D-01
                    CP:  1.70D+00  1.32D+00
 E= -881.655969987390     Delta-E=        0.000339207824 Rises=F Damp=F
 DIIS: error= 4.90D-03 at cycle   8 NSaved=   8.
 NSaved= 8 IEnMin= 7 EnMin= -881.656309195213     IErMin= 7 ErrMin= 2.44D-03
 ErrMax= 4.90D-03  0.00D+00 EMaxC= 1.00D-01 BMatC= 9.34D-03 BMatP= 3.00D-03
 IDIUse=3 WtCom= 9.76D-01 WtEn= 2.44D-02
 Coeff-Com: -0.553D-01 0.753D-01 0.252D-01-0.140D-01 0.132D+00 0.149D+00
 Coeff-Com:  0.260D+00 0.429D+00
 Coeff-En:   0.000D+00 0.000D+00 0.000D+00 0.000D+00 0.000D+00 0.000D+00
 Coeff-En:   0.616D+00 0.384D+00
 Coeff:     -0.539D-01 0.735D-01 0.246D-01-0.137D-01 0.129D+00 0.145D+00
 Coeff:      0.268D+00 0.428D+00
 Gap=     0.030 Goal=   None    Shift=    0.000
 Gap=     0.062 Goal=   None    Shift=    0.000
 RMSDP=9.99D-05 MaxDP=4.69D-03 DE= 3.39D-04 OVMax= 2.55D-02

 Cycle   9  Pass 1  IDiag  1:
 RMSU=  6.24D-05    CP:  9.65D-01  2.01D+00  2.55D-01  1.19D-01  7.83D-01
                    CP:  1.66D+00  1.34D+00  1.22D+00
 E= -881.657380811016     Delta-E=       -0.001410823626 Rises=F Damp=F
 DIIS: error= 3.88D-03 at cycle   9 NSaved=   9.
 NSaved= 9 IEnMin= 9 EnMin= -881.657380811016     IErMin= 7 ErrMin= 2.44D-03
 ErrMax= 3.88D-03  0.00D+00 EMaxC= 1.00D-01 BMatC= 5.19D-03 BMatP= 3.00D-03
 IDIUse=3 WtCom= 9.76D-01 WtEn= 2.44D-02
 Coeff-Com: -0.655D-01 0.904D-01 0.242D-01-0.172D-01 0.141D+00 0.134D+00
 Coeff-Com: -0.191D-01-0.507D-01 0.763D+00
 Coeff-En:   0.000D+00 0.000D+00 0.000D+00 0.000D+00 0.000D+00 0.000D+00
 Coeff-En:   0.000D+00 0.000D+00 0.100D+01
 Coeff:     -0.639D-01 0.882D-01 0.236D-01-0.167D-01 0.137D+00 0.131D+00
 Coeff:     -0.186D-01-0.495D-01 0.769D+00
 Gap=     0.031 Goal=   None    Shift=    0.000
 Gap=     0.074 Goal=   None    Shift=    0.000
 RMSDP=8.20D-05 MaxDP=4.61D-03 DE=-1.41D-03 OVMax= 2.53D-02

 Cycle  10  Pass 1  IDiag  1:
 RMSU=  2.58D-05    CP:  9.65D-01  2.00D+00  2.51D-01  1.33D-01  7.46D-01
                    CP:  1.61D+00  1.33D+00  1.42D+00  1.68D+00
 E= -881.658397060764     Delta-E=       -0.001016249748 Rises=F Damp=F
 DIIS: error= 2.56D-03 at cycle  10 NSaved=  10.
 NSaved=10 IEnMin=10 EnMin= -881.658397060764     IErMin= 7 ErrMin= 2.44D-03
 ErrMax= 2.56D-03  0.00D+00 EMaxC= 1.00D-01 BMatC= 2.13D-03 BMatP= 3.00D-03
 IDIUse=3 WtCom= 9.76D-01 WtEn= 2.44D-02
 Coeff-Com: -0.329D-01 0.442D-01 0.781D-02-0.108D-01 0.643D-01 0.321D-01
 Coeff-Com: -0.514D+00-0.103D+01 0.797D+00 0.164D+01
 Coeff-En:   0.000D+00 0.000D+00 0.000D+00 0.000D+00 0.000D+00 0.000D+00
 Coeff-En:   0.000D+00 0.000D+00 0.000D+00 0.100D+01
 Coeff:     -0.320D-01 0.431D-01 0.762D-02-0.106D-01 0.628D-01 0.313D-01
 Coeff:     -0.501D+00-0.100D+01 0.777D+00 0.163D+01
 Gap=     0.034 Goal=   None    Shift=    0.000
 Gap=     0.114 Goal=   None    Shift=    0.000
 RMSDP=2.56D-04 MaxDP=1.42D-02 DE=-1.02D-03 OVMax= 7.39D-02

 Cycle  11  Pass 1  IDiag  1:
 RMSU=  4.10D-05    CP:  9.66D-01  1.95D+00  2.59D-01  1.94D-01  6.17D-01
                    CP:  1.54D+00  1.46D+00  2.20D+00  3.00D+00  1.71D+00
 E= -881.659337264931     Delta-E=       -0.000940204167 Rises=F Damp=F
 DIIS: error= 3.19D-04 at cycle  11 NSaved=  11.
 NSaved=11 IEnMin=11 EnMin= -881.659337264931     IErMin=11 ErrMin= 3.19D-04
 ErrMax= 3.19D-04  0.00D+00 EMaxC= 1.00D-01 BMatC= 6.08D-05 BMatP= 2.13D-03
 IDIUse=3 WtCom= 9.97D-01 WtEn= 3.19D-03
 Coeff-Com: -0.382D-02 0.447D-02-0.116D-03-0.204D-02 0.947D-02-0.164D-02
 Coeff-Com: -0.206D+00-0.432D+00 0.142D+00 0.826D+00 0.663D+00
 Coeff-En:   0.000D+00 0.000D+00 0.000D+00 0.000D+00 0.000D+00 0.000D+00
 Coeff-En:   0.000D+00 0.000D+00 0.000D+00 0.000D+00 0.100D+01
 Coeff:     -0.381D-02 0.446D-02-0.115D-03-0.204D-02 0.944D-02-0.163D-02
 Coeff:     -0.205D+00-0.430D+00 0.142D+00 0.823D+00 0.664D+00
 Gap=     0.035 Goal=   None    Shift=    0.000
 Gap=     0.119 Goal=   None    Shift=    0.000
 RMSDP=4.22D-05 MaxDP=2.45D-03 DE=-9.40D-04 OVMax= 1.40D-02

 Cycle  12  Pass 1  IDiag  1:
 RMSU=  1.66D-05    CP:  9.66D-01  1.94D+00  2.61D-01  2.04D-01  5.99D-01
                    CP:  1.54D+00  1.49D+00  2.31D+00  3.00D+00  1.67D+00
                    CP:  1.30D+00
 E= -881.659362241473     Delta-E=       -0.000024976542 Rises=F Damp=F
 DIIS: error= 1.15D-04 at cycle  12 NSaved=  12.
 NSaved=12 IEnMin=12 EnMin= -881.659362241473     IErMin=12 ErrMin= 1.15D-04
 ErrMax= 1.15D-04  0.00D+00 EMaxC= 1.00D-01 BMatC= 1.71D-05 BMatP= 6.08D-05
 IDIUse=3 WtCom= 9.99D-01 WtEn= 1.15D-03
 Coeff-Com:  0.224D-02-0.311D-02-0.692D-03 0.326D-03-0.276D-02 0.650D-02
 Coeff-Com:  0.122D+00 0.233D+00-0.177D+00-0.309D+00 0.286D+00 0.842D+00
 Coeff-En:   0.000D+00 0.000D+00 0.000D+00 0.000D+00 0.000D+00 0.000D+00
 Coeff-En:   0.000D+00 0.000D+00 0.000D+00 0.000D+00 0.000D+00 0.100D+01
 Coeff:      0.223D-02-0.311D-02-0.691D-03 0.326D-03-0.276D-02 0.650D-02
 Coeff:      0.122D+00 0.233D+00-0.177D+00-0.309D+00 0.286D+00 0.842D+00
 Gap=     0.034 Goal=   None    Shift=    0.000
 Gap=     0.114 Goal=   None    Shift=    0.000
 RMSDP=3.57D-05 MaxDP=2.02D-03 DE=-2.50D-05 OVMax= 1.17D-02

 Cycle  13  Pass 1  IDiag  1:
 RMSU=  1.29D-05    CP:  9.66D-01  1.95D+00  2.58D-01  1.96D-01  6.15D-01
                    CP:  1.55D+00  1.48D+00  2.19D+00  3.00D+00  1.75D+00
                    CP:  1.32D+00  6.42D-01
 E= -881.659367725828     Delta-E=       -0.000005484354 Rises=F Damp=F
 DIIS: error= 2.11D-04 at cycle  13 NSaved=  13.
 NSaved=13 IEnMin=13 EnMin= -881.659367725828     IErMin=12 ErrMin= 1.15D-04
 ErrMax= 2.11D-04  0.00D+00 EMaxC= 1.00D-01 BMatC= 1.95D-05 BMatP= 1.71D-05
 IDIUse=3 WtCom= 9.99D-01 WtEn= 1.15D-03
 Coeff-Com:  0.585D-03-0.735D-03 0.366D-05 0.343D-03-0.848D-03 0.303D-02
 Coeff-Com:  0.929D-01 0.201D+00-0.119D+00-0.357D+00-0.176D-02 0.438D+00
 Coeff-Com:  0.744D+00
 Coeff-En:   0.000D+00 0.000D+00 0.000D+00 0.000D+00 0.000D+00 0.000D+00
 Coeff-En:   0.000D+00 0.000D+00 0.000D+00 0.000D+00 0.000D+00 0.000D+00
 Coeff-En:   0.100D+01
 Coeff:      0.584D-03-0.735D-03 0.366D-05 0.342D-03-0.847D-03 0.303D-02
 Coeff:      0.928D-01 0.201D+00-0.119D+00-0.357D+00-0.176D-02 0.437D+00
 Coeff:      0.745D+00
 Gap=     0.035 Goal=   None    Shift=    0.000
 Gap=     0.116 Goal=   None    Shift=    0.000
 RMSDP=1.01D-05 MaxDP=6.37D-04 DE=-5.48D-06 OVMax= 1.45D-03

 Cycle  14  Pass 1  IDiag  1:
 RMSU=  4.79D-06    CP:  9.66D-01  1.95D+00  2.57D-01  1.98D-01  6.12D-01
                    CP:  1.54D+00  1.48D+00  2.20D+00  3.00D+00  1.85D+00
                    CP:  1.45D+00  8.00D-01  1.08D+00
 E= -881.659375678611     Delta-E=       -0.000007952784 Rises=F Damp=F
 DIIS: error= 2.85D-05 at cycle  14 NSaved=  14.
 NSaved=14 IEnMin=14 EnMin= -881.659375678611     IErMin=14 ErrMin= 2.85D-05
 ErrMax= 2.85D-05  0.00D+00 EMaxC= 1.00D-01 BMatC= 1.07D-06 BMatP= 1.71D-05
 IDIUse=1 WtCom= 1.00D+00 WtEn= 0.00D+00
 Coeff-Com:  0.524D-03-0.616D-03 0.241D-03 0.497D-03-0.113D-02-0.125D-02
 Coeff-Com:  0.218D-01 0.508D-01-0.368D-01-0.104D+00-0.710D-01-0.856D-02
 Coeff-Com:  0.357D+00 0.792D+00
 Coeff:      0.524D-03-0.616D-03 0.241D-03 0.497D-03-0.113D-02-0.125D-02
 Coeff:      0.218D-01 0.508D-01-0.368D-01-0.104D+00-0.710D-01-0.856D-02
 Coeff:      0.357D+00 0.792D+00
 Gap=     0.035 Goal=   None    Shift=    0.000
 Gap=     0.116 Goal=   None    Shift=    0.000
 RMSDP=8.65D-06 MaxDP=6.86D-04 DE=-7.95D-06 OVMax= 2.95D-03

 Cycle  15  Pass 1  IDiag  1:
 RMSU=  2.99D-06    CP:  9.66D-01  1.95D+00  2.58D-01  1.99D-01  6.09D-01
                    CP:  1.54D+00  1.48D+00  2.23D+00  3.00D+00  1.87D+00
                    CP:  1.52D+00  9.16D-01  1.16D+00  1.07D+00
 E= -881.659377416968     Delta-E=       -0.000001738357 Rises=F Damp=F
 DIIS: error= 2.39D-05 at cycle  15 NSaved=  15.
 NSaved=15 IEnMin=15 EnMin= -881.659377416968     IErMin=15 ErrMin= 2.39D-05
 ErrMax= 2.39D-05  0.00D+00 EMaxC= 1.00D-01 BMatC= 5.30D-07 BMatP= 1.07D-06
 IDIUse=1 WtCom= 1.00D+00 WtEn= 0.00D+00
 Coeff-Com:  0.231D-03-0.258D-03 0.228D-03 0.274D-03-0.539D-03-0.143D-02
 Coeff-Com: -0.365D-02-0.721D-02-0.104D-02 0.202D-02-0.432D-01-0.102D+00
 Coeff-Com:  0.440D-01 0.484D+00 0.629D+00
 Coeff:      0.231D-03-0.258D-03 0.228D-03 0.274D-03-0.539D-03-0.143D-02
 Coeff:     -0.365D-02-0.721D-02-0.104D-02 0.202D-02-0.432D-01-0.102D+00
 Coeff:      0.440D-01 0.484D+00 0.629D+00
 Gap=     0.035 Goal=   None    Shift=    0.000
 Gap=     0.117 Goal=   None    Shift=    0.000
 RMSDP=4.18D-06 MaxDP=3.15D-04 DE=-1.74D-06 OVMax= 1.47D-03

 Cycle  16  Pass 1  IDiag  1:
 RMSU=  1.19D-06    CP:  9.66D-01  1.94D+00  2.58D-01  2.00D-01  6.07D-01
                    CP:  1.54D+00  1.48D+00  2.24D+00  3.00D+00  1.86D+00
                    CP:  1.55D+00  9.73D-01  1.18D+00  1.26D+00  1.26D+00
 E= -881.659377791592     Delta-E=       -0.000000374624 Rises=F Damp=F
 DIIS: error= 2.89D-05 at cycle  16 NSaved=  16.
 NSaved=16 IEnMin=16 EnMin= -881.659377791592     IErMin=15 ErrMin= 2.39D-05
 ErrMax= 2.89D-05  0.00D+00 EMaxC= 1.00D-01 BMatC= 3.34D-07 BMatP= 5.30D-07
 IDIUse=1 WtCom= 1.00D+00 WtEn= 0.00D+00
 Coeff-Com: -0.218D-03 0.276D-03 0.743D-04-0.797D-04 0.493D-03 0.119D-04
 Coeff-Com: -0.501D-02-0.124D-01 0.717D-02 0.140D-01 0.740D-02-0.230D-01
 Coeff-Com: -0.809D-01-0.343D-01 0.230D+00 0.896D+00
 Coeff:     -0.218D-03 0.276D-03 0.743D-04-0.797D-04 0.493D-03 0.119D-04
 Coeff:     -0.501D-02-0.124D-01 0.717D-02 0.140D-01 0.740D-02-0.230D-01
 Coeff:     -0.809D-01-0.343D-01 0.230D+00 0.896D+00
 Gap=     0.035 Goal=   None    Shift=    0.000
 Gap=     0.117 Goal=   None    Shift=    0.000
 RMSDP=2.71D-06 MaxDP=1.46D-04 DE=-3.75D-07 OVMax= 7.41D-04

 Cycle  17  Pass 1  IDiag  1:
 RMSU=  5.24D-07    CP:  9.66D-01  1.94D+00  2.58D-01  2.00D-01  6.06D-01
                    CP:  1.54D+00  1.49D+00  2.25D+00  3.00D+00  1.87D+00
                    CP:  1.57D+00  1.00D+00  1.17D+00  1.36D+00  1.51D+00
                    CP:  1.03D+00
 E= -881.659377940491     Delta-E=       -0.000000148899 Rises=F Damp=F
 DIIS: error= 6.20D-06 at cycle  17 NSaved=  17.
 NSaved=17 IEnMin=17 EnMin= -881.659377940491     IErMin=17 ErrMin= 6.20D-06
 ErrMax= 6.20D-06  0.00D+00 EMaxC= 1.00D-01 BMatC= 3.60D-08 BMatP= 3.34D-07
 IDIUse=1 WtCom= 1.00D+00 WtEn= 0.00D+00
 Coeff-Com: -0.196D-03 0.242D-03-0.128D-04-0.102D-03 0.431D-03 0.353D-03
 Coeff-Com: -0.132D-02-0.420D-02 0.296D-02 0.526D-02 0.119D-01 0.791D-02
 Coeff-Com: -0.489D-01-0.961D-01-0.770D-03 0.449D+00 0.673D+00
 Coeff:     -0.196D-03 0.242D-03-0.128D-04-0.102D-03 0.431D-03 0.353D-03
 Coeff:     -0.132D-02-0.420D-02 0.296D-02 0.526D-02 0.119D-01 0.791D-02
 Coeff:     -0.489D-01-0.961D-01-0.770D-03 0.449D+00 0.673D+00
 Gap=     0.035 Goal=   None    Shift=    0.000
 Gap=     0.117 Goal=   None    Shift=    0.000
 RMSDP=5.38D-07 MaxDP=2.84D-05 DE=-1.49D-07 OVMax= 9.16D-05

 Cycle  18  Pass 1  IDiag  1:
 RMSU=  2.96D-07    CP:  9.66D-01  1.94D+00  2.58D-01  2.00D-01  6.05D-01
                    CP:  1.54D+00  1.49D+00  2.25D+00  3.00D+00  1.87D+00
                    CP:  1.57D+00  1.01D+00  1.17D+00  1.40D+00  1.56D+00
                    CP:  1.14D+00  1.22D+00
 E= -881.659377957940     Delta-E=       -0.000000017448 Rises=F Damp=F
 DIIS: error= 2.31D-06 at cycle  18 NSaved=  18.
 NSaved=18 IEnMin=18 EnMin= -881.659377957940     IErMin=18 ErrMin= 2.31D-06
 ErrMax= 2.31D-06  0.00D+00 EMaxC= 1.00D-01 BMatC= 6.59D-09 BMatP= 3.60D-08
 IDIUse=1 WtCom= 1.00D+00 WtEn= 0.00D+00
 Coeff-Com:  0.520D-05-0.290D-05-0.486D-04-0.684D-05-0.549D-04 0.106D-03
 Coeff-Com:  0.351D-03 0.295D-03-0.154D-02 0.370D-02 0.830D-03 0.300D-02
 Coeff-Com:  0.665D-02-0.163D-02-0.721D-01-0.201D+00 0.272D+00 0.989D+00
 Coeff:      0.520D-05-0.290D-05-0.486D-04-0.684D-05-0.549D-04 0.106D-03
 Coeff:      0.351D-03 0.295D-03-0.154D-02 0.370D-02 0.830D-03 0.300D-02
 Coeff:      0.665D-02-0.163D-02-0.721D-01-0.201D+00 0.272D+00 0.989D+00
 Gap=     0.035 Goal=   None    Shift=    0.000
 Gap=     0.117 Goal=   None    Shift=    0.000
 RMSDP=4.05D-07 MaxDP=2.30D-05 DE=-1.74D-08 OVMax= 8.04D-05

 Cycle  19  Pass 1  IDiag  1:
 RMSU=  1.62D-07    CP:  9.66D-01  1.94D+00  2.58D-01  2.00D-01  6.05D-01
                    CP:  1.54D+00  1.49D+00  2.25D+00  3.00D+00  1.87D+00
                    CP:  1.57D+00  1.00D+00  1.18D+00  1.42D+00  1.58D+00
                    CP:  1.18D+00  1.68D+00  1.28D+00
 E= -881.659377966713     Delta-E=       -0.000000008774 Rises=F Damp=F
 DIIS: error= 1.28D-06 at cycle  19 NSaved=  19.
 NSaved=19 IEnMin=19 EnMin= -881.659377966713     IErMin=19 ErrMin= 1.28D-06
 ErrMax= 1.28D-06  0.00D+00 EMaxC= 1.00D-01 BMatC= 1.88D-09 BMatP= 6.59D-09
 IDIUse=1 WtCom= 1.00D+00 WtEn= 0.00D+00
 Coeff-Com:  0.397D-04-0.483D-04-0.213D-04 0.137D-04-0.113D-03-0.122D-04
 Coeff-Com:  0.170D-03 0.719D-03-0.136D-02 0.185D-02-0.325D-02-0.165D-02
 Coeff-Com:  0.139D-01 0.253D-01-0.312D-01-0.213D+00-0.489D-01 0.463D+00
 Coeff-Com:  0.795D+00
 Coeff:      0.397D-04-0.483D-04-0.213D-04 0.137D-04-0.113D-03-0.122D-04
 Coeff:      0.170D-03 0.719D-03-0.136D-02 0.185D-02-0.325D-02-0.165D-02
 Coeff:      0.139D-01 0.253D-01-0.312D-01-0.213D+00-0.489D-01 0.463D+00
 Coeff:      0.795D+00
 Gap=     0.035 Goal=   None    Shift=    0.000
 Gap=     0.117 Goal=   None    Shift=    0.000
 RMSDP=2.77D-07 MaxDP=1.96D-05 DE=-8.77D-09 OVMax= 8.88D-05

 Cycle  20  Pass 1  IDiag  1:
 RMSU=  7.82D-08    CP:  9.66D-01  1.94D+00  2.58D-01  2.00D-01  6.05D-01
                    CP:  1.54D+00  1.49D+00  2.24D+00  3.00D+00  1.87D+00
                    CP:  1.57D+00  1.00D+00  1.19D+00  1.43D+00  1.59D+00
                    CP:  1.20D+00  1.88D+00  1.60D+00  1.13D+00
 E= -881.659377968816     Delta-E=       -0.000000002103 Rises=F Damp=F
 DIIS: error= 1.40D-06 at cycle  20 NSaved=  20.
 NSaved=20 IEnMin=20 EnMin= -881.659377968816     IErMin=19 ErrMin= 1.28D-06
 ErrMax= 1.40D-06  0.00D+00 EMaxC= 1.00D-01 BMatC= 1.37D-09 BMatP= 1.88D-09
 IDIUse=1 WtCom= 1.00D+00 WtEn= 0.00D+00
 Coeff-Com:  0.169D-04-0.230D-04 0.576D-05 0.347D-05-0.340D-04-0.253D-04
 Coeff-Com: -0.309D-03-0.300D-03 0.127D-03 0.115D-02-0.197D-02-0.282D-02
 Coeff-Com:  0.263D-02 0.127D-01 0.947D-02-0.350D-01-0.103D+00-0.835D-01
 Coeff-Com:  0.408D+00 0.792D+00
 Coeff:      0.169D-04-0.230D-04 0.576D-05 0.347D-05-0.340D-04-0.253D-04
 Coeff:     -0.309D-03-0.300D-03 0.127D-03 0.115D-02-0.197D-02-0.282D-02
 Coeff:      0.263D-02 0.127D-01 0.947D-02-0.350D-01-0.103D+00-0.835D-01
 Coeff:      0.408D+00 0.792D+00
 Gap=     0.035 Goal=   None    Shift=    0.000
 Gap=     0.117 Goal=   None    Shift=    0.000
 RMSDP=1.52D-07 MaxDP=9.23D-06 DE=-2.10D-09 OVMax= 3.78D-05

 Cycle  21  Pass 1  IDiag  1:
 Restarting incremental Fock formation.
 E= -881.659377969413     Delta-E=       -0.000000000596 Rises=F Damp=F
 DIIS: error= 3.27D-07 at cycle  21 NSaved=  20.
 NSaved=20 IEnMin=20 EnMin= -881.659377969413     IErMin=20 ErrMin= 3.27D-07
 ErrMax= 3.27D-07  0.00D+00 EMaxC= 1.00D-01 BMatC= 1.44D-10 BMatP= 1.37D-09
 IDIUse=1 WtCom= 1.00D+00 WtEn= 0.00D+00
 Coeff-Com: -0.597D-06 0.770D-05-0.935D-06 0.572D-05-0.113D-04-0.963D-04
 Coeff-Com: -0.195D-04 0.301D-03-0.365D-03-0.354D-03-0.274D-03-0.507D-03
 Coeff-Com: -0.260D-03 0.744D-02 0.239D-01-0.345D-01-0.118D+00 0.374D-01
 Coeff-Com:  0.339D+00 0.746D+00
 Coeff:     -0.597D-06 0.770D-05-0.935D-06 0.572D-05-0.113D-04-0.963D-04
 Coeff:     -0.195D-04 0.301D-03-0.365D-03-0.354D-03-0.274D-03-0.507D-03
 Coeff:     -0.260D-03 0.744D-02 0.239D-01-0.345D-01-0.118D+00 0.374D-01
 Coeff:      0.339D+00 0.746D+00
 Gap=     0.035 Goal=   None    Shift=    0.000
 Gap=     0.117 Goal=   None    Shift=    0.000
 RMSDP=3.03D-08 MaxDP=1.72D-06 DE=-5.96D-10 OVMax= 5.24D-06

 Cycle  22  Pass 1  IDiag  1:
 RMSU=  3.03D-08    CP:  1.00D+00
 E= -881.659377969446     Delta-E=       -0.000000000033 Rises=F Damp=F
 DIIS: error= 2.44D-07 at cycle  22 NSaved=  20.
 NSaved=20 IEnMin=20 EnMin= -881.659377969446     IErMin=20 ErrMin= 2.44D-07
 ErrMax= 2.44D-07  0.00D+00 EMaxC= 1.00D-01 BMatC= 6.41D-11 BMatP= 1.44D-10
 IDIUse=1 WtCom= 1.00D+00 WtEn= 0.00D+00
 Coeff-Com:  0.405D-07 0.272D-05 0.287D-05-0.719D-05 0.327D-04 0.907D-04
 Coeff-Com:  0.119D-03-0.492D-03 0.250D-03 0.546D-03-0.458D-03-0.312D-02
 Coeff-Com:  0.776D-03 0.184D-01 0.375D-02-0.392D-01-0.658D-01-0.303D-02
 Coeff-Com:  0.403D+00 0.685D+00
 Coeff:      0.405D-07 0.272D-05 0.287D-05-0.719D-05 0.327D-04 0.907D-04
 Coeff:      0.119D-03-0.492D-03 0.250D-03 0.546D-03-0.458D-03-0.312D-02
 Coeff:      0.776D-03 0.184D-01 0.375D-02-0.392D-01-0.658D-01-0.303D-02
 Coeff:      0.403D+00 0.685D+00
 Gap=     0.035 Goal=   None    Shift=    0.000
 Gap=     0.117 Goal=   None    Shift=    0.000
 RMSDP=3.02D-08 MaxDP=2.04D-06 DE=-3.27D-11 OVMax= 1.21D-05

 Cycle  23  Pass 1  IDiag  1:
 RMSU=  2.99D-08    CP:  1.00D+00  8.47D-01
 E= -881.659377969494     Delta-E=       -0.000000000048 Rises=F Damp=F
 DIIS: error= 1.01D-07 at cycle  23 NSaved=  20.
 NSaved=20 IEnMin=20 EnMin= -881.659377969494     IErMin=20 ErrMin= 1.01D-07
 ErrMax= 1.01D-07  0.00D+00 EMaxC= 1.00D-01 BMatC= 5.19D-12 BMatP= 6.41D-11
 IDIUse=1 WtCom= 1.00D+00 WtEn= 0.00D+00
 Coeff-Com: -0.231D-06 0.621D-06-0.824D-06 0.421D-04 0.666D-04-0.184D-04
 Coeff-Com: -0.220D-03 0.192D-03 0.386D-03 0.301D-04-0.150D-02-0.154D-02
 Coeff-Com:  0.276D-02 0.831D-02 0.812D-02-0.316D-01-0.675D-01 0.373D-02
 Coeff-Com:  0.229D+00 0.850D+00
 Coeff:     -0.231D-06 0.621D-06-0.824D-06 0.421D-04 0.666D-04-0.184D-04
 Coeff:     -0.220D-03 0.192D-03 0.386D-03 0.301D-04-0.150D-02-0.154D-02
 Coeff:      0.276D-02 0.831D-02 0.812D-02-0.316D-01-0.675D-01 0.373D-02
 Coeff:      0.229D+00 0.850D+00
 Gap=     0.035 Goal=   None    Shift=    0.000
 Gap=     0.117 Goal=   None    Shift=    0.000
 RMSDP=2.63D-08 MaxDP=1.73D-06 DE=-4.82D-11 OVMax= 1.01D-05

 Cycle  24  Pass 1  IDiag  1:
 RMSU=  1.17D-08    CP:  1.00D+00  6.30D-01  1.76D+00
 E= -881.659377969493     Delta-E=        0.000000000001 Rises=F Damp=F
 DIIS: error= 1.21D-07 at cycle  24 NSaved=  20.
 NSaved=20 IEnMin=19 EnMin= -881.659377969494     IErMin=19 ErrMin= 1.01D-07
 ErrMax= 1.21D-07  0.00D+00 EMaxC= 1.00D-01 BMatC= 6.66D-12 BMatP= 5.19D-12
 IDIUse=1 WtCom= 1.00D+00 WtEn= 0.00D+00
 Coeff-Com:  0.309D-06 0.114D-05 0.191D-04 0.284D-04-0.364D-04-0.699D-04
 Coeff-Com:  0.288D-04 0.659D-04 0.111D-03 0.801D-04-0.407D-03-0.119D-02
 Coeff-Com:  0.123D-02 0.629D-02-0.502D-02-0.209D-01-0.451D-01 0.248D-01
 Coeff-Com:  0.391D+00 0.649D+00
 Coeff:      0.309D-06 0.114D-05 0.191D-04 0.284D-04-0.364D-04-0.699D-04
 Coeff:      0.288D-04 0.659D-04 0.111D-03 0.801D-04-0.407D-03-0.119D-02
 Coeff:      0.123D-02 0.629D-02-0.502D-02-0.209D-01-0.451D-01 0.248D-01
 Coeff:      0.391D+00 0.649D+00
 Gap=     0.035 Goal=   None    Shift=    0.000
 Gap=     0.117 Goal=   None    Shift=    0.000
 RMSDP=3.59D-09 MaxDP=1.46D-07 DE= 1.14D-12 OVMax= 5.30D-07

 Error on total polarization charges =  0.01022
 SCF Done:  E(UB3LYP) =  -881.659377969     A.U. after   24 cycles
            NFock= 24  Conv=0.36D-08     -V/T= 2.0096
 <Sx>= 0.0000 <Sy>= 0.0000 <Sz>= 0.0000 <S**2>= 0.4873 S= 0.3586
 <L.S>=  0.00000000000    
 KE= 8.733182679169D+02 PE=-5.202951163066D+03 EE= 1.871592646563D+03
 Annihilation of the first spin contaminant:
 S**2 before annihilation     0.4873,   after     0.0122
 Leave Link  502 at Wed Jun 12 00:56:31 2019, MaxMem=   104857600 cpu:            2307.5 elap:              59.0
 (Enter /project/6004141/group/g16/g16/l801.exe)
 DoSCS=F DFT=T ScalE2(SS,OS)=  1.000000  1.000000
 Range of M.O.s used for correlation:     1   400
 NBasis=   400 NAE=    73 NBE=    73 NFC=     0 NFV=     0
 NROrb=    400 NOA=    73 NOB=    73 NVA=   327 NVB=   327

 **** Warning!!: The smallest alpha delta epsilon is  0.34912398D-01

 Leave Link  801 at Wed Jun 12 00:56:32 2019, MaxMem=   104857600 cpu:               2.3 elap:               0.1
 (Enter /project/6004141/group/g16/g16/l1101.exe)
 Using compressed storage, NAtomX=    40.
 Will process     41 centers per pass.
 PrsmSu:  requested number of processors reduced to:  25 ShMem   1 Linda.
 PrsmSu:  requested number of processors reduced to:   8 ShMem   1 Linda.
 R6Disp: Adding Grimme-D3 dispersion energy 1st derivatives to the gradient.
 Leave Link 1101 at Wed Jun 12 00:56:33 2019, MaxMem=   104857600 cpu:              22.7 elap:               0.8
 (Enter /project/6004141/group/g16/g16/l1102.exe)
 Symmetrizing basis deriv contribution to polar:
 IMax=3 JMax=2 DiffMx= 0.00D+00
 Leave Link 1102 at Wed Jun 12 00:56:34 2019, MaxMem=   104857600 cpu:               8.7 elap:               0.3
 (Enter /project/6004141/group/g16/g16/l1110.exe)
 Forming Gx(P) for the SCF density, NAtomX=    40.
 Integral derivatives from FoFJK, PRISM(SPDF).
 Do as many integral derivatives as possible in FoFJK.
 G2DrvN: MDV=     104854584.
 G2DrvN: will do     1 centers at a time, making   41 passes.
 Estimated number of processors is:   32
 G2DrvN:  IPasSy=1 do centers    0 through    0.
 Calling FoFCou, ICntrl=  3107 FMM=F I1Cent=   0 AccDes= 0.00D+00.
 FoFJK:  IHMeth= 1 ICntrl=    3107 DoSepK=F KAlg= 0 I1Cent=           0 FoldK=F
 IRaf=         0 NMat=       1 IRICut=       1 DoRegI=T DoRafI=F ISym2E= 0 IDoP0=0 IntGTp=1.
 FoFCou: FMM=F IPFlag=           0 FMFlag=      100000 FMFlg1=           0
         NFxFlg=           0 DoJE=F BraDBF=F KetDBF=F FulRan=T
         wScrn=  0.000000 ICntrl=      3107 IOpCl=  1 I1Cent=           0 NGrid=           0
         NMat0=    1 NMatS0=      1 NMatT0=    0 NMatD0=    1 NMtDS0=    0 NMtDT0=    0
 Symmetry not used in FoFCou.
 CoulSu:  requested number of processors reduced to:  37 ShMem   1 Linda.
 G2DrvN:  IPasSy=1 do centers    1 through    1.
 Calling FoFCou, ICntrl=  3107 FMM=F I1Cent=   0 AccDes= 0.00D+00.
 CoulSu:  requested number of processors reduced to:  32 ShMem   1 Linda.
 G2DrvN:  IPasSy=1 do centers    2 through    2.
 Calling FoFCou, ICntrl=  3107 FMM=F I1Cent=   0 AccDes= 0.00D+00.
 CoulSu:  requested number of processors reduced to:  32 ShMem   1 Linda.
 G2DrvN:  IPasSy=1 do centers    3 through    3.
 Calling FoFCou, ICntrl=  3107 FMM=F I1Cent=   0 AccDes= 0.00D+00.
 CoulSu:  requested number of processors reduced to:  32 ShMem   1 Linda.
 G2DrvN:  IPasSy=1 do centers    4 through    4.
 Calling FoFCou, ICntrl=  3107 FMM=F I1Cent=   0 AccDes= 0.00D+00.
 CoulSu:  requested number of processors reduced to:  32 ShMem   1 Linda.
 G2DrvN:  IPasSy=1 do centers    5 through    5.
 Calling FoFCou, ICntrl=  3107 FMM=F I1Cent=   0 AccDes= 0.00D+00.
 CoulSu:  requested number of processors reduced to:  32 ShMem   1 Linda.
 G2DrvN:  IPasSy=1 do centers    6 through    6.
 Calling FoFCou, ICntrl=  3107 FMM=F I1Cent=   0 AccDes= 0.00D+00.
 CoulSu:  requested number of processors reduced to:  32 ShMem   1 Linda.
 G2DrvN:  IPasSy=1 do centers    7 through    7.
 Calling FoFCou, ICntrl=  3107 FMM=F I1Cent=   0 AccDes= 0.00D+00.
 CoulSu:  requested number of processors reduced to:  32 ShMem   1 Linda.
 G2DrvN:  IPasSy=1 do centers    8 through    8.
 Calling FoFCou, ICntrl=  3107 FMM=F I1Cent=   0 AccDes= 0.00D+00.
 CoulSu:  requested number of processors reduced to:  32 ShMem   1 Linda.
 G2DrvN:  IPasSy=1 do centers    9 through    9.
 Calling FoFCou, ICntrl=  3107 FMM=F I1Cent=   0 AccDes= 0.00D+00.
 CoulSu:  requested number of processors reduced to:  32 ShMem   1 Linda.
 G2DrvN:  IPasSy=1 do centers   10 through   10.
 Calling FoFCou, ICntrl=  3107 FMM=F I1Cent=   0 AccDes= 0.00D+00.
 CoulSu:  requested number of processors reduced to:  32 ShMem   1 Linda.
 G2DrvN:  IPasSy=1 do centers   11 through   11.
 Calling FoFCou, ICntrl=  3107 FMM=F I1Cent=   0 AccDes= 0.00D+00.
 CoulSu:  requested number of processors reduced to:  32 ShMem   1 Linda.
 G2DrvN:  IPasSy=1 do centers   12 through   12.
 Calling FoFCou, ICntrl=  3107 FMM=F I1Cent=   0 AccDes= 0.00D+00.
 CoulSu:  requested number of processors reduced to:  32 ShMem   1 Linda.
 G2DrvN:  IPasSy=1 do centers   13 through   13.
 Calling FoFCou, ICntrl=  3107 FMM=F I1Cent=   0 AccDes= 0.00D+00.
 CoulSu:  requested number of processors reduced to:  32 ShMem   1 Linda.
 G2DrvN:  IPasSy=1 do centers   14 through   14.
 Calling FoFCou, ICntrl=  3107 FMM=F I1Cent=   0 AccDes= 0.00D+00.
 CoulSu:  requested number of processors reduced to:  32 ShMem   1 Linda.
 G2DrvN:  IPasSy=1 do centers   15 through   15.
 Calling FoFCou, ICntrl=  3107 FMM=F I1Cent=   0 AccDes= 0.00D+00.
 CoulSu:  requested number of processors reduced to:  32 ShMem   1 Linda.
 G2DrvN:  IPasSy=1 do centers   16 through   16.
 Calling FoFCou, ICntrl=  3107 FMM=F I1Cent=   0 AccDes= 0.00D+00.
 CoulSu:  requested number of processors reduced to:  32 ShMem   1 Linda.
 G2DrvN:  IPasSy=1 do centers   17 through   17.
 Calling FoFCou, ICntrl=  3107 FMM=F I1Cent=   0 AccDes= 0.00D+00.
 CoulSu:  requested number of processors reduced to:  32 ShMem   1 Linda.
 G2DrvN:  IPasSy=1 do centers   18 through   18.
 Calling FoFCou, ICntrl=  3107 FMM=F I1Cent=   0 AccDes= 0.00D+00.
 CoulSu:  requested number of processors reduced to:  32 ShMem   1 Linda.
 G2DrvN:  IPasSy=1 do centers   19 through   19.
 Calling FoFCou, ICntrl=  3107 FMM=F I1Cent=   0 AccDes= 0.00D+00.
 CoulSu:  requested number of processors reduced to:  32 ShMem   1 Linda.
 G2DrvN:  IPasSy=1 do centers   20 through   20.
 Calling FoFCou, ICntrl=  3107 FMM=F I1Cent=   0 AccDes= 0.00D+00.
 CoulSu:  requested number of processors reduced to:  32 ShMem   1 Linda.
 G2DrvN:  IPasSy=1 do centers   21 through   21.
 Calling FoFCou, ICntrl=  3107 FMM=F I1Cent=   0 AccDes= 0.00D+00.
 CoulSu:  requested number of processors reduced to:  32 ShMem   1 Linda.
 G2DrvN:  IPasSy=1 do centers   22 through   22.
 Calling FoFCou, ICntrl=  3107 FMM=F I1Cent=   0 AccDes= 0.00D+00.
 CoulSu:  requested number of processors reduced to:  32 ShMem   1 Linda.
 G2DrvN:  IPasSy=1 do centers   23 through   23.
 Calling FoFCou, ICntrl=  3107 FMM=F I1Cent=   0 AccDes= 0.00D+00.
 CoulSu:  requested number of processors reduced to:  32 ShMem   1 Linda.
 G2DrvN:  IPasSy=1 do centers   24 through   24.
 Calling FoFCou, ICntrl=  3107 FMM=F I1Cent=   0 AccDes= 0.00D+00.
 CoulSu:  requested number of processors reduced to:  32 ShMem   1 Linda.
 G2DrvN:  IPasSy=1 do centers   25 through   25.
 Calling FoFCou, ICntrl=  3107 FMM=F I1Cent=   0 AccDes= 0.00D+00.
 CoulSu:  requested number of processors reduced to:  32 ShMem   1 Linda.
 G2DrvN:  IPasSy=1 do centers   26 through   26.
 Calling FoFCou, ICntrl=  3107 FMM=F I1Cent=   0 AccDes= 0.00D+00.
 CoulSu:  requested number of processors reduced to:  32 ShMem   1 Linda.
 G2DrvN:  IPasSy=1 do centers   27 through   27.
 Calling FoFCou, ICntrl=  3107 FMM=F I1Cent=   0 AccDes= 0.00D+00.
 CoulSu:  requested number of processors reduced to:  32 ShMem   1 Linda.
 G2DrvN:  IPasSy=1 do centers   28 through   28.
 Calling FoFCou, ICntrl=  3107 FMM=F I1Cent=   0 AccDes= 0.00D+00.
 CoulSu:  requested number of processors reduced to:  32 ShMem   1 Linda.
 G2DrvN:  IPasSy=1 do centers   29 through   29.
 Calling FoFCou, ICntrl=  3107 FMM=F I1Cent=   0 AccDes= 0.00D+00.
 CoulSu:  requested number of processors reduced to:  32 ShMem   1 Linda.
 G2DrvN:  IPasSy=1 do centers   30 through   30.
 Calling FoFCou, ICntrl=  3107 FMM=F I1Cent=   0 AccDes= 0.00D+00.
 CoulSu:  requested number of processors reduced to:  32 ShMem   1 Linda.
 G2DrvN:  IPasSy=1 do centers   31 through   31.
 Calling FoFCou, ICntrl=  3107 FMM=F I1Cent=   0 AccDes= 0.00D+00.
 CoulSu:  requested number of processors reduced to:  32 ShMem   1 Linda.
 G2DrvN:  IPasSy=1 do centers   32 through   32.
 Calling FoFCou, ICntrl=  3107 FMM=F I1Cent=   0 AccDes= 0.00D+00.
 CoulSu:  requested number of processors reduced to:  32 ShMem   1 Linda.
 G2DrvN:  IPasSy=1 do centers   33 through   33.
 Calling FoFCou, ICntrl=  3107 FMM=F I1Cent=   0 AccDes= 0.00D+00.
 CoulSu:  requested number of processors reduced to:  32 ShMem   1 Linda.
 G2DrvN:  IPasSy=1 do centers   34 through   34.
 Calling FoFCou, ICntrl=  3107 FMM=F I1Cent=   0 AccDes= 0.00D+00.
 CoulSu:  requested number of processors reduced to:  32 ShMem   1 Linda.
 G2DrvN:  IPasSy=1 do centers   35 through   35.
 Calling FoFCou, ICntrl=  3107 FMM=F I1Cent=   0 AccDes= 0.00D+00.
 CoulSu:  requested number of processors reduced to:  32 ShMem   1 Linda.
 G2DrvN:  IPasSy=1 do centers   36 through   36.
 Calling FoFCou, ICntrl=  3107 FMM=F I1Cent=   0 AccDes= 0.00D+00.
 CoulSu:  requested number of processors reduced to:  32 ShMem   1 Linda.
 G2DrvN:  IPasSy=1 do centers   37 through   37.
 Calling FoFCou, ICntrl=  3107 FMM=F I1Cent=   0 AccDes= 0.00D+00.
 CoulSu:  requested number of processors reduced to:  32 ShMem   1 Linda.
 G2DrvN:  IPasSy=1 do centers   38 through   38.
 Calling FoFCou, ICntrl=  3107 FMM=F I1Cent=   0 AccDes= 0.00D+00.
 CoulSu:  requested number of processors reduced to:  32 ShMem   1 Linda.
 G2DrvN:  IPasSy=1 do centers   39 through   39.
 Calling FoFCou, ICntrl=  3107 FMM=F I1Cent=   0 AccDes= 0.00D+00.
 CoulSu:  requested number of processors reduced to:  32 ShMem   1 Linda.
 G2DrvN:  IPasSy=1 do centers   40 through   40.
 Calling FoFCou, ICntrl=  3107 FMM=F I1Cent=   0 AccDes= 0.00D+00.
 CoulSu:  requested number of processors reduced to:  32 ShMem   1 Linda.
 NEqPCM:  Using equilibrium solvation (IEInf=0, Eps=  35.6880, EpsInf=   1.8069)
 G2PCM: DoFxE=T DoFxN=T DoGrad=T DoDP/DQ/DG/TGxP=FFFF NFrqRd=   0 IEInf=0 SqF1=F DoCFld=F IF1Alg=4.
 GePol: Maximum number of non-zero 1st derivatives   =     227
 CoulSu:  requested number of processors reduced to:  30 ShMem   1 Linda.
 CoulSu:  requested number of processors reduced to:  38 ShMem   1 Linda.
 CoulSu:  requested number of processors reduced to:  29 ShMem   1 Linda.
 CoulSu:  requested number of processors reduced to:  30 ShMem   1 Linda.
 CoulSu:  requested number of processors reduced to:  34 ShMem   1 Linda.
 CoulSu:  requested number of processors reduced to:  30 ShMem   1 Linda.
 CoulSu:  requested number of processors reduced to:  34 ShMem   1 Linda.
 CoulSu:  requested number of processors reduced to:  30 ShMem   1 Linda.
 CoulSu:  requested number of processors reduced to:  34 ShMem   1 Linda.
 CoulSu:  requested number of processors reduced to:  30 ShMem   1 Linda.
 CoulSu:  requested number of processors reduced to:  34 ShMem   1 Linda.
 CoulSu:  requested number of processors reduced to:  30 ShMem   1 Linda.
 CoulSu:  requested number of processors reduced to:  34 ShMem   1 Linda.
 CoulSu:  requested number of processors reduced to:  30 ShMem   1 Linda.
 CoulSu:  requested number of processors reduced to:  34 ShMem   1 Linda.
 CoulSu:  requested number of processors reduced to:  30 ShMem   1 Linda.
 CoulSu:  requested number of processors reduced to:  34 ShMem   1 Linda.
 CoulSu:  requested number of processors reduced to:  30 ShMem   1 Linda.
 CoulSu:  requested number of processors reduced to:  34 ShMem   1 Linda.
 CoulSu:  requested number of processors reduced to:  30 ShMem   1 Linda.
 CoulSu:  requested number of processors reduced to:  34 ShMem   1 Linda.
 CoulSu:  requested number of processors reduced to:  30 ShMem   1 Linda.
 CoulSu:  requested number of processors reduced to:  34 ShMem   1 Linda.
 CoulSu:  requested number of processors reduced to:  30 ShMem   1 Linda.
 CoulSu:  requested number of processors reduced to:  34 ShMem   1 Linda.
 CoulSu:  requested number of processors reduced to:  30 ShMem   1 Linda.
 CoulSu:  requested number of processors reduced to:  34 ShMem   1 Linda.
 CoulSu:  requested number of processors reduced to:  30 ShMem   1 Linda.
 CoulSu:  requested number of processors reduced to:  34 ShMem   1 Linda.
 CoulSu:  requested number of processors reduced to:  30 ShMem   1 Linda.
 CoulSu:  requested number of processors reduced to:  39 ShMem   1 Linda.
 CoulSu:  requested number of processors reduced to:  27 ShMem   1 Linda.
 CoulSu:  requested number of processors reduced to:  28 ShMem   1 Linda.
 CoulSu:  requested number of processors reduced to:  27 ShMem   1 Linda.
 CoulSu:  requested number of processors reduced to:  28 ShMem   1 Linda.
 End of G2Drv F.D. properties file   721 does not exist.
 End of G2Drv F.D. properties file   722 does not exist.
 End of G2Drv F.D. properties file   788 does not exist.
 Leave Link 1110 at Wed Jun 12 01:00:11 2019, MaxMem=   104857600 cpu:            8249.0 elap:             217.3
 (Enter /project/6004141/group/g16/g16/l1002.exe)
 Minotr:  UHF open shell wavefunction.
          IDoAtm=1111111111111111111111111111111111111111
 NEqPCM:  Using equilibrium solvation (IEInf=0, Eps=  35.6880, EpsInf=   1.8069)
          Direct CPHF calculation.
          Differentiating once with respect to electric field.
                with respect to dipole field.
          Differentiating once with respect to nuclear coordinates.
          Requested convergence is 1.0D-08 RMS, and 1.0D-07 maximum.
          Secondary convergence is 1.0D-12 RMS, and 1.0D-12 maximum.
          NewPWx=T KeepS1=F KeepF1=F KeepIn=T MapXYZ=F SortEE=F KeepMc=T.
        12026 words used for storage of precomputed grid.
 Two-electron integrals replicated using symmetry.
          MDV=     104857600 using IRadAn=       1.
          Solving linear equations simultaneously, MaxMat=     360.
 FoF2E skips out because all densities are zero.
 CalDSu exits because no D1Ps are significant.
 FoFJK:  IHMeth= 1 ICntrl=       0 DoSepK=F KAlg= 0 I1Cent=           0 FoldK=F
 IRaf= 760000000 NMat=       4 IRICut=       1 DoRegI=T DoRafI=F ISym2E= 2 IDoP0=0 IntGTp=1.
          There are   123 degrees of freedom in the 1st order CPHF.  IDoFFX=6 NUNeed=     3.
    123 vectors produced by pass  0 Test12= 4.77D-14 1.00D-09 XBig12= 1.32D+04 1.12D+02.
 AX will form     4 AO Fock derivatives at one time.
    120 vectors produced by pass  1 Test12= 4.77D-14 1.00D-09 XBig12= 1.94D+03 6.75D+00.
    120 vectors produced by pass  2 Test12= 4.77D-14 1.00D-09 XBig12= 3.67D+01 1.29D+00.
    120 vectors produced by pass  3 Test12= 4.77D-14 1.00D-09 XBig12= 3.65D-01 8.10D-02.
    120 vectors produced by pass  4 Test12= 4.77D-14 1.00D-09 XBig12= 2.05D-03 5.74D-03.
    120 vectors produced by pass  5 Test12= 4.77D-14 1.00D-09 XBig12= 8.98D-06 2.52D-04.
     80 vectors produced by pass  6 Test12= 4.77D-14 1.00D-09 XBig12= 2.86D-08 1.08D-05.
     17 vectors produced by pass  7 Test12= 4.77D-14 1.00D-09 XBig12= 9.09D-11 8.20D-07.
      6 vectors produced by pass  8 Test12= 4.77D-14 1.00D-09 XBig12= 3.16D-13 4.51D-08.
      1 vectors produced by pass  9 Test12= 4.77D-14 1.00D-09 XBig12= 1.45D-15 2.11D-09.
 InvSVY:  IOpt=1 It=  1 EMax= 7.11D-14
 Solved reduced A of dimension   827 with   123 vectors.
 FullF1:  Do perturbations      1 to       3.
 Isotropic polarizability for W=    0.000000      568.28 Bohr**3.
 End of Minotr F.D. properties file   721 does not exist.
 End of Minotr F.D. properties file   722 does not exist.
 End of Minotr F.D. properties file   788 does not exist.
 Leave Link 1002 at Wed Jun 12 01:10:24 2019, MaxMem=   104857600 cpu:           24424.1 elap:             614.0
 (Enter /project/6004141/group/g16/g16/l601.exe)
 Copying SCF densities to generalized density rwf, IOpCl= 1 IROHF=0.

 **********************************************************************

            Population analysis using the SCF density.

 **********************************************************************

 Orbital symmetries:
 Alpha Orbitals:
       Occupied  (A) (A) (A) (A) (A) (A) (A) (A) (A) (A) (A) (A)
                 (A) (A) (A) (A) (A) (A) (A) (A) (A) (A) (A) (A)
                 (A) (A) (A) (A) (A) (A) (A) (A) (A) (A) (A) (A)
                 (A) (A) (A) (A) (A) (A) (A) (A) (A) (A) (A) (A)
                 (A) (A) (A) (A) (A) (A) (A) (A) (A) (A) (A) (A)
                 (A) (A) (A) (A) (A) (A) (A) (A) (A) (A) (A) (A)
                 (A)
       Virtual   (A) (A) (A) (A) (A) (A) (A) (A) (A) (A) (A) (A)
                 (A) (A) (A) (A) (A) (A) (A) (A) (A) (A) (A) (A)
                 (A) (A) (A) (A) (A) (A) (A) (A) (A) (A) (A) (A)
                 (A) (A) (A) (A) (A) (A) (A) (A) (A) (A) (A) (A)
                 (A) (A) (A) (A) (A) (A) (A) (A) (A) (A) (A) (A)
                 (A) (A) (A) (A) (A) (A) (A) (A) (A) (A) (A) (A)
                 (A) (A) (A) (A) (A) (A) (A) (A) (A) (A) (A) (A)
                 (A) (A) (A) (A) (A) (A) (A) (A) (A) (A) (A) (A)
                 (A) (A) (A) (A) (A) (A) (A) (A) (A) (A) (A) (A)
                 (A) (A) (A) (A) (A) (A) (A) (A) (A) (A) (A) (A)
                 (A) (A) (A) (A) (A) (A) (A) (A) (A) (A) (A) (A)
                 (A) (A) (A) (A) (A) (A) (A) (A) (A) (A) (A) (A)
                 (A) (A) (A) (A) (A) (A) (A) (A) (A) (A) (A) (A)
                 (A) (A) (A) (A) (A) (A) (A) (A) (A) (A) (A) (A)
                 (A) (A) (A) (A) (A) (A) (A) (A) (A) (A) (A) (A)
                 (A) (A) (A) (A) (A) (A) (A) (A) (A) (A) (A) (A)
                 (A) (A) (A) (A) (A) (A) (A) (A) (A) (A) (A) (A)
                 (A) (A) (A) (A) (A) (A) (A) (A) (A) (A) (A) (A)
                 (A) (A) (A) (A) (A) (A) (A) (A) (A) (A) (A) (A)
                 (A) (A) (A) (A) (A) (A) (A) (A) (A) (A) (A) (A)
                 (A) (A) (A) (A) (A) (A) (A) (A) (A) (A) (A) (A)
                 (A) (A) (A) (A) (A) (A) (A) (A) (A) (A) (A) (A)
                 (A) (A) (A) (A) (A) (A) (A) (A) (A) (A) (A) (A)
[...]
 67,-0.00008378,0.00011801,0.00005008,0.00072030,-0.00086335,0.00089378
 ,0.00008845,-0.00002129,-0.00009970,0.00000300,-0.00000235,0.00000602,
 -0.00004626,0.00000675,0.00035200,-0.00004364,-0.00002733,-0.00013955,
 -0.00010723,-0.00000204,-0.00006495,-0.00000430,0.00000755,-0.00000186
 ,-0.00002934,0.00000269,-0.00001345,-0.00000709,-0.00000061,-0.0000007
 4,-0.00155449,0.00681783,0.00221159,-0.00198714,0.00125977,-0.00005347
 ,0.08312400,-0.22177092,-0.11602426,-0.00048709,-0.00003428,0.00049148
 ,-0.00021821,0.00027548,0.00015886,0.01294478,-0.01716640,-0.01500460,
 -0.08667986,0.23813572,0.00016023,0.00011680,-0.00034932,0.00004904,-0
 .00000994,0.00002620,-0.00082030,-0.00039959,-0.00218176,-0.00068704,0
 .00022612,0.00040525,-0.00011723,0.00004643,0.00003139,-0.00003038,-0.
 00031843,-0.00029995,-0.00003865,0.00001638,-0.00000151,-0.00000202,0.
 00025284,0.00027660,0.00003463,0.00001133,-0.00001263,0.00020475,0.000
 13331,0.00004675,-0.00005335,0.00003178,-0.00000645,0.00002723,-0.0000
 4049,0.00001640,-0.00001088,-0.00001051,0.00002942,0.00000202,0.000005
 56,0.00001160,-0.00000700,-0.00053900,0.00000274,-0.00016041,-0.000041
 66,-0.00001743,-0.00064899,-0.00018568,0.00072699,-0.00014669,0.000033
 87,0.00007191,0.00011438,0.00030944,0.00005124,0.00002280,0.00008824,0
 .00002461,-0.00056408,0.00035479,-0.00058612,-0.00015089,-0.00011193,-
 0.00006152,-0.00001580,-0.00002440,-0.00002586,-0.00007109,-0.00019100
 ,0.00022861,-0.00003886,-0.00014282,-0.00011793,0.00000963,0.00026099,
 0.00012999,0.00000390,-0.00003113,-0.00000341,0.00002299,0.00001323,-0
 .00002458,0.00002868,-0.00002983,-0.00002612,0.00475270,-0.01378123,-0
 .00481407,0.00531690,0.00039388,0.00273923,0.06896668,-0.11470982,-0.1
 1831803,-0.00011415,0.00068990,-0.00023142,0.00036657,-0.00082155,-0.0
 0019099,0.00008200,0.00190934,0.00383603,-0.07647396,0.12610678,0.1162
 3008,-0.00030108,0.00057945,0.00022827,-0.00004856,0.00000185,0.000049
 43,-0.00218733,-0.00003074,0.00080095,0.00136359,-0.00060694,-0.000336
 05,-0.00017813,-0.00035363,0.00007496,0.00047168,0.00089071,0.00156898
 ,0.00010205,0.00003419,-0.00006371,-0.00033118,-0.00085849,-0.00154215
 ,0.00009766,-0.00005256,-0.00008811,-0.00039555,-0.00030182,-0.0000749
 8,0.00028601,-0.00030583,-0.00002789,-0.00008882,-0.00011991,0.0000908
 3,-0.00005534,0.00016281,-0.00019119,-0.00000050,-0.00007407,-0.000095
 74,-0.00002815,-0.00013321,-0.00002056,-0.00007916,0.00000379,-0.00002
 928,0.00001848,0.00000335,-0.00003755,-0.00004185,0.00005926,-0.000034
 13,0.00034546,-0.00013892,-0.00027795,-0.00009956,0.00011418,0.0001574
 1,0.00056569,-0.00066425,0.00028704,0.00027722,0.00009024,-0.00007493,
 -0.00000411,0.00001049,0.00001032,-0.00030228,0.00030735,0.00030751,-0
 .00004046,0.00001553,-0.00015433,-0.00007667,-0.00034293,-0.00014563,0
 .00000329,-0.00000372,-0.00001131,0.00000871,0.00000019,0.00001049,-0.
 00000552,-0.00000336,-0.00001342,-0.03307405,0.02041721,0.02416402,-0.
 02234779,-0.06446526,-0.00161924,0.04550604,0.02213556,-0.01887235,-0.
 25288119,-0.00276112,0.12931568,0.00281584,-0.00256744,0.00240682,-0.1
 3764317,0.02490236,0.06110358,0.00115345,-0.00449805,0.00270013,0.5198
 2880,0.00047517,-0.00130271,0.00008886,-0.00014751,-0.00004328,0.00014
 371,-0.00222055,-0.00113585,0.00006606,0.00297304,0.00071808,-0.000841
 06,-0.00041292,-0.00051823,0.00056425,0.00182803,0.00279718,0.00477148
 ,0.00032012,0.00019836,-0.00019988,-0.00084803,-0.00243973,-0.00453216
 ,0.00016133,-0.00035485,-0.00006730,-0.00195660,-0.00132936,-0.0003948
 7,-0.00021836,0.00027998,-0.00017679,0.00010167,0.00004243,0.,-0.00000
 242,-0.00002074,0.00008633,0.00004398,0.00007303,0.00002131,0.00015275
 ,-0.00053295,0.00038404,-0.00000515,0.00015424,0.00013212,-0.00007682,
 0.00018197,0.00014621,-0.00014942,0.00008021,-0.00008528,-0.00081544,0
 .00043562,0.00053367,0.00018978,-0.00024072,-0.00021665,-0.00030083,0.
 00040231,-0.00038239,-0.00029962,-0.00004996,0.00010351,-0.00001221,0.
 00000915,-0.00000814,0.00017417,-0.00010287,-0.00017397,0.00002672,0.0
 0004490,0.00020940,0.00015993,0.00021671,0.00006364,0.00000294,-0.0000
 0796,0.00000096,0.00001068,0.00000159,-0.00001361,0.00000504,0.0000053
 3,0.00000709,0.01979023,-0.00606373,-0.01382626,-0.02594662,0.01808718
 ,0.02135538,-0.01640616,-0.05330591,-0.00818590,-0.05647793,-0.1265037
 3,0.01734142,-0.00317059,-0.00396950,-0.00145008,0.07805402,-0.2485215
 1,-0.11483028,-0.00378343,-0.00267897,-0.00077219,0.10704645,0.6908521
 3,0.00041043,-0.00062550,-0.00001654,0.00000076,-0.00003439,0.00001756
 ,0.00043425,-0.00022180,-0.00129030,-0.00026625,0.00060051,-0.00007959
 ,-0.00011017,0.00007384,0.00004564,0.00021179,0.00010112,0.00030932,0.
 00001060,0.00005353,-0.00002457,-0.00003456,-0.00005226,-0.00025320,-0
 .00003256,-0.00006376,0.00002419,-0.00024651,-0.00016183,-0.00004197,-
 0.00017972,0.00015155,0.00005948,0.00000908,-0.00001090,-0.00005046,0.
 00005123,-0.00013323,0.00014025,0.00004955,0.00006149,0.00003821,0.000
 04537,-0.00013985,0.00021990,0.00002601,0.00006537,0.00009218,0.000055
 12,0.00006747,0.00010045,0.00000588,-0.00007219,-0.00006067,-0.0004922
 2,0.00018083,0.00039945,0.00012884,-0.00010427,-0.00016161,-0.00036523
 ,0.00053103,-0.00024801,-0.00026197,-0.00009363,0.00006576,-0.00000761
 ,-0.00000076,-0.00001748,0.00026058,-0.00023251,-0.00022910,0.00005255
 ,-0.00012524,0.00024795,0.00006946,0.00031100,0.00008672,0.00000107,-0
 .00000360,0.00000921,0.00000601,-0.00000613,-0.00000552,0.00001091,-0.
 00000388,0.00002171,0.02430908,-0.01353069,-0.02778749,0.01158556,0.04
 727987,0.01487634,-0.03183002,-0.03475955,0.01683207,0.11271118,-0.018
 97188,-0.14303751,0.00217813,-0.00189860,0.00550005,0.07830341,-0.0780
 5070,-0.13954188,0.00292242,-0.00002493,0.00534147,-0.23119665,0.10869
 088,0.32293948,0.00003945,-0.00001857,0.00004088,0.00000621,0.00000374
 ,-0.00000315,0.00051521,-0.00037042,-0.00058294,-0.00004535,0.00004361
 ,0.00013070,0.00001848,0.00003736,-0.00002375,-0.00004755,-0.00005419,
 -0.00012309,-0.00000701,-0.00000714,0.00000583,0.00002263,0.00005223,0
 .00011525,-0.00000438,0.00000357,0.00000548,0.00005067,0.00003102,0.00
 000727,0.00000069,0.00000834,0.00000849,-0.00000238,-0.00000874,0.0000
 1006,0.00000429,-0.00001036,0.00001258,0.00000019,-0.00000191,0.000006
 18,-0.00014833,-0.00004509,0.00000728,-0.00000032,-0.00002864,-0.00002
 451,0.00001171,-0.00000658,-0.00000430,-0.00000225,-0.00002557,-0.0000
 3637,-0.00003681,0.00001463,0.00000692,0.00000945,-0.00001614,-0.00001
 062,-0.00003431,0.00002817,-0.00002316,-0.00002250,-0.00000163,0.00001
 048,0.00000169,0.00000224,-0.00000137,0.00001966,-0.00001371,-0.000024
 42,0.00000988,-0.00000347,0.00001960,0.00000668,0.00002071,0.00000908,
 -0.00000057,0.00000147,0.00000029,-0.00000044,-0.00000037,-0.00000076,
 0.00000063,0.00000109,0.00000140,0.00127553,-0.00387801,0.00335219,0.0
 0911751,-0.01220276,-0.00808517,-0.00068350,-0.00067720,-0.00010160,-0
 .09522772,0.07981547,0.06469492,-0.00069739,0.00102802,-0.00214075,-0.
 00189523,-0.00278335,0.00509474,-0.00023900,0.00028245,-0.00056634,-0.
 00546307,0.02216573,0.01256877,0.09422646,0.00023915,-0.00031437,0.000
 31177,-0.00002661,0.00000381,0.00004738,0.00028209,0.00031740,-0.00152
 286,0.00052564,0.00003802,0.00000162,-0.00000521,-0.00003285,0.0000262
 5,0.00042187,0.00076855,0.00132994,0.00008407,0.00004041,-0.00005883,-
 0.00026632,-0.00072969,-0.00129693,-0.00000629,-0.00002650,-0.00003990
 ,-0.00037277,-0.00026766,-0.00006787,-0.00001481,0.00006431,-0.0000046
 3,-0.00003982,0.00000259,-0.00003657,0.00001769,0.00001589,-0.00002593
 ,0.00000847,-0.00003557,0.00000674,-0.00011555,-0.00054331,0.00032262,
 -0.00001570,0.00003097,0.00004813,0.00002365,0.00004964,0.00001534,-0.
 00005146,-0.00011448,-0.00015309,-0.00011802,0.00005538,0.00003879,0.0
 0001133,-0.00002554,-0.00001359,0.00005601,0.00000215,0.00000670,-0.00
 001204,-0.00000844,0.00000699,-0.00000522,0.00000426,-0.00000531,-0.00
 002253,0.00001960,0.00003111,-0.00001916,0.00000059,-0.00001944,0.0000
 1207,-0.00001184,-0.00001245,0.00000121,-0.00000423,-0.00000149,0.0000
 0151,-0.00000003,0.00000039,0.00000010,-0.00000148,-0.00000312,-0.0043
 7112,-0.00268903,0.00005499,0.01282109,-0.01715003,-0.01482347,-0.0007
 1529,-0.00012032,0.00059436,0.07996420,-0.22266618,-0.11326330,0.00056
 830,0.00069808,0.00122120,-0.00183639,0.00158345,-0.00047622,0.0002975
 3,-0.00009426,0.00016881,-0.00316768,0.00650536,0.00338045,-0.08485532
 ,0.23397076,0.00014409,-0.00019126,0.00020081,-0.00001853,0.00000181,0
 .00001830,-0.00019998,0.00042524,-0.00010617,0.00034355,-0.00007894,0.
 00007895,0.00001052,0.00000417,-0.00001637,0.00021179,0.00038145,0.000
 65353,0.00004357,0.00002022,-0.00002646,-0.00012389,-0.00035700,-0.000
 63356,-0.00000486,-0.00000960,-0.00000648,-0.00020838,-0.00013638,-0.0
 0003932,-0.00000033,0.00004289,-0.00000777,-0.00001877,-0.00001499,-0.
 00000042,0.00000985,-0.00000683,0.00000386,0.00000116,-0.00002186,-0.0
 0000088,-0.00001499,0.00003449,-0.00000860,0.00000095,-0.00002211,-0.0
 0000327,-0.00000259,0.00000532,-0.00000645,-0.00001358,0.00003298,-0.0
 0001270,-0.00006801,0.00003086,0.00002177,0.00001475,-0.00002019,-0.00
 001553,-0.00001506,0.00002843,-0.00000368,-0.00002528,-0.00001043,0.00
 001132,-0.00000172,-0.00000007,-0.00000358,0.00000392,-0.00000285,-0.0
 0000960,-0.00000394,-0.00000226,-0.00000732,0.00001092,0.00001010,0.00
 000446,-0.00000028,0.00000015,-0.00000076,0.00000028,0.00000091,-0.000
 00052,0.00000017,-0.00000016,-0.00000075,0.00285435,-0.00079769,0.0055
 6194,-0.00012219,0.00209417,0.00348121,-0.00008400,0.00051431,-0.00028
 275,0.06444920,-0.11314550,-0.11588989,-0.00225214,0.00090748,-0.00249
 445,0.00548431,0.00027878,0.00336141,-0.00056507,0.00014307,-0.0007802
 4,0.00480676,-0.01384082,-0.00494693,-0.07301855,0.12335176,0.11422919
 ,0.00022144,-0.00023750,0.00027938,-0.00002458,0.00000500,0.00003838,-
 0.00072878,0.00113765,0.00022637,0.00020329,-0.00025493,-0.00010980,-0
 .00000755,-0.00002147,0.,0.00032224,0.00063513,0.00111781,0.00006841,0
 .00003014,-0.00004952,-0.00022683,-0.00063222,-0.00110238,-0.00000330,
 -0.00002392,-0.00002434,-0.00028298,-0.00018373,-0.00003329,-0.0000144
 0,0.00004927,-0.00002336,-0.00002333,-0.00000698,-0.00002449,0.0000105
 5,0.00000167,-0.00001193,0.00000488,-0.00002479,0.00000004,0.00005300,
 -0.00023360,0.00008785,-0.00000979,0.00001438,0.00004088,-0.00001099,0
 .00005022,0.00001550,-0.00004942,-0.00002013,-0.00004725,-0.00009031,0
 .00004825,0.00001925,0.00001512,-0.00002291,-0.00001360,0.00004270,0.0
 0000374,0.00003425,-0.00001204,-0.00000689,0.00000697,-0.00000399,0.00
 000270,-0.00000344,-0.00003244,-0.00000153,0.00001966,-0.00001948,-0.0
 0000469,-0.00002724,0.00001290,-0.00001550,-0.00001110,0.00000142,-0.0
 0000122,-0.00000100,0.00000761,-0.00000020,0.00000102,0.00000116,-0.00
 000104,-0.00000159,0.00286666,-0.00359833,0.00221510,0.00027649,0.0000
 4980,-0.00050507,-0.00828149,0.00071141,0.00764892,0.00271288,0.001387
 37,0.00333276,-0.00039500,0.00014407,-0.00043990,-0.24750984,-0.029099
 00,0.13526010,-0.00061313,0.00050653,-0.00225379,-0.00601426,-0.003534
 78,0.00480875,-0.00034443,-0.00022646,0.00037936,0.25848654,0.00013589
 ,-0.00011103,0.00014658,-0.00000856,0.00000934,0.00001929,-0.00112635,
 0.00121416,0.00036312,-0.00025417,-0.00058297,0.00021395,0.00002822,-0
 .00001400,0.00000081,0.00009995,0.00026769,0.00046193,0.00002605,0.000
 00677,-0.00002151,-0.00011139,-0.00029833,-0.00048454,-0.00003237,0.00
 001706,-0.00003663,-0.00003427,-0.00003087,0.00003760,0.00000429,0.000
 01568,-0.00000201,-0.00001294,-0.00000960,-0.00001151,0.00000516,0.000
 00460,-0.00001336,0.00000021,-0.00001553,0.00000572,0.00003967,-0.0000
 5869,0.00007223,-0.00000146,0.00000573,0.00001699,0.00002182,0.0000077
 2,-0.00000341,-0.00002237,-0.00002944,-0.00003419,-0.00006915,0.000033
 40,0.00001672,0.00000554,0.00000092,-0.00000041,0.00003413,0.00001921,
 -0.00003395,0.00000359,0.00000111,-0.00000225,-0.00000159,0.00000338,-
 0.00000177,-0.00001975,0.00002810,0.00000855,-0.00001291,0.00000653,0.
 00000007,0.00000730,-0.00000752,-0.00001615,0.00000144,-0.00000245,-0.
 00000047,0.00000609,0.00000364,0.00000111,0.00000100,-0.00000095,-0.00
 000090,-0.00247024,-0.00447527,-0.00185045,0.00007457,-0.00113716,-0.0
 0026247,-0.02432240,0.00076838,0.01613761,0.00038487,-0.00327025,-0.00
 361819,0.00014042,0.00010274,0.00031158,-0.02897818,-0.06132022,0.0114
 2333,0.00086052,0.00060523,0.00091501,0.02164558,0.00716401,-0.0134008
 8,0.00111594,0.00022891,-0.00077480,0.03251178,0.06029434,-0.00010904,
 0.00018984,-0.00012205,0.00001674,0.00000367,-0.00001886,0.00034114,-0
 .00051357,0.00045126,-0.00034352,0.00009313,-0.00019096,-0.00000083,0.
 00003365,-0.00001890,-0.00021814,-0.00034942,-0.00059396,-0.00003908,-
 0.00002511,0.00002526,0.00011170,0.00031189,0.00057464,0.00001638,-0.0
 0000171,0.00002205,0.00020939,0.00015794,0.00002926,0.00000491,-0.0000
 3777,0.00000334,0.00002068,-0.00000181,0.00001596,-0.00001541,-0.00000
 944,0.00000646,-0.00000111,0.00001871,-0.00000002,-0.00002144,0.000058
 42,-0.00003862,-0.00000019,-0.00001324,-0.00002346,-0.00001710,-0.0000
 1915,-0.00001657,0.00001343,0.00000714,0.00002076,0.00005470,-0.000023
 16,-0.00005129,-0.00001195,-0.00000145,0.00000772,-0.00000579,-0.00001
 391,0.00005651,0.00000881,0.00000570,0.00000271,0.00000217,-0.00000219
 ,0.00000140,0.00000549,-0.00000982,-0.00002929,0.00001492,-0.00000787,
 -0.00002676,-0.00000378,-0.00000352,0.00000990,-0.00000201,-0.00000057
 ,-0.00000118,-0.00001160,-0.00000269,-0.00000131,-0.00000193,0.0000002
 2,0.00000057,0.00245540,-0.00139890,0.00532802,-0.00056414,-0.00025722
 ,-0.00022384,-0.00052335,-0.00088100,0.00261361,0.00301864,-0.00427130
 ,0.00352799,-0.00043868,0.00028944,-0.00073097,0.13534339,0.01148936,-
 0.12511462,-0.00207912,0.00109307,-0.00234356,0.01297525,0.00392688,-0
 .00494523,0.00083434,0.00013310,-0.00019419,-0.14888175,-0.01082037,0.
 12413906,0.00004642,-0.00001193,0.00007142,-0.00000017,0.00000212,0.00
 000764,-0.00033105,0.00037642,-0.00052519,0.00007704,-0.00025437,-0.00
 005498,-0.00000265,-0.00001896,-0.00000488,0.00002351,0.00007056,0.000
 13028,0.00000520,-0.00000106,-0.00000641,-0.00003364,-0.00007644,-0.00
 013289,-0.00000415,0.00001356,-0.00001952,0.00002847,0.00000080,0.0000
 0590,0.00000770,-0.00001053,0.00000580,-0.00002946,0.00000355,-0.00000
 658,0.00000832,0.00002364,-0.00003019,0.00000628,-0.00002059,0.0000004
 5,-0.00002135,-0.00006065,0.00002979,-0.00000244,-0.00000119,0.0000136
 3,0.00002811,-0.00001367,-0.00001484,0.00001963,-0.00002265,-0.0000272
 8,-0.00003046,0.00000145,0.00002162,0.00000864,-0.00000041,-0.00000748
 ,-0.00002053,0.00000506,-0.00002374,-0.00000348,-0.00000138,0.00000069
 ,-0.00000028,0.00000226,-0.00000023,0.00000843,-0.00001493,-0.00000360
 ,-0.00000569,0.00000026,-0.00000670,0.00000543,0.00000133,0.00000582,0
 .00000049,-0.00000136,-0.00000036,0.00000193,0.00000114,-0.00000083,0.
 00000180,0.00000018,-0.00000175,-0.00073346,0.00060404,0.00024122,-0.0
 0170357,-0.00003218,0.00592774,0.00163700,0.00124334,0.00413604,-0.007
 19938,-0.02450898,-0.00115213,-0.00035364,-0.00118535,0.00002183,0.008
 99057,0.01197541,-0.00043553,0.00037702,0.00056594,0.00010665,-0.11115
 616,-0.11689640,0.01379667,-0.00043447,0.00092781,-0.00200737,-0.00060
 897,0.00032406,-0.00215755,0.11139299,0.00018417,-0.00022983,0.0002336
 5,-0.00002336,-0.00000078,0.00003330,-0.00037753,0.00041767,-0.0000137
 8,0.00038663,-0.00008378,-0.00003848,-0.00000061,0.00000180,-0.0000078
 8,0.00029913,0.00053508,0.00093993,0.00005918,0.00003317,-0.00004309,-
 0.00017745,-0.00050792,-0.00091139,-0.00000206,-0.00001919,-0.00001223
 ,-0.00028923,-0.00019457,-0.00005443,-0.00001992,0.00006233,-0.0000043
 4,-0.00002806,-0.00000659,-0.00003010,0.00002219,-0.00000181,-0.000007
 02,0.00000425,-0.00002911,-0.00000220,0.00006920,-0.00018023,0.0000518
 2,-0.00001379,0.00001560,0.00003099,-0.00002878,0.00007121,0.00003995,
 -0.00006240,-0.00000424,-0.00002124,-0.00004330,0.00002442,0.00000368,
 0.00000480,-0.00000439,0.00000097,0.00005334,-0.00000814,0.00004114,-0
 .00000350,-0.00000828,0.00000075,-0.00000196,0.00000177,-0.00000480,-0
 .00003398,0.00000634,0.00004118,-0.00002471,-0.00000336,-0.00003581,-0
 .00000547,-0.00000354,-0.00000852,0.00000059,-0.00000318,-0.00000025,0
 .00000420,0.00000213,-0.00000225,0.00000228,-0.00000192,-0.00000425,0.
 00078993,0.00028218,-0.00009253,-0.00104587,0.00205032,-0.00089234,0.0
 0202998,-0.00127773,-0.00410577,0.00073868,0.00060906,-0.00114919,0.00
 006673,-0.00006019,-0.00012969,-0.01306174,-0.01632044,0.00280442,-0.0
 0070715,-0.00093418,0.00007637,-0.11697063,-0.27912721,0.00117404,0.00
 035339,0.00043567,0.00112514,0.00086275,0.00055562,0.00085303,0.126990
 10,0.29390625,-0.00002248,0.00008976,-0.00010027,0.00001444,0.00000561
 ,-0.00000986,-0.00005967,0.00028312,-0.00061751,-0.00030896,0.00006570
 ,0.00016580,-0.00001973,-0.00000477,0.00000993,-0.00011939,-0.00020564
 ,-0.00038767,-0.00002321,-0.00001915,0.00001952,0.00006800,0.00019965,
 0.00036808,0.00000075,0.00000865,-0.00000308,0.00013659,0.00008648,0.0
 0003003,0.00001229,-0.00003036,-0.00000655,0.00000939,0.00000070,0.000
 00662,-0.00001741,0.00000881,0.00000128,-0.00000583,0.00000952,0.00000
 479,-0.00000405,-0.00002413,-0.00000895,-0.00001124,-0.00000162,0.0000
 0385,-0.00000854,0.00001679,0.00001786,0.00000716,-0.00001178,0.000004
 11,-0.00000623,0.00000421,0.00002526,0.00000848,0.00000956,-0.00000427
 ,-0.00005640,0.00001594,-0.00002670,-0.00001340,-0.00000412,-0.0000007
 8,0.00000044,0.00000091,-0.00000092,0.00002235,-0.00003280,-0.00001280
 ,-0.00000281,-0.00000098,-0.00000921,0.00000754,0.00001996,0.00001690,
 0.00000059,-0.00000120,0.00000007,0.00000303,0.00000170,-0.00000088,0.
 00000360,-0.00000140,-0.00000076,0.00006278,-0.00029100,-0.00090208,0.
 00562265,-0.00146466,0.00275253,0.00457879,-0.00340624,0.00291070,0.00
 680506,0.01599356,0.00315875,0.00037893,0.00067148,0.00018353,-0.00853
 730,-0.01461242,0.00377039,-0.00033240,-0.00082605,0.00016637,0.013848
 69,0.00136044,-0.04462931,-0.00217187,0.00072653,-0.00212814,-0.001967
 50,0.00123801,-0.00215084,-0.01790315,0.00012121,0.03738422\\0.0000011
 3,0.00000124,-0.00000034,-0.00000030,-0.00000368,-0.00000136,0.0000007
 9,0.00000212,0.00000046,-0.00000625,-0.00000325,0.00000064,-0.00000081
 ,0.00000223,0.00000243,0.00000005,-0.00000633,-0.00000128,0.00000023,-
 0.00000153,-0.00000206,-0.00000264,0.00000448,-0.00000053,-0.00000260,
 -0.00000338,-0.00000291,0.00000366,0.00000795,-0.00000277,-0.00000109,
 -0.00000045,0.00000101,-0.00000109,0.00000084,-0.00000021,-0.00000003,
 0.00000018,0.00000011,-0.00000081,0.00000073,0.00000005,0.00000258,-0.
 00000488,0.00000128,0.00000318,0.00000369,-0.00000176,0.00000052,0.000
 00014,-0.00000091,0.00000214,-0.00000010,0.00000111,-0.00000040,-0.000
 00025,0.00000061,0.00000013,0.00000027,0.00000050,0.00000007,0.0000004
 6,0.00000021,0.00000056,0.00000051,0.00000105,-0.00000025,-0.00000011,
 0.00000043,-0.00000090,-0.00000057,0.00000173,-0.00000029,0.00000027,0
 .00000059,0.00000132,0.00000018,0.00000117,0.00000053,0.00000003,0.000
 00127,0.00000052,0.00000055,0.00000147,0.00000003,0.00000003,0.0000021
 5,0.00000009,0.00000019,-0.00000236,0.00000067,-0.00000031,-0.00000053
 ,-0.00000053,0.00000087,0.00000048,0.00000018,-0.00000007,-0.00000068,
 -0.00000010,-0.00000111,-0.00000073,-0.00000064,-0.00000055,0.00000006
 ,0.00000045,-0.00000064,0.00000009,-0.00000047,0.00000001,0.00000016,-
 0.00000059,0.00000023,-0.00000073,0.00000107,0.00000001,0.00000013,-0.
 00000010,0.00000002,-0.00000002\\\@


 KNOWLEDGE IS CHIMERA - FOR BEYOND IT LIES OTHER KNOWLEDGE,
 AND THE INCOMPLETENESS OF WHAT IS KNOWN RENDERS THE KNOWING FALSE.
     -- THE THOMAS COVENANT CHRONICLES
 Job cpu time:       0 days 10 hours 53 minutes 16.3 seconds.
 Elapsed time:       0 days  0 hours 16 minutes 46.0 seconds.
 File lengths (MBytes):  RWF=   1396 Int=      0 D2E=      0 Chk=     25 Scr=      2
 Normal termination of Gaussian 16 at Wed Jun 12 01:12:19 2019.
