 Entering Gaussian System, Link 0=g16
 Input=/Users/rustam/Documents/Projects/Collaborations/Li-Colab/Pinacol/Systematic/Stage05-products/H2N-N/N.gjf
 Output=/Users/rustam/Documents/Projects/Collaborations/Li-Colab/Pinacol/Systematic/Stage05-products/H2N-N/N.log
 Initial command:
 /Applications/G16/g16/l1.exe "/Users/rustam/G16-scratch/Gau-20823.inp" -scrdir="/Users/rustam/G16-scratch/"
 Entering Link 1 = /Applications/G16/g16/l1.exe PID=     20824.
  
 Copyright (c) 1988,1990,1992,1993,1995,1998,2003,2009,2016,
            Gaussian, Inc.  All Rights Reserved.
  
 This is part of the Gaussian(R) 16 program.  It is based on
 the Gaussian(R) 09 system (copyright 2009, Gaussian, Inc.),
 the Gaussian(R) 03 system (copyright 2003, Gaussian, Inc.),
 the Gaussian(R) 98 system (copyright 1998, Gaussian, Inc.),
 the Gaussian(R) 94 system (copyright 1995, Gaussian, Inc.),
 the Gaussian 92(TM) system (copyright 1992, Gaussian, Inc.),
 the Gaussian 90(TM) system (copyright 1990, Gaussian, Inc.),
 the Gaussian 88(TM) system (copyright 1988, Gaussian, Inc.),
 the Gaussian 86(TM) system (copyright 1986, Carnegie Mellon
 University), and the Gaussian 82(TM) system (copyright 1983,
 Carnegie Mellon University). Gaussian is a federally registered
 trademark of Gaussian, Inc.
  
 This software contains proprietary and confidential information,
 including trade secrets, belonging to Gaussian, Inc.
  
 This software is provided under written license and may be
 used, copied, transmitted, or stored only in accord with that
 written license.
  
 The following legend is applicable only to US Government
 contracts under FAR:
  
                    RESTRICTED RIGHTS LEGEND
  
 Use, reproduction and disclosure by the US Government is
 subject to restrictions as set forth in subparagraphs (a)
 and (c) of the Commercial Computer Software - Restricted
 Rights clause in FAR 52.227-19.
  
 Gaussian, Inc.
 340 Quinnipiac St., Bldg. 40, Wallingford CT 06492
  
  
 ---------------------------------------------------------------
 Warning -- This program may not be used in any manner that
 competes with the business of Gaussian, Inc. or will provide
 assistance to any competitor of Gaussian, Inc.  The licensee
 of this program is prohibited from giving any competitor of
 Gaussian, Inc. access to this program.  By using this program,
 the user acknowledges that Gaussian, Inc. is engaged in the
 business of creating and licensing software in the field of
 computational chemistry and represents and warrants to the
 licensee that it is not a competitor of Gaussian, Inc. and that
 it will not use this program in any manner prohibited above.
 ---------------------------------------------------------------
  

 Cite this work as:
 Gaussian 16, Revision A.03,
 M. J. Frisch, G. W. Trucks, H. B. Schlegel, G. E. Scuseria, 
 M. A. Robb, J. R. Cheeseman, G. Scalmani, V. Barone, 
 G. A. Petersson, H. Nakatsuji, X. Li, M. Caricato, A. V. Marenich, 
 J. Bloino, B. G. Janesko, R. Gomperts, B. Mennucci, H. P. Hratchian, 
 J. V. Ortiz, A. F. Izmaylov, J. L. Sonnenberg, D. Williams-Young, 
 F. Ding, F. Lipparini, F. Egidi, J. Goings, B. Peng, A. Petrone, 
 T. Henderson, D. Ranasinghe, V. G. Zakrzewski, J. Gao, N. Rega, 
 G. Zheng, W. Liang, M. Hada, M. Ehara, K. Toyota, R. Fukuda, 
 J. Hasegawa, M. Ishida, T. Nakajima, Y. Honda, O. Kitao, H. Nakai, 
 T. Vreven, K. Throssell, J. A. Montgomery, Jr., J. E. Peralta, 
 F. Ogliaro, M. J. Bearpark, J. J. Heyd, E. N. Brothers, K. N. Kudin, 
 V. N. Staroverov, T. A. Keith, R. Kobayashi, J. Normand, 
 K. Raghavachari, A. P. Rendell, J. C. Burant, S. S. Iyengar, 
 J. Tomasi, M. Cossi, J. M. Millam, M. Klene, C. Adamo, R. Cammi, 
 J. W. Ochterski, R. L. Martin, K. Morokuma, O. Farkas, 
 J. B. Foresman, and D. J. Fox, Gaussian, Inc., Wallingford CT, 2016.
 
 ******************************************
 Gaussian 16:  EM64M-G16RevA.03 25-Dec-2016
                11-Jun-2019 
 ******************************************
 %chk=N.chk
 ----------------------------------------------------------------------
 #p opt ub3lyp/6-31g(d,p) scrf=(iefpcm,solvent=acetonitrile) guess=(mix
 ,always) empiricaldispersion=gd3
 ----------------------------------------------------------------------
 1/18=20,19=15,26=3,38=1/1,3;
 2/9=110,12=2,17=6,18=5,40=1/2;
 3/5=1,6=6,7=101,11=2,25=1,30=1,70=2201,71=1,72=2,74=-5,116=2,124=31/1,2,3;
 4/13=-1/1;
 5/5=2,38=5,53=2/2;
 6/7=2,8=2,9=2,10=2,28=1/1;
 7//1,2,3,16;
 1/18=20,19=15,26=3/3(2);
 2/9=110/2;
 99//99;
 2/9=110/2;
 3/5=1,6=6,7=101,11=2,25=1,30=1,70=2205,71=1,72=2,74=-5,116=2,124=31/1,2,3;
 4/13=-1/1;
 5/5=2,38=5,53=2/2;
 7//1,2,3,16;
 1/18=20,19=15,26=3/3(-5);
 2/9=110/2;
 6/7=2,8=2,9=2,10=2,19=2,28=1/1;
 99/9=1/99;
 Leave Link    1 at Tue Jun 11 18:42:55 2019, MaxMem=           0 cpu:               0.1 elap:               0.1
 (Enter /Applications/G16/g16/l101.exe)
 -------------------
 Title Card Required
 -------------------
 Symbolic Z-matrix:
 Charge =  0 Multiplicity = 1
 N                     4.0516   -1.22322   0.55425 
 H                     4.98787  -0.78748   0.63984 
 N                     3.66829  -2.15338   1.2552 
 H                     3.41714  -0.82655  -0.17481 
 
 ITRead=  0  0  0  0
 MicOpt= -1 -1 -1 -1
 NAtoms=      4 NQM=        4 NQMF=       0 NMMI=      0 NMMIF=      0
                NMic=       0 NMicF=      0.
                    Isotopes and Nuclear Properties:
 (Nuclear quadrupole moments (NQMom) in fm**2, nuclear magnetic moments (NMagM)
  in nuclear magnetons)

  Atom         1           2           3           4
 IAtWgt=          14           1          14           1
 AtmWgt=  14.0030740   1.0078250  14.0030740   1.0078250
 NucSpn=           2           1           2           1
 AtZEff=  -0.0000000  -0.0000000  -0.0000000  -0.0000000
 NQMom=    2.0440000   0.0000000   2.0440000   0.0000000
 NMagM=    0.4037610   2.7928460   0.4037610   2.7928460
 AtZNuc=   7.0000000   1.0000000   7.0000000   1.0000000
 Leave Link  101 at Tue Jun 11 18:42:56 2019, MaxMem=   104857600 cpu:               0.2 elap:               0.4
 (Enter /Applications/G16/g16/l103.exe)

 GradGradGradGradGradGradGradGradGradGradGradGradGradGradGradGradGradGrad
 Berny optimization.
 Initialization pass.
                           ----------------------------
                           !    Initial Parameters    !
                           ! (Angstroms and Degrees)  !
 --------------------------                            --------------------------
 ! Name  Definition              Value          Derivative Info.                !
 --------------------------------------------------------------------------------
 ! R1    R(1,2)                  1.0362         estimate D2E/DX2                !
 ! R2    R(1,3)                  1.2262         estimate D2E/DX2                !
 ! R3    R(1,4)                  1.0447         estimate D2E/DX2                !
 ! A1    A(2,1,3)              123.6574         estimate D2E/DX2                !
 ! A2    A(2,1,4)              116.5322         estimate D2E/DX2                !
 ! A3    A(3,1,4)              119.8099         estimate D2E/DX2                !
 ! D1    D(2,1,4,3)           -179.7513         estimate D2E/DX2                !
 --------------------------------------------------------------------------------
 Trust Radius=3.00D-01 FncErr=1.00D-07 GrdErr=1.00D-06 EigMax=2.50D+02 EigMin=1.00D-04
 Number of steps in this run=     20 maximum allowed number of steps=    100.
 GradGradGradGradGradGradGradGradGradGradGradGradGradGradGradGradGradGrad

 Leave Link  103 at Tue Jun 11 18:42:56 2019, MaxMem=   104857600 cpu:               0.0 elap:               0.0
 (Enter /Applications/G16/g16/l202.exe)
                          Input orientation:                          
 ---------------------------------------------------------------------
 Center     Atomic      Atomic             Coordinates (Angstroms)
 Number     Number       Type             X           Y           Z
 ---------------------------------------------------------------------
      1          7           0        4.051600   -1.223217    0.554253
      2          1           0        4.987874   -0.787484    0.639840
      3          7           0        3.668285   -2.153380    1.255204
      4          1           0        3.417141   -0.826548   -0.174806
 ---------------------------------------------------------------------
                    Distance matrix (angstroms):
                    1          2          3          4
     1  N    0.000000
     2  H    1.036242   0.000000
     3  N    1.226159   1.996412   0.000000
     4  H    1.044706   1.769852   1.966846   0.000000
 Stoichiometry    H2N2
 Framework group  C1[X(H2N2)]
 Deg. of freedom     6
 Full point group                 C1      NOp   1
 Largest Abelian subgroup         C1      NOp   1
 Largest concise Abelian subgroup C1      NOp   1
                         Standard orientation:                         
 ---------------------------------------------------------------------
 Center     Atomic      Atomic             Coordinates (Angstroms)
 Number     Number       Type             X           Y           Z
 ---------------------------------------------------------------------
      1          7           0        0.468092   -0.002435   -0.000515
      2          1           0        1.042979   -0.864583    0.001276
      3          7           0       -0.758066   -0.003250    0.000159
      4          1           0        0.986839    0.904378    0.001214
 ---------------------------------------------------------------------
 Rotational constants (GHZ):         320.2989981          38.7030247          34.5305880
 Leave Link  202 at Tue Jun 11 18:42:56 2019, MaxMem=   104857600 cpu:               0.0 elap:               0.0
 (Enter /Applications/G16/g16/l301.exe)
 Standard basis: 6-31G(d,p) (6D, 7F)
 Ernie: Thresh=  0.10000D-02 Tol=  0.10000D-05 Strict=F.
 There are    40 symmetry adapted cartesian basis functions of A   symmetry.
 There are    40 symmetry adapted basis functions of A   symmetry.
    40 basis functions,    70 primitive gaussians,    40 cartesian basis functions
     8 alpha electrons        8 beta electrons
       nuclear repulsion energy        32.3052755286 Hartrees.
 IExCor=  402 DFT=T Ex+Corr=B3LYP ExCW=0 ScaHFX=  0.200000
 ScaDFX=  0.800000  0.720000  1.000000  0.810000 ScalE2=  1.000000  1.000000
 IRadAn=      5 IRanWt=     -1 IRanGd=            0 ICorTp=0 IEmpDi=131
 NAtoms=    4 NActive=    4 NUniq=    4 SFac= 1.00D+00 NAtFMM=   60 NAOKFM=F Big=F
 Integral buffers will be    131072 words long.
 Raffenetti 2 integral format.
 Two-electron integral symmetry is turned on.
 R6Disp:  Grimme-D3 Dispersion energy=       -0.0001429794 Hartrees.
 Nuclear repulsion after empirical dispersion term =       32.3051325493 Hartrees.
 ------------------------------------------------------------------------------
 Polarizable Continuum Model (PCM)
 =================================
 Model                : PCM.
 Atomic radii         : UFF (Universal Force Field).
 Polarization charges : Total charges.
 Charge compensation  : None.
 Solution method      : On-the-fly selection.
 Cavity type          : Scaled VdW (van der Waals Surface) (Alpha=1.100).
 Cavity algorithm     : GePol (No added spheres)
                        Default sphere list used, NSphG=    4.
                        Lebedev-Laikov grids with approx.  5.0 points / Ang**2.
                        Smoothing algorithm: York/Karplus (Gamma=1.0000).
                        Polarization charges: spherical gaussians, with
                                              point-specific exponents (IZeta= 3).
                        Self-potential: point-specific (ISelfS= 7).
                        Self-field    : sphere-specific E.n sum rule (ISelfD= 2).
 1st derivatives      : Analytical E(r).r(x)/FMM algorithm (CHGder, D1EAlg=3).
                        Cavity 1st derivative terms included.
 Solvent              : Acetonitrile, Eps=  35.688000 Eps(inf)=   1.806874
 ------------------------------------------------------------------------------
 Spheres list:
 ISph  on   Nord     Re0    Alpha      Xe            Ye            Ze
    1   N      1    1.8300  1.100      0.468092     -0.002435     -0.000515
    2   H      2    1.4430  1.100      1.042979     -0.864583      0.001276
    3   N      3    1.8300  1.100     -0.758066     -0.003250      0.000159
    4   H      4    1.4430  1.100      0.986839      0.904378      0.001214
 ------------------------------------------------------------------------------
 GePol: Number of generator spheres                  =       4
 GePol: Total number of spheres                      =       4
 GePol: Number of exposed spheres                    =       4 (100.00%)
 GePol: Number of points                             =     529
 GePol: Average weight of points                     =       0.14
 GePol: Minimum weight of points                     =   0.60D-05
 GePol: Maximum weight of points                     =    0.20212
 GePol: Number of points with low weight             =      21
 GePol: Fraction of low-weight points (<1% of avg)   =       3.97%
 GePol: Cavity surface area                          =     74.606 Ang**2
 GePol: Cavity volume                                =     56.231 Ang**3
 Leave Link  301 at Tue Jun 11 18:42:56 2019, MaxMem=   104857600 cpu:               0.1 elap:               0.1
 (Enter /Applications/G16/g16/l302.exe)
 NPDir=0 NMtPBC=     1 NCelOv=     1 NCel=       1 NClECP=     1 NCelD=      1
         NCelK=      1 NCelE2=     1 NClLst=     1 CellRange=     0.0.
 One-electron integrals computed using PRISM.
 One-electron integral symmetry used in STVInt
 NBasis=    40 RedAO= T EigKep=  6.64D-03  NBF=    40
 NBsUse=    40 1.00D-06 EigRej= -1.00D+00 NBFU=    40
 Precomputing XC quadrature grid using
 IXCGrd= 4 IRadAn=           5 IRanWt=          -1 IRanGd=           0 AccXCQ= 0.00D+00.
 Generated NRdTot=       0 NPtTot=           0 NUsed=           0 NTot=          32
 NSgBfM=    40    40    40    40    40 MxSgAt=     4 MxSgA2=     4.
 Leave Link  302 at Tue Jun 11 18:42:56 2019, MaxMem=   104857600 cpu:               0.2 elap:               0.2
 (Enter /Applications/G16/g16/l303.exe)
 DipDrv:  MaxL=1.
 Leave Link  303 at Tue Jun 11 18:42:56 2019, MaxMem=   104857600 cpu:               0.1 elap:               0.1
 (Enter /Applications/G16/g16/l401.exe)
 ExpMin= 1.61D-01 ExpMax= 4.17D+03 ExpMxC= 6.27D+02 IAcc=3 IRadAn=         5 AccDes= 0.00D+00
 Harris functional with IExCor=  402 and IRadAn=       5 diagonalized for initial guess.
 HarFok:  IExCor=  402 AccDes= 0.00D+00 IRadAn=         5 IDoV= 1 UseB2=F ITyADJ=14
 ICtDFT=  3500011 ScaDFX=  1.000000  1.000000  1.000000  1.000000
 FoFCou: FMM=F IPFlag=           0 FMFlag=      100000 FMFlg1=           0
         NFxFlg=           0 DoJE=T BraDBF=F KetDBF=T FulRan=T
         wScrn=  0.000000 ICntrl=       500 IOpCl=  0 I1Cent=   200000004 NGrid=           0
         NMat0=    1 NMatS0=      1 NMatT0=    0 NMatD0=    1 NMtDS0=    0 NMtDT0=    0
 Petite list used in FoFCou.
 Harris En= -110.596730699765    
 JPrj=0 DoOrth=F DoCkMO=T.
 Mixing orbitals, IMix= 1 IMixAn=  0 NRI=1 NE=    8 Coef=  7.07106781D-01  7.07106781D-01
 Mixing orbitals, IMix= 1 IMixAn=  0 NRI=1 NE=    8 Coef= -7.07106781D-01  7.07106781D-01
 Initial guess <Sx>= 0.0000 <Sy>= 0.0000 <Sz>= 0.0000 <S**2>= 1.0000 S= 0.6180
 Leave Link  401 at Tue Jun 11 18:42:57 2019, MaxMem=   104857600 cpu:               0.5 elap:               0.6
 (Enter /Applications/G16/g16/l502.exe)
 Keep R1 and R2 ints in memory in canonical form, NReq=2124667.
 FoFCou: FMM=F IPFlag=           0 FMFlag=           0 FMFlg1=           0
         NFxFlg=           0 DoJE=F BraDBF=F KetDBF=F FulRan=T
         wScrn=  0.000000 ICntrl=       600 IOpCl=  0 I1Cent=           0 NGrid=           0
         NMat0=    1 NMatS0=    820 NMatT0=    0 NMatD0=    1 NMtDS0=    0 NMtDT0=    0
 Symmetry not used in FoFCou.
 Two-electron integral symmetry not used.
 UHF open shell SCF:
 Using DIIS extrapolation, IDIIS=  1040.
 NGot=   104857600 LenX=   104180358 LenY=   104178317
 Requested convergence on RMS density matrix=1.00D-08 within 128 cycles.
 Requested convergence on MAX density matrix=1.00D-06.
 Requested convergence on             energy=1.00D-06.
 No special actions if energy rises.

 Cycle   1  Pass 1  IDiag  1:
 Inv3:  Mode=1 IEnd=      839523.
 Iteration    1 A*A^-1 deviation from unit magnitude is 3.11D-15 for    527.
 Iteration    1 A*A^-1 deviation from orthogonality  is 1.79D-15 for    514    266.
 Iteration    1 A^-1*A deviation from unit magnitude is 3.11D-15 for    527.
 Iteration    1 A^-1*A deviation from orthogonality  is 1.58D-15 for    508     39.
 E= -110.530661845774    
 DIIS: error= 3.03D-02 at cycle   1 NSaved=   1.
 NSaved= 1 IEnMin= 1 EnMin= -110.530661845774     IErMin= 1 ErrMin= 3.03D-02
 ErrMax= 3.03D-02  0.00D+00 EMaxC= 1.00D-01 BMatC= 1.37D-01 BMatP= 1.37D-01
 IDIUse=3 WtCom= 6.97D-01 WtEn= 3.03D-01
 Coeff-Com:  0.100D+01
 Coeff-En:   0.100D+01
 Coeff:      0.100D+01
 Gap=     0.138 Goal=   None    Shift=    0.000
 Gap=     0.138 Goal=   None    Shift=    0.000
 GapD=    0.138 DampG=1.000 DampE=0.500 DampFc=0.5000 IDamp=-1.
 Damping current iteration by 5.00D-01
 RMSDP=1.23D-02 MaxDP=1.40D-01              OVMax= 3.37D-01

 Cycle   2  Pass 1  IDiag  1:
 E= -110.563752996801     Delta-E=       -0.033091151027 Rises=F Damp=T
 DIIS: error= 1.02D-02 at cycle   2 NSaved=   2.
 NSaved= 2 IEnMin= 2 EnMin= -110.563752996801     IErMin= 2 ErrMin= 1.02D-02
 ErrMax= 1.02D-02  0.00D+00 EMaxC= 1.00D-01 BMatC= 1.64D-02 BMatP= 1.37D-01
 IDIUse=3 WtCom= 8.98D-01 WtEn= 1.02D-01
 Coeff-Com:  0.253D-01 0.975D+00
 Coeff-En:   0.000D+00 0.100D+01
 Coeff:      0.228D-01 0.977D+00
 Gap=     0.165 Goal=   None    Shift=    0.000
 Gap=     0.165 Goal=   None    Shift=    0.000
 RMSDP=6.03D-03 MaxDP=7.76D-02 DE=-3.31D-02 OVMax= 5.39D-02

 Cycle   3  Pass 1  IDiag  1:
 E= -110.606992747611     Delta-E=       -0.043239750810 Rises=F Damp=F
 DIIS: error= 5.32D-03 at cycle   3 NSaved=   3.
 NSaved= 3 IEnMin= 3 EnMin= -110.606992747611     IErMin= 3 ErrMin= 5.32D-03
 ErrMax= 5.32D-03  0.00D+00 EMaxC= 1.00D-01 BMatC= 5.22D-03 BMatP= 1.64D-02
 IDIUse=3 WtCom= 9.47D-01 WtEn= 5.32D-02
 Coeff-Com: -0.294D-01 0.296D+00 0.733D+00
 Coeff-En:   0.000D+00 0.000D+00 0.100D+01
 Coeff:     -0.279D-01 0.280D+00 0.747D+00
 Gap=     0.170 Goal=   None    Shift=    0.000
 Gap=     0.170 Goal=   None    Shift=    0.000
 RMSDP=2.49D-03 MaxDP=2.85D-02 DE=-4.32D-02 OVMax= 7.42D-02

 Cycle   4  Pass 1  IDiag  1:
 E= -110.610110403984     Delta-E=       -0.003117656373 Rises=F Damp=F
 DIIS: error= 5.63D-03 at cycle   4 NSaved=   4.
 NSaved= 4 IEnMin= 4 EnMin= -110.610110403984     IErMin= 3 ErrMin= 5.32D-03
 ErrMax= 5.63D-03  0.00D+00 EMaxC= 1.00D-01 BMatC= 6.70D-03 BMatP= 5.22D-03
 IDIUse=3 WtCom= 1.18D-01 WtEn= 8.82D-01
 Coeff-Com:  0.817D-03-0.262D-01 0.542D+00 0.483D+00
 Coeff-En:   0.000D+00 0.000D+00 0.000D+00 0.100D+01
 Coeff:      0.961D-04-0.309D-02 0.638D-01 0.939D+00
 Gap=     0.165 Goal=   None    Shift=    0.000
 Gap=     0.165 Goal=   None    Shift=    0.000
 RMSDP=2.15D-03 MaxDP=2.79D-02 DE=-3.12D-03 OVMax= 4.57D-02

 Cycle   5  Pass 1  IDiag  1:
 E= -110.610141613972     Delta-E=       -0.000031209988 Rises=F Damp=F
 DIIS: error= 7.90D-03 at cycle   5 NSaved=   5.
 NSaved= 5 IEnMin= 5 EnMin= -110.610141613972     IErMin= 3 ErrMin= 5.32D-03
 ErrMax= 7.90D-03  0.00D+00 EMaxC= 1.00D-01 BMatC= 1.41D-02 BMatP= 5.22D-03
 IDIUse=3 WtCom= 1.01D-01 WtEn= 8.99D-01
 Coeff-Com: -0.630D-02 0.270D-02-0.393D+00 0.718D+00 0.678D+00
 Coeff-En:   0.000D+00 0.000D+00 0.000D+00 0.496D+00 0.504D+00
 Coeff:     -0.637D-03 0.273D-03-0.397D-01 0.519D+00 0.521D+00
 Gap=     0.168 Goal=   None    Shift=    0.000
 Gap=     0.168 Goal=   None    Shift=    0.000
 RMSDP=1.63D-03 MaxDP=2.21D-02 DE=-3.12D-05 OVMax= 3.58D-02

 Cycle   6  Pass 1  IDiag  1:
 E= -110.613353519037     Delta-E=       -0.003211905065 Rises=F Damp=F
 DIIS: error= 3.38D-03 at cycle   6 NSaved=   6.
 NSaved= 6 IEnMin= 6 EnMin= -110.613353519037     IErMin= 6 ErrMin= 3.38D-03
 ErrMax= 3.38D-03  0.00D+00 EMaxC= 1.00D-01 BMatC= 2.49D-03 BMatP= 5.22D-03
 IDIUse=3 WtCom= 9.66D-01 WtEn= 3.38D-02
 Coeff-Com:  0.364D-01-0.492D-01 0.493D-01-0.105D+01 0.344D-01 0.198D+01
 Coeff-En:   0.000D+00 0.000D+00 0.000D+00 0.000D+00 0.418D-01 0.958D+00
 Coeff:      0.352D-01-0.475D-01 0.476D-01-0.102D+01 0.347D-01 0.195D+01
 Gap=     0.160 Goal=   None    Shift=    0.000
 Gap=     0.160 Goal=   None    Shift=    0.000
 RMSDP=2.64D-03 MaxDP=3.02D-02 DE=-3.21D-03 OVMax= 8.51D-02

 Cycle   7  Pass 1  IDiag  1:
 E= -110.615289784163     Delta-E=       -0.001936265126 Rises=F Damp=F
 DIIS: error= 7.78D-04 at cycle   7 NSaved=   7.
 NSaved= 7 IEnMin= 7 EnMin= -110.615289784163     IErMin= 7 ErrMin= 7.78D-04
 ErrMax= 7.78D-04  0.00D+00 EMaxC= 1.00D-01 BMatC= 6.81D-05 BMatP= 2.49D-03
 IDIUse=3 WtCom= 9.92D-01 WtEn= 7.78D-03
 Coeff-Com: -0.150D-01 0.377D-01 0.672D-01-0.469D-02-0.319D+00-0.646D+00
 Coeff-Com:  0.188D+01
 Coeff-En:   0.000D+00 0.000D+00 0.000D+00 0.000D+00 0.000D+00 0.000D+00
 Coeff-En:   0.100D+01
 Coeff:     -0.149D-01 0.374D-01 0.666D-01-0.466D-02-0.317D+00-0.641D+00
 Coeff:      0.187D+01
 Gap=     0.156 Goal=   None    Shift=    0.000
 Gap=     0.156 Goal=   None    Shift=    0.000
 RMSDP=2.34D-03 MaxDP=2.87D-02 DE=-1.94D-03 OVMax= 7.73D-02

 Cycle   8  Pass 1  IDiag  1:
 E= -110.615920824331     Delta-E=       -0.000631040167 Rises=F Damp=F
 DIIS: error= 3.06D-04 at cycle   8 NSaved=   8.
 NSaved= 8 IEnMin= 8 EnMin= -110.615920824331     IErMin= 8 ErrMin= 3.06D-04
 ErrMax= 3.06D-04  0.00D+00 EMaxC= 1.00D-01 BMatC= 1.80D-05 BMatP= 6.81D-05
 IDIUse=3 WtCom= 9.97D-01 WtEn= 3.06D-03
 Coeff-Com: -0.448D-02 0.175D-02 0.438D-01 0.708D-02-0.394D-01-0.212D-01
 Coeff-Com: -0.748D+00 0.176D+01
 Coeff-En:   0.000D+00 0.000D+00 0.000D+00 0.000D+00 0.000D+00 0.000D+00
 Coeff-En:   0.000D+00 0.100D+01
 Coeff:     -0.447D-02 0.175D-02 0.437D-01 0.706D-02-0.393D-01-0.211D-01
 Coeff:     -0.746D+00 0.176D+01
 Gap=     0.155 Goal=   None    Shift=    0.000
 Gap=     0.155 Goal=   None    Shift=    0.000
 RMSDP=1.75D-03 MaxDP=2.19D-02 DE=-6.31D-04 OVMax= 5.79D-02

 Cycle   9  Pass 1  IDiag  1:
 E= -110.616121475493     Delta-E=       -0.000200651163 Rises=F Damp=F
 DIIS: error= 2.37D-04 at cycle   9 NSaved=   9.
 NSaved= 9 IEnMin= 9 EnMin= -110.616121475493     IErMin= 9 ErrMin= 2.37D-04
 ErrMax= 2.37D-04  0.00D+00 EMaxC= 1.00D-01 BMatC= 1.21D-05 BMatP= 1.80D-05
 IDIUse=3 WtCom= 9.98D-01 WtEn= 2.37D-03
 Coeff-Com: -0.679D-03-0.267D-03 0.202D-01-0.514D-01-0.193D-02 0.160D+00
 Coeff-Com: -0.350D+00-0.242D+00 0.147D+01
 Coeff-En:   0.000D+00 0.000D+00 0.000D+00 0.000D+00 0.000D+00 0.000D+00
 Coeff-En:   0.000D+00 0.000D+00 0.100D+01
 Coeff:     -0.677D-03-0.267D-03 0.201D-01-0.513D-01-0.193D-02 0.159D+00
 Coeff:     -0.349D+00-0.241D+00 0.147D+01
 Gap=     0.155 Goal=   None    Shift=    0.000
 Gap=     0.155 Goal=   None    Shift=    0.000
 RMSDP=1.09D-03 MaxDP=1.36D-02 DE=-2.01D-04 OVMax= 3.59D-02

 Cycle  10  Pass 1  IDiag  1:
 E= -110.616168711366     Delta-E=       -0.000047235872 Rises=F Damp=F
 DIIS: error= 1.07D-04 at cycle  10 NSaved=  10.
 NSaved=10 IEnMin=10 EnMin= -110.616168711366     IErMin=10 ErrMin= 1.07D-04
 ErrMax= 1.07D-04  0.00D+00 EMaxC= 1.00D-01 BMatC= 2.37D-06 BMatP= 1.21D-05
 IDIUse=3 WtCom= 9.99D-01 WtEn= 1.07D-03
 Coeff-Com: -0.262D-03 0.657D-03 0.465D-02-0.110D-02-0.110D-01-0.262D-01
 Coeff-Com:  0.119D+00 0.139D+00-0.123D+01 0.200D+01
 Coeff-En:   0.000D+00 0.000D+00 0.000D+00 0.000D+00 0.000D+00 0.000D+00
 Coeff-En:   0.000D+00 0.000D+00 0.000D+00 0.100D+01
 Coeff:     -0.261D-03 0.657D-03 0.465D-02-0.110D-02-0.110D-01-0.262D-01
 Coeff:      0.119D+00 0.139D+00-0.123D+01 0.200D+01
 Gap=     0.155 Goal=   None    Shift=    0.000
 Gap=     0.155 Goal=   None    Shift=    0.000
 RMSDP=5.65D-04 MaxDP=7.07D-03 DE=-4.72D-05 OVMax= 1.87D-02

 Cycle  11  Pass 1  IDiag  1:
 E= -110.616172490954     Delta-E=       -0.000003779588 Rises=F Damp=F
 DIIS: error= 3.35D-05 at cycle  11 NSaved=  11.
 NSaved=11 IEnMin=11 EnMin= -110.616172490954     IErMin=11 ErrMin= 3.35D-05
 ErrMax= 3.35D-05  0.00D+00 EMaxC= 1.00D-01 BMatC= 2.26D-07 BMatP= 2.37D-06
 IDIUse=1 WtCom= 1.00D+00 WtEn= 0.00D+00
 Coeff-Com: -0.143D-03 0.269D-03-0.534D-03 0.360D-02-0.142D-02-0.125D-01
 Coeff-Com:  0.134D-01 0.324D-01-0.580D-02 0.122D+00 0.849D+00
 Coeff:     -0.143D-03 0.269D-03-0.534D-03 0.360D-02-0.142D-02-0.125D-01
 Coeff:      0.134D-01 0.324D-01-0.580D-02 0.122D+00 0.849D+00
 Gap=     0.155 Goal=   None    Shift=    0.000
 Gap=     0.155 Goal=   None    Shift=    0.000
 RMSDP=1.62D-04 MaxDP=2.04D-03 DE=-3.78D-06 OVMax= 5.37D-03

 Cycle  12  Pass 1  IDiag  1:
 E= -110.616172950915     Delta-E=       -0.000000459961 Rises=F Damp=F
 DIIS: error= 6.29D-06 at cycle  12 NSaved=  12.
 NSaved=12 IEnMin=12 EnMin= -110.616172950915     IErMin=12 ErrMin= 6.29D-06
 ErrMax= 6.29D-06  0.00D+00 EMaxC= 1.00D-01 BMatC= 7.98D-09 BMatP= 2.26D-07
 IDIUse=1 WtCom= 1.00D+00 WtEn= 0.00D+00
 Coeff-Com: -0.311D-04 0.569D-04-0.444D-03 0.117D-02-0.317D-03-0.391D-02
 Coeff-Com:  0.113D-02 0.702D-03 0.398D-01-0.123D-01 0.170D+00 0.804D+00
 Coeff:     -0.311D-04 0.569D-04-0.444D-03 0.117D-02-0.317D-03-0.391D-02
 Coeff:      0.113D-02 0.702D-03 0.398D-01-0.123D-01 0.170D+00 0.804D+00
 Gap=     0.155 Goal=   None    Shift=    0.000
 Gap=     0.155 Goal=   None    Shift=    0.000
 RMSDP=6.73D-06 MaxDP=8.34D-05 DE=-4.60D-07 OVMax= 2.20D-04

 Cycle  13  Pass 1  IDiag  1:
 E= -110.616172945208     Delta-E=        0.000000005707 Rises=F Damp=F
 DIIS: error= 3.93D-06 at cycle  13 NSaved=  13.
 NSaved=13 IEnMin=12 EnMin= -110.616172950915     IErMin=13 ErrMin= 3.93D-06
 ErrMax= 3.93D-06  0.00D+00 EMaxC= 1.00D-01 BMatC= 3.22D-09 BMatP= 7.98D-09
 IDIUse=1 WtCom= 1.00D+00 WtEn= 0.00D+00
 Coeff-Com:  0.268D-05-0.838D-05-0.143D-04 0.689D-04-0.101D-03-0.481D-03
 Coeff-Com:  0.144D-06 0.148D-02-0.121D-01 0.406D-02 0.283D-01 0.114D+00
 Coeff-Com:  0.864D+00
 Coeff:      0.268D-05-0.838D-05-0.143D-04 0.689D-04-0.101D-03-0.481D-03
 Coeff:      0.144D-06 0.148D-02-0.121D-01 0.406D-02 0.283D-01 0.114D+00
 Coeff:      0.864D+00
 Gap=     0.155 Goal=   None    Shift=    0.000
 Gap=     0.155 Goal=   None    Shift=    0.000
 RMSDP=2.16D-05 MaxDP=2.71D-04 DE= 5.71D-09 OVMax= 7.14D-04

 Cycle  14  Pass 1  IDiag  1:
 E= -110.616172960614     Delta-E=       -0.000000015406 Rises=F Damp=F
 DIIS: error= 1.87D-06 at cycle  14 NSaved=  14.
 NSaved=14 IEnMin=14 EnMin= -110.616172960614     IErMin=14 ErrMin= 1.87D-06
 ErrMax= 1.87D-06  0.00D+00 EMaxC= 1.00D-01 BMatC= 6.61D-10 BMatP= 3.22D-09
 IDIUse=1 WtCom= 1.00D+00 WtEn= 0.00D+00
 Coeff-Com:  0.413D-06-0.283D-05-0.195D-05 0.330D-04 0.189D-04-0.192D-04
 Coeff-Com: -0.335D-03 0.923D-03-0.169D-02-0.371D-02 0.207D-01 0.526D-01
 Coeff-Com: -0.209D-01 0.952D+00
 Coeff:      0.413D-06-0.283D-05-0.195D-05 0.330D-04 0.189D-04-0.192D-04
 Coeff:     -0.335D-03 0.923D-03-0.169D-02-0.371D-02 0.207D-01 0.526D-01
 Coeff:     -0.209D-01 0.952D+00
 Gap=     0.155 Goal=   None    Shift=    0.000
 Gap=     0.155 Goal=   None    Shift=    0.000
 RMSDP=5.38D-06 MaxDP=6.74D-05 DE=-1.54D-08 OVMax= 1.78D-04

 Cycle  15  Pass 1  IDiag  1:
 E= -110.616172961403     Delta-E=       -0.000000000789 Rises=F Damp=F
 DIIS: error= 7.27D-08 at cycle  15 NSaved=  15.
 NSaved=15 IEnMin=15 EnMin= -110.616172961403     IErMin=15 ErrMin= 7.27D-08
 ErrMax= 7.27D-08  0.00D+00 EMaxC= 1.00D-01 BMatC= 9.58D-13 BMatP= 6.61D-10
 IDIUse=1 WtCom= 1.00D+00 WtEn= 0.00D+00
 Coeff-Com: -0.169D-06-0.854D-07-0.456D-05 0.948D-05 0.152D-04 0.193D-04
 Coeff-Com: -0.131D-03 0.214D-04 0.143D-02-0.201D-02 0.312D-02 0.124D-01
 Coeff-Com: -0.757D-01 0.180D+00 0.880D+00
 Coeff:     -0.169D-06-0.854D-07-0.456D-05 0.948D-05 0.152D-04 0.193D-04
 Coeff:     -0.131D-03 0.214D-04 0.143D-02-0.201D-02 0.312D-02 0.124D-01
 Coeff:     -0.757D-01 0.180D+00 0.880D+00
 Gap=     0.155 Goal=   None    Shift=    0.000
 Gap=     0.155 Goal=   None    Shift=    0.000
 RMSDP=2.79D-07 MaxDP=3.50D-06 DE=-7.89D-10 OVMax= 9.23D-06

 Cycle  16  Pass 1  IDiag  1:
 E= -110.616172961404     Delta-E=       -0.000000000001 Rises=F Damp=F
 DIIS: error= 7.30D-08 at cycle  16 NSaved=  16.
 NSaved=16 IEnMin=16 EnMin= -110.616172961404     IErMin=15 ErrMin= 7.27D-08
 ErrMax= 7.30D-08  0.00D+00 EMaxC= 1.00D-01 BMatC= 1.00D-12 BMatP= 9.58D-13
 IDIUse=1 WtCom= 1.00D+00 WtEn= 0.00D+00
 Coeff-Com:  0.666D-07-0.106D-06 0.348D-06-0.253D-05-0.473D-06 0.380D-05
 Coeff-Com:  0.310D-05-0.430D-04-0.193D-04 0.124D-03-0.107D-02-0.282D-02
 Coeff-Com:  0.372D-02 0.157D-03 0.277D-01 0.972D+00
 Coeff:      0.666D-07-0.106D-06 0.348D-06-0.253D-05-0.473D-06 0.380D-05
 Coeff:      0.310D-05-0.430D-04-0.193D-04 0.124D-03-0.107D-02-0.282D-02
 Coeff:      0.372D-02 0.157D-03 0.277D-01 0.972D+00
 Gap=     0.155 Goal=   None    Shift=    0.000
 Gap=     0.155 Goal=   None    Shift=    0.000
 RMSDP=1.08D-07 MaxDP=1.35D-06 DE=-7.11D-13 OVMax= 3.55D-06

 Cycle  17  Pass 1  IDiag  1:
 E= -110.616172961405     Delta-E=       -0.000000000000 Rises=F Damp=F
 DIIS: error= 1.63D-08 at cycle  17 NSaved=  17.
 NSaved=17 IEnMin=17 EnMin= -110.616172961405     IErMin=17 ErrMin= 1.63D-08
 ErrMax= 1.63D-08  0.00D+00 EMaxC= 1.00D-01 BMatC= 4.92D-14 BMatP= 9.58D-13
 IDIUse=1 WtCom= 1.00D+00 WtEn= 0.00D+00
 Large coefficients: NSaved= 17 BigCof=    0.00 CofMax=   10.00 Det=-4.06D-16
 Inversion failed.  Reducing to 16 matrices.
 Large coefficients: NSaved= 16 BigCof=    0.00 CofMax=   10.00 Det=-4.61D-16
 Inversion failed.  Reducing to 15 matrices.
 Coeff-Com:  0.162D-06-0.111D-06-0.135D-06 0.100D-06 0.253D-05 0.452D-05
 Coeff-Com: -0.404D-04 0.434D-04-0.137D-04-0.175D-03 0.155D-02-0.116D-01
 Coeff-Com: -0.359D-01-0.350D-01 0.108D+01
 Coeff:      0.162D-06-0.111D-06-0.135D-06 0.100D-06 0.253D-05 0.452D-05
 Coeff:     -0.404D-04 0.434D-04-0.137D-04-0.175D-03 0.155D-02-0.116D-01
 Coeff:     -0.359D-01-0.350D-01 0.108D+01
 Gap=     0.155 Goal=   None    Shift=    0.000
 Gap=     0.155 Goal=   None    Shift=    0.000
 RMSDP=3.92D-08 MaxDP=4.91D-07 DE=-3.98D-13 OVMax= 1.29D-06

 Cycle  18  Pass 1  IDiag  1:
 E= -110.616172961405     Delta-E=       -0.000000000000 Rises=F Damp=F
 DIIS: error= 2.12D-09 at cycle  18 NSaved=  16.
 NSaved=16 IEnMin=16 EnMin= -110.616172961405     IErMin=16 ErrMin= 2.12D-09
 ErrMax= 2.12D-09  0.00D+00 EMaxC= 1.00D-01 BMatC= 8.68D-16 BMatP= 4.92D-14
 IDIUse=1 WtCom= 1.00D+00 WtEn= 0.00D+00
 Large coefficients: NSaved= 16 BigCof=    0.00 CofMax=   10.00 Det=-2.98D-17
 Inversion failed.  Reducing to 15 matrices.
 Coeff-Com:  0.110D-06-0.584D-07-0.333D-06-0.399D-06 0.433D-05 0.103D-05
 Coeff-Com: -0.126D-04 0.108D-03 0.332D-03 0.928D-04 0.295D-02 0.185D-02
 Coeff-Com: -0.110D+00-0.314D+00 0.142D+01
 Coeff:      0.110D-06-0.584D-07-0.333D-06-0.399D-06 0.433D-05 0.103D-05
 Coeff:     -0.126D-04 0.108D-03 0.332D-03 0.928D-04 0.295D-02 0.185D-02
 Coeff:     -0.110D+00-0.314D+00 0.142D+01
 Gap=     0.155 Goal=   None    Shift=    0.000
 Gap=     0.155 Goal=   None    Shift=    0.000
 RMSDP=1.22D-08 MaxDP=1.53D-07 DE=-2.84D-13 OVMax= 4.02D-07

 Cycle  19  Pass 1  IDiag  1:
 E= -110.616172961405     Delta-E=        0.000000000000 Rises=F Damp=F
 DIIS: error= 8.54D-10 at cycle  19 NSaved=  16.
 NSaved=16 IEnMin=15 EnMin= -110.616172961405     IErMin=16 ErrMin= 8.54D-10
 ErrMax= 8.54D-10  0.00D+00 EMaxC= 1.00D-01 BMatC= 1.32D-16 BMatP= 8.68D-16
 IDIUse=1 WtCom= 1.00D+00 WtEn= 0.00D+00
 Large coefficients: NSaved= 16 BigCof=    0.00 CofMax=   10.00 Det=-2.12D-18
 Inversion failed.  Reducing to 15 matrices.
 Coeff-Com:  0.107D-07 0.871D-08-0.473D-07-0.303D-06-0.155D-05 0.261D-06
 Coeff-Com: -0.770D-05-0.383D-04-0.115D-03 0.101D-02 0.204D-02 0.360D-02
 Coeff-Com: -0.457D-01-0.131D+00 0.117D+01
 Coeff:      0.107D-07 0.871D-08-0.473D-07-0.303D-06-0.155D-05 0.261D-06
 Coeff:     -0.770D-05-0.383D-04-0.115D-03 0.101D-02 0.204D-02 0.360D-02
 Coeff:     -0.457D-01-0.131D+00 0.117D+01
 Gap=     0.155 Goal=   None    Shift=    0.000
 Gap=     0.155 Goal=   None    Shift=    0.000
 RMSDP=1.30D-10 MaxDP=2.06D-09 DE= 1.71D-13 OVMax= 3.33D-09

 Error on total polarization charges =  0.00292
 SCF Done:  E(UB3LYP) =  -110.616172961     A.U. after   19 cycles
            NFock= 19  Conv=0.13D-09     -V/T= 2.0095
 <Sx>= 0.0000 <Sy>= 0.0000 <Sz>= 0.0000 <S**2>= 0.0000 S= 0.0000
 <L.S>= 0.000000000000E+00
 KE= 1.095803263042D+02 PE=-3.229472691072D+02 EE= 7.044563729239D+01
 Annihilation of the first spin contaminant:
 S**2 before annihilation     0.0000,   after    -0.0000
 Leave Link  502 at Tue Jun 11 18:43:10 2019, MaxMem=   104857600 cpu:              12.6 elap:              13.0
 (Enter /Applications/G16/g16/l601.exe)
 Copying SCF densities to generalized density rwf, IOpCl= 1 IROHF=0.

 **********************************************************************

            Population analysis using the SCF density.

 **********************************************************************

 Orbital symmetries:
 Alpha Orbitals:
       Occupied  (A) (A) (A) (A) (A) (A) (A) (A)
       Virtual   (A) (A) (A) (A) (A) (A) (A) (A) (A) (A) (A) (A)
                 (A) (A) (A) (A) (A) (A) (A) (A) (A) (A) (A) (A)
                 (A) (A) (A) (A) (A) (A) (A) (A)
 Beta  Orbitals:
       Occupied  (A) (A) (A) (A) (A) (A) (A) (A)
       Virtual   (A) (A) (A) (A) (A) (A) (A) (A) (A) (A) (A) (A)
                 (A) (A) (A) (A) (A) (A) (A) (A) (A) (A) (A) (A)
                 (A) (A) (A) (A) (A) (A) (A) (A)
 The electronic state is 1-A.
 Alpha  occ. eigenvalues --  -14.44041 -14.33295  -1.02434  -0.69998  -0.55774
 Alpha  occ. eigenvalues --   -0.39937  -0.38859  -0.19127
 Alpha virt. eigenvalues --   -0.03658   0.06981   0.14462   0.34874   0.62116
 Alpha virt. eigenvalues --    0.63623   0.69245   0.71593   0.72399   0.76635
 Alpha virt. eigenvalues --    0.79097   0.90615   0.92409   1.19490   1.36064
 Alpha virt. eigenvalues --    1.44231   1.68596   1.78484   1.90936   2.04308
 Alpha virt. eigenvalues --    2.07430   2.20740   2.27277   2.58236   2.61142
 Alpha virt. eigenvalues --    2.65466   2.70299   2.92853   3.22722   3.43760
 Alpha virt. eigenvalues --    3.46001   3.94350
  Beta  occ. eigenvalues --  -14.44041 -14.33295  -1.02434  -0.69998  -0.55774
  Beta  occ. eigenvalues --   -0.39937  -0.38859  -0.19127
  Beta virt. eigenvalues --   -0.03658   0.06981   0.14462   0.34874   0.62116
  Beta virt. eigenvalues --    0.63623   0.69245   0.71593   0.72399   0.76635
  Beta virt. eigenvalues --    0.79097   0.90615   0.92409   1.19490   1.36064
  Beta virt. eigenvalues --    1.44231   1.68596   1.78484   1.90936   2.04308
  Beta virt. eigenvalues --    2.07430   2.20740   2.27277   2.58236   2.61142
  Beta virt. eigenvalues --    2.65466   2.70299   2.92853   3.22722   3.43760
  Beta virt. eigenvalues --    3.46001   3.94350
          Condensed to atoms (all electrons):
               1          2          3          4
     1  N    6.177758   0.320196   0.382429   0.324024
     2  H    0.320196   0.530098  -0.063237  -0.072191
     3  N    0.382429  -0.063237   7.115181  -0.071253
     4  H    0.324024  -0.072191  -0.071253   0.537026
          Atomic-Atomic Spin Densities.
               1          2          3          4
     1  N   -0.000000   0.000000   0.000000  -0.000000
     2  H    0.000000  -0.000000   0.000000  -0.000000
     3  N    0.000000   0.000000   0.000000  -0.000000
     4  H   -0.000000  -0.000000  -0.000000   0.000000
 Mulliken charges and spin densities:
               1          2
     1  N   -0.204407  -0.000000
     2  H    0.285133  -0.000000
     3  N   -0.363121   0.000000
     4  H    0.282395   0.000000
 Sum of Mulliken charges =   0.00000   0.00000
 Mulliken charges and spin densities with hydrogens summed into heavy atoms:
               1          2
     1  N    0.363121  -0.000000
     3  N   -0.363121   0.000000
 Electronic spatial extent (au):  <R**2>=             58.7746
 Charge=              0.0000 electrons
 Dipole moment (field-independent basis, Debye):
    X=              4.1317    Y=              0.0360    Z=              0.0040  Tot=              4.1318
 Quadrupole moment (field-independent basis, Debye-Ang):
   XX=            -12.2097   YY=            -10.9402   ZZ=            -11.7932
   XY=             -0.0769   XZ=              0.0048   YZ=              0.0001
 Traceless Quadrupole moment (field-independent basis, Debye-Ang):
   XX=             -0.5620   YY=              0.7075   ZZ=             -0.1455
   XY=             -0.0769   XZ=              0.0048   YZ=              0.0001
 Octapole moment (field-independent basis, Debye-Ang**2):
  XXX=              7.8109  YYY=              0.1544  ZZZ=              0.0029  XYY=              4.0194
  XXY=             -0.1131  XXZ=              0.0044  XZZ=              0.3957  YZZ=             -0.0006
  YYZ=              0.0038  XYZ=             -0.0002
 Hexadecapole moment (field-independent basis, Debye-Ang**3):
 XXXX=            -45.1897 YYYY=            -14.4623 ZZZZ=             -9.6123 XXXY=             -0.3035
 XXXZ=              0.0075 YYYX=             -0.0260 YYYZ=              0.0002 ZZZX=              0.0022
 ZZZY=              0.0001 XXYY=             -9.2407 XXZZ=             -8.9423 YYZZ=             -4.3936
 XXYZ=             -0.0001 YYXZ=              0.0044 ZZXY=             -0.0217
 N-N= 3.230513254926D+01 E-N=-3.229472691314D+02  KE= 1.095803263042D+02
                          Isotropic Fermi Contact Couplings
        Atom                 a.u.       MegaHertz       Gauss      10(-4) cm-1
     1  N(14)             -0.00000      -0.00000      -0.00000      -0.00000
     2  H(1)              -0.00000      -0.00000      -0.00000      -0.00000
     3  N(14)              0.00000       0.00000       0.00000       0.00000
     4  H(1)               0.00000       0.00000       0.00000       0.00000
 --------------------------------------------------------
       Center         ----  Spin Dipole Couplings  ----
                      3XX-RR        3YY-RR        3ZZ-RR
 --------------------------------------------------------
     1   Atom        0.000000      0.000000     -0.000000
     2   Atom        0.000000     -0.000000      0.000000
     3   Atom       -0.000000     -0.000000      0.000000
     4   Atom        0.000000     -0.000000      0.000000
 --------------------------------------------------------
                        XY            XZ            YZ
 --------------------------------------------------------
     1   Atom       -0.000000      0.000000      0.000000
     2   Atom        0.000000      0.000000     -0.000000
     3   Atom       -0.000000      0.000000      0.000000
     4   Atom       -0.000000     -0.000000     -0.000000
 --------------------------------------------------------


 ---------------------------------------------------------------------------------
              Anisotropic Spin Dipole Couplings in Principal Axis System
 ---------------------------------------------------------------------------------

       Atom             a.u.   MegaHertz   Gauss  10(-4) cm-1        Axes

              Baa    -0.0000    -0.000    -0.000    -0.000 -0.0599 -0.6661  0.7434
     1 N(14)  Bbb     0.0000     0.000     0.000     0.000  0.9980 -0.0253  0.0577
              Bcc     0.0000     0.000     0.000     0.000 -0.0196  0.7454  0.6663
 
              Baa    -0.0000    -0.000    -0.000    -0.000 -0.3270  0.6305  0.7040
     2 H(1)   Bbb     0.0000     0.000     0.000     0.000  0.8883  0.4593  0.0014
              Bcc     0.0000     0.000     0.000     0.000  0.3225 -0.6258  0.7102
 
              Baa    -0.0000    -0.000    -0.000    -0.000  0.0132  0.7083 -0.7058
     3 N(14)  Bbb    -0.0000    -0.000    -0.000    -0.000  0.9999 -0.0171  0.0015
              Bcc     0.0000     0.000     0.000     0.000  0.0110  0.7057  0.7084
 
              Baa    -0.0000    -0.000    -0.000    -0.000  0.2587  0.6739  0.6920
     4 H(1)   Bbb     0.0000     0.000     0.000     0.000  0.9358 -0.3526 -0.0064
              Bcc     0.0000     0.000     0.000     0.000 -0.2396 -0.6492  0.7219
 

 ---------------------------------------------------------------------------------

 No NMR shielding tensors so no spin-rotation constants.
 Leave Link  601 at Tue Jun 11 18:43:10 2019, MaxMem=   104857600 cpu:               0.2 elap:               0.2
 (Enter /Applications/G16/g16/l701.exe)
 ... and contract with generalized density number  0.
 Compute integral first derivatives.
 R6Disp: Adding Grimme-D3 dispersion energy 1st derivatives to the gradient.
 D1PCM: PCM CHGder 1st derivatives, ID1Alg=3 FixD1E=F DoIter=F DoCFld=F I1PDM=0.
 GePol: Maximum number of non-zero 1st derivatives   =     263
 Leave Link  701 at Tue Jun 11 18:43:11 2019, MaxMem=   104857600 cpu:               0.5 elap:               0.6
 (Enter /Applications/G16/g16/l702.exe)
 L702 exits ... SP integral derivatives will be done elsewhere.
 Leave Link  702 at Tue Jun 11 18:43:11 2019, MaxMem=   104857600 cpu:               0.0 elap:               0.0
 (Enter /Applications/G16/g16/l703.exe)
 Integral derivatives from FoFJK, PRISM(SPDF).
 Compute integral first derivatives, UseDBF=F ICtDFT=           0.
 Calling FoFJK, ICntrl=      2127 FMM=F ISym2X=0 I1Cent= 0 IOpClX= 1 NMat=1 NMatS=1 NMatT=0.
 FoFJK:  IHMeth= 1 ICntrl=    2127 DoSepK=F KAlg= 0 I1Cent=           0 FoldK=F
 IRaf=         0 NMat=       1 IRICut=       1 DoRegI=T DoRafI=F ISym2E= 0 IDoP0=0 IntGTp=1.
 FoFCou: FMM=F IPFlag=           0 FMFlag=      100000 FMFlg1=         800
         NFxFlg=           0 DoJE=F BraDBF=F KetDBF=F FulRan=T
         wScrn=  0.000000 ICntrl=      2127 IOpCl=  1 I1Cent=           0 NGrid=           0
         NMat0=    1 NMatS0=      1 NMatT0=    0 NMatD0=    1 NMtDS0=    0 NMtDT0=    0
 Symmetry not used in FoFCou.
 Leave Link  703 at Tue Jun 11 18:43:13 2019, MaxMem=   104857600 cpu:               1.3 elap:               1.4
 (Enter /Applications/G16/g16/l716.exe)
 Dipole        = 1.62552874D+00 1.41801109D-02 1.57645243D-03
 ***** Axes restored to original set *****
 -------------------------------------------------------------------
 Center     Atomic                   Forces (Hartrees/Bohr)
 Number     Number              X              Y              Z
 -------------------------------------------------------------------
      1        7          -0.017366731   -0.011931529    0.002697810
      2        1           0.001215807    0.004466104   -0.003841922
      3        7           0.005498947    0.000811338    0.002022442
      4        1           0.010651977    0.006654087   -0.000878329
 -------------------------------------------------------------------
 Cartesian Forces:  Max     0.017366731 RMS     0.007532858
 Leave Link  716 at Tue Jun 11 18:43:13 2019, MaxMem=   104857600 cpu:               0.0 elap:               0.1
 (Enter /Applications/G16/g16/l103.exe)

 GradGradGradGradGradGradGradGradGradGradGradGradGradGradGradGradGradGrad
 Berny optimization.
 FormGI is forming the generalized inverse of G from B-inverse, IUseBI=4.
 Internal  Forces:  Max     0.012465769 RMS     0.006637485
 Search for a local minimum.
 Step number   1 out of a maximum of   20
 All quantities printed in internal units (Hartrees-Bohrs-Radians)
 RMS Force = .66375D-02 SwitMx=.10000D-02 MixMth= 1
 Mixed Optimization -- RFO/linear search
 Second derivative matrix not updated -- first step.
 The second derivative matrix:
                          R1        R2        R3        A1        A2
           R1           0.41845
           R2           0.00000   0.92706
           R3           0.00000   0.00000   0.40619
           A1           0.00000   0.00000   0.00000   0.16000
           A2           0.00000   0.00000   0.00000   0.00000   0.16000
           A3           0.00000   0.00000   0.00000   0.00000   0.00000
           D1           0.00000   0.00000   0.00000   0.00000   0.00000
                          A3        D1
           A3           0.16000
           D1           0.00000   0.00437
 ITU=  0
     Eigenvalues ---    0.00437   0.16000   0.16000   0.40619   0.41845
     Eigenvalues ---    0.92706
 RFO step:  Lambda=-1.83676380D-03 EMin= 4.37086660D-03
 Linear search not attempted -- first point.
 Iteration  1 RMS(Cart)=  0.03685132 RMS(Int)=  0.00112419
 Iteration  2 RMS(Cart)=  0.00104532 RMS(Int)=  0.00010862
 Iteration  3 RMS(Cart)=  0.00000004 RMS(Int)=  0.00010862
 ITry= 1 IFail=0 DXMaxC= 4.92D-02 DCOld= 1.00D+10 DXMaxT= 3.00D-01 DXLimC= 3.00D+00 Rises=F
 Variable       Old X    -DE/DX   Delta X   Delta X   Delta X     New X
                                 (Linear)    (Quad)   (Total)
    R1        1.95821   0.00266   0.00000   0.00633   0.00633   1.96454
    R2        2.31710  -0.00118   0.00000  -0.00127  -0.00127   2.31584
    R3        1.97421  -0.00333   0.00000  -0.00816  -0.00816   1.96605
    A1        2.15823  -0.00095   0.00000  -0.00585  -0.00602   2.15221
    A2        2.03387  -0.01151   0.00000  -0.07108  -0.07125   1.96262
    A3        2.09108   0.01247   0.00000   0.07707   0.07690   2.16798
    D1       -3.13725  -0.00020   0.00000  -0.03291  -0.03291   3.11303
         Item               Value     Threshold  Converged?
 Maximum Force            0.012466     0.000450     NO 
 RMS     Force            0.006637     0.000300     NO 
 Maximum Displacement     0.049183     0.001800     NO 
 RMS     Displacement     0.036782     0.001200     NO 
 Predicted change in Energy=-9.295976D-04
 Lowest energy point so far.  Saving SCF results.
 GradGradGradGradGradGradGradGradGradGradGradGradGradGradGradGradGradGrad

 Leave Link  103 at Tue Jun 11 18:43:13 2019, MaxMem=   104857600 cpu:               0.0 elap:               0.0
 (Enter /Applications/G16/g16/l202.exe)
                          Input orientation:                          
 ---------------------------------------------------------------------
 Center     Atomic      Atomic             Coordinates (Angstroms)
 Number     Number       Type             X           Y           Z
 ---------------------------------------------------------------------
      1          7           0        4.031862   -1.230014    0.562191
      2          1           0        4.970414   -0.787552    0.626190
      3          7           0        3.679456   -2.166243    1.270079
      4          1           0        3.443168   -0.806820   -0.183969
 ---------------------------------------------------------------------
                    Distance matrix (angstroms):
                    1          2          3          4
     1  N    0.000000
     2  H    1.039590   0.000000
     3  N    1.225488   1.995483   0.000000
     4  H    1.040388   1.728933   2.004524   0.000000
 Stoichiometry    H2N2
 Framework group  C1[X(H2N2)]
 Deg. of freedom     6
 Full point group                 C1      NOp   1
 RotChk:  IX=1 Diff= 3.74D-02
 Largest Abelian subgroup         C1      NOp   1
 Largest concise Abelian subgroup C1      NOp   1
                         Standard orientation:                         
 ---------------------------------------------------------------------
 Center     Atomic      Atomic             Coordinates (Angstroms)
 Number     Number       Type             X           Y           Z
 ---------------------------------------------------------------------
      1          7           0        0.463893    0.000279    0.003413
      2          1           0        1.034421   -0.868694   -0.008077
      3          7           0       -0.761586    0.000938   -0.001094
      4          1           0        1.049430    0.860174   -0.008157
 ---------------------------------------------------------------------
 Rotational constants (GHZ):         335.4627148          38.3400213          34.4088908
 Leave Link  202 at Tue Jun 11 18:43:13 2019, MaxMem=   104857600 cpu:               0.0 elap:               0.0
 (Enter /Applications/G16/g16/l301.exe)
 Standard basis: 6-31G(d,p) (6D, 7F)
 Ernie: Thresh=  0.10000D-02 Tol=  0.10000D-05 Strict=F.
 There are    40 symmetry adapted cartesian basis functions of A   symmetry.
 There are    40 symmetry adapted basis functions of A   symmetry.
    40 basis functions,    70 primitive gaussians,    40 cartesian basis functions
     8 alpha electrons        8 beta electrons
       nuclear repulsion energy        32.2926039708 Hartrees.
 IExCor=  402 DFT=T Ex+Corr=B3LYP ExCW=0 ScaHFX=  0.200000
 ScaDFX=  0.800000  0.720000  1.000000  0.810000 ScalE2=  1.000000  1.000000
 IRadAn=      5 IRanWt=     -1 IRanGd=            0 ICorTp=0 IEmpDi=131
 NAtoms=    4 NActive=    4 NUniq=    4 SFac= 1.00D+00 NAtFMM=   60 NAOKFM=F Big=F
 Integral buffers will be    131072 words long.
 Raffenetti 2 integral format.
 Two-electron integral symmetry is turned on.
 R6Disp:  Grimme-D3 Dispersion energy=       -0.0001475040 Hartrees.
 Nuclear repulsion after empirical dispersion term =       32.2924564668 Hartrees.
 ------------------------------------------------------------------------------
 Polarizable Continuum Model (PCM)
 =================================
 Model                : PCM.
 Atomic radii         : UFF (Universal Force Field).
 Polarization charges : Total charges.
 Charge compensation  : None.
 Solution method      : On-the-fly selection.
 Cavity type          : Scaled VdW (van der Waals Surface) (Alpha=1.100).
 Cavity algorithm     : GePol (No added spheres)
                        Default sphere list used, NSphG=    4.
                        Lebedev-Laikov grids with approx.  5.0 points / Ang**2.
                        Smoothing algorithm: York/Karplus (Gamma=1.0000).
                        Polarization charges: spherical gaussians, with
                                              point-specific exponents (IZeta= 3).
                        Self-potential: point-specific (ISelfS= 7).
                        Self-field    : sphere-specific E.n sum rule (ISelfD= 2).
 1st derivatives      : Analytical E(r).r(x)/FMM algorithm (CHGder, D1EAlg=3).
                        Cavity 1st derivative terms included.
 Solvent              : Acetonitrile, Eps=  35.688000 Eps(inf)=   1.806874
 ------------------------------------------------------------------------------
 Spheres list:
 ISph  on   Nord     Re0    Alpha      Xe            Ye            Ze
    1   N      1    1.8300  1.100      0.463893      0.000279      0.003413
    2   H      2    1.4430  1.100      1.034421     -0.868694     -0.008077
    3   N      3    1.8300  1.100     -0.761586      0.000938     -0.001094
    4   H      4    1.4430  1.100      1.049430      0.860174     -0.008157
 ------------------------------------------------------------------------------
 GePol: Number of generator spheres                  =       4
 GePol: Total number of spheres                      =       4
 GePol: Number of exposed spheres                    =       4 (100.00%)
 GePol: Number of points                             =     528
 GePol: Average weight of points                     =       0.14
 GePol: Minimum weight of points                     =   0.17D-07
 GePol: Maximum weight of points                     =    0.20212
 GePol: Number of points with low weight             =      16
 GePol: Fraction of low-weight points (<1% of avg)   =       3.03%
 GePol: Cavity surface area                          =     74.458 Ang**2
 GePol: Cavity volume                                =     56.113 Ang**3
 Leave Link  301 at Tue Jun 11 18:43:13 2019, MaxMem=   104857600 cpu:               0.1 elap:               0.1
 (Enter /Applications/G16/g16/l302.exe)
 NPDir=0 NMtPBC=     1 NCelOv=     1 NCel=       1 NClECP=     1 NCelD=      1
         NCelK=      1 NCelE2=     1 NClLst=     1 CellRange=     0.0.
 One-electron integrals computed using PRISM.
 One-electron integral symmetry used in STVInt
 NBasis=    40 RedAO= T EigKep=  6.66D-03  NBF=    40
 NBsUse=    40 1.00D-06 EigRej= -1.00D+00 NBFU=    40
 Precomputing XC quadrature grid using
 IXCGrd= 4 IRadAn=           5 IRanWt=          -1 IRanGd=           0 AccXCQ= 0.00D+00.
 Generated NRdTot=       0 NPtTot=           0 NUsed=           0 NTot=          32
 NSgBfM=    40    40    40    40    40 MxSgAt=     4 MxSgA2=     4.
 Leave Link  302 at Tue Jun 11 18:43:13 2019, MaxMem=   104857600 cpu:               0.1 elap:               0.1
 (Enter /Applications/G16/g16/l303.exe)
 DipDrv:  MaxL=1.
 Leave Link  303 at Tue Jun 11 18:43:13 2019, MaxMem=   104857600 cpu:               0.0 elap:               0.0
 (Enter /Applications/G16/g16/l401.exe)
 ExpMin= 1.61D-01 ExpMax= 4.17D+03 ExpMxC= 6.27D+02 IAcc=3 IRadAn=         5 AccDes= 0.00D+00
 Harris functional with IExCor=  402 and IRadAn=       5 diagonalized for initial guess.
 HarFok:  IExCor=  402 AccDes= 0.00D+00 IRadAn=         5 IDoV= 1 UseB2=F ITyADJ=14
 ICtDFT=  3500011 ScaDFX=  1.000000  1.000000  1.000000  1.000000
 FoFCou: FMM=F IPFlag=           0 FMFlag=      100000 FMFlg1=           0
         NFxFlg=           0 DoJE=T BraDBF=F KetDBF=T FulRan=T
         wScrn=  0.000000 ICntrl=       500 IOpCl=  0 I1Cent=   200000004 NGrid=           0
         NMat0=    1 NMatS0=      1 NMatT0=    0 NMatD0=    1 NMtDS0=    0 NMtDT0=    0
 Petite list used in FoFCou.
 Harris En= -110.597118028392    
 JPrj=0 DoOrth=F DoCkMO=T.
 Mixing orbitals, IMix= 1 IMixAn=  0 NRI=1 NE=    8 Coef=  7.07106781D-01  7.07106781D-01
 Mixing orbitals, IMix= 1 IMixAn=  0 NRI=1 NE=    8 Coef= -7.07106781D-01  7.07106781D-01
 Initial guess <Sx>= 0.0000 <Sy>= 0.0000 <Sz>= 0.0000 <S**2>= 1.0000 S= 0.6180
 Leave Link  401 at Tue Jun 11 18:43:13 2019, MaxMem=   104857600 cpu:               0.5 elap:               0.5
 (Enter /Applications/G16/g16/l502.exe)
 Keep R1 and R2 ints in memory in canonical form, NReq=2124596.
 FoFCou: FMM=F IPFlag=           0 FMFlag=           0 FMFlg1=           0
         NFxFlg=           0 DoJE=F BraDBF=F KetDBF=F FulRan=T
         wScrn=  0.000000 ICntrl=       600 IOpCl=  0 I1Cent=           0 NGrid=           0
         NMat0=    1 NMatS0=    820 NMatT0=    0 NMatD0=    1 NMtDS0=    0 NMtDT0=    0
 Symmetry not used in FoFCou.
 Two-electron integral symmetry not used.
 UHF open shell SCF:
 Using DIIS extrapolation, IDIIS=  1040.
 NGot=   104857600 LenX=   104180358 LenY=   104178317
 Requested convergence on RMS density matrix=1.00D-08 within 128 cycles.
 Requested convergence on MAX density matrix=1.00D-06.
 Requested convergence on             energy=1.00D-06.
 No special actions if energy rises.

 Cycle   1  Pass 1  IDiag  1:
 Inv3:  Mode=1 IEnd=      836352.
 Iteration    1 A*A^-1 deviation from unit magnitude is 3.55D-15 for    506.
 Iteration    1 A*A^-1 deviation from orthogonality  is 2.04D-15 for    436     36.
 Iteration    1 A^-1*A deviation from unit magnitude is 3.11D-15 for    506.
 Iteration    1 A^-1*A deviation from orthogonality  is 7.22D-16 for    528    404.
 E= -110.530850700608    
 DIIS: error= 3.02D-02 at cycle   1 NSaved=   1.
 NSaved= 1 IEnMin= 1 EnMin= -110.530850700608     IErMin= 1 ErrMin= 3.02D-02
 ErrMax= 3.02D-02  0.00D+00 EMaxC= 1.00D-01 BMatC= 1.36D-01 BMatP= 1.36D-01
 IDIUse=3 WtCom= 6.98D-01 WtEn= 3.02D-01
 Coeff-Com:  0.100D+01
 Coeff-En:   0.100D+01
 Coeff:      0.100D+01
 Gap=     0.138 Goal=   None    Shift=    0.000
 Gap=     0.138 Goal=   None    Shift=    0.000
 GapD=    0.138 DampG=1.000 DampE=0.500 DampFc=0.5000 IDamp=-1.
 Damping current iteration by 5.00D-01
 RMSDP=1.24D-02 MaxDP=1.39D-01              OVMax= 3.41D-01

 Cycle   2  Pass 1  IDiag  1:
 E= -110.564106900644     Delta-E=       -0.033256200036 Rises=F Damp=T
 DIIS: error= 1.04D-02 at cycle   2 NSaved=   2.
 NSaved= 2 IEnMin= 2 EnMin= -110.564106900644     IErMin= 2 ErrMin= 1.04D-02
 ErrMax= 1.04D-02  0.00D+00 EMaxC= 1.00D-01 BMatC= 1.65D-02 BMatP= 1.36D-01
 IDIUse=3 WtCom= 8.96D-01 WtEn= 1.04D-01
 Coeff-Com:  0.299D-01 0.970D+00
 Coeff-En:   0.000D+00 0.100D+01
 Coeff:      0.268D-01 0.973D+00
 Gap=     0.165 Goal=   None    Shift=    0.000
 Gap=     0.165 Goal=   None    Shift=    0.000
 RMSDP=6.07D-03 MaxDP=7.79D-02 DE=-3.33D-02 OVMax= 5.43D-02

 Cycle   3  Pass 1  IDiag  1:
 E= -110.607722535169     Delta-E=       -0.043615634525 Rises=F Damp=F
 DIIS: error= 5.36D-03 at cycle   3 NSaved=   3.
 NSaved= 3 IEnMin= 3 EnMin= -110.607722535169     IErMin= 3 ErrMin= 5.36D-03
 ErrMax= 5.36D-03  0.00D+00 EMaxC= 1.00D-01 BMatC= 5.26D-03 BMatP= 1.65D-02
 IDIUse=3 WtCom= 9.46D-01 WtEn= 5.36D-02
 Coeff-Com: -0.272D-01 0.294D+00 0.733D+00
 Coeff-En:   0.000D+00 0.000D+00 0.100D+01
 Coeff:     -0.258D-01 0.278D+00 0.748D+00
 Gap=     0.170 Goal=   None    Shift=    0.000
 Gap=     0.170 Goal=   None    Shift=    0.000
 RMSDP=2.50D-03 MaxDP=2.86D-02 DE=-4.36D-02 OVMax= 7.46D-02

 Cycle   4  Pass 1  IDiag  1:
 E= -110.610888556902     Delta-E=       -0.003166021733 Rises=F Damp=F
 DIIS: error= 5.70D-03 at cycle   4 NSaved=   4.
 NSaved= 4 IEnMin= 4 EnMin= -110.610888556902     IErMin= 3 ErrMin= 5.36D-03
 ErrMax= 5.70D-03  0.00D+00 EMaxC= 1.00D-01 BMatC= 6.80D-03 BMatP= 5.26D-03
 IDIUse=3 WtCom= 1.17D-01 WtEn= 8.83D-01
 Coeff-Com:  0.218D-02-0.275D-01 0.542D+00 0.483D+00
 Coeff-En:   0.000D+00 0.000D+00 0.000D+00 0.100D+01
 Coeff:      0.255D-03-0.321D-02 0.634D-01 0.940D+00
 Gap=     0.165 Goal=   None    Shift=    0.000
 Gap=     0.165 Goal=   None    Shift=    0.000
 RMSDP=2.18D-03 MaxDP=2.82D-02 DE=-3.17D-03 OVMax= 4.67D-02

 Cycle   5  Pass 1  IDiag  1:
 E= -110.610898734551     Delta-E=       -0.000010177649 Rises=F Damp=F
 DIIS: error= 8.07D-03 at cycle   5 NSaved=   5.
 NSaved= 5 IEnMin= 5 EnMin= -110.610898734551     IErMin= 3 ErrMin= 5.36D-03
 ErrMax= 8.07D-03  0.00D+00 EMaxC= 1.00D-01 BMatC= 1.45D-02 BMatP= 5.26D-03
 IDIUse=3 WtCom= 1.00D-01 WtEn= 9.00D-01
 Coeff-Com: -0.671D-02 0.266D-02-0.392D+00 0.722D+00 0.674D+00
 Coeff-En:   0.000D+00 0.000D+00 0.000D+00 0.499D+00 0.501D+00
 Coeff:     -0.672D-03 0.267D-03-0.392D-01 0.521D+00 0.518D+00
 Gap=     0.168 Goal=   None    Shift=    0.000
 Gap=     0.168 Goal=   None    Shift=    0.000
 RMSDP=1.65D-03 MaxDP=2.22D-02 DE=-1.02D-05 OVMax= 3.59D-02

 Cycle   6  Pass 1  IDiag  1:
 E= -110.614204714088     Delta-E=       -0.003305979536 Rises=F Damp=F
 DIIS: error= 3.42D-03 at cycle   6 NSaved=   6.
 NSaved= 6 IEnMin= 6 EnMin= -110.614204714088     IErMin= 6 ErrMin= 3.42D-03
 ErrMax= 3.42D-03  0.00D+00 EMaxC= 1.00D-01 BMatC= 2.52D-03 BMatP= 5.26D-03
 IDIUse=3 WtCom= 9.66D-01 WtEn= 3.42D-02
 Coeff-Com:  0.360D-01-0.484D-01 0.477D-01-0.105D+01 0.355D-01 0.198D+01
 Coeff-En:   0.000D+00 0.000D+00 0.000D+00 0.000D+00 0.411D-01 0.959D+00
 Coeff:      0.347D-01-0.467D-01 0.461D-01-0.102D+01 0.357D-01 0.195D+01
 Gap=     0.160 Goal=   None    Shift=    0.000
 Gap=     0.160 Goal=   None    Shift=    0.000
 RMSDP=2.67D-03 MaxDP=3.07D-02 DE=-3.31D-03 OVMax= 8.63D-02

 Cycle   7  Pass 1  IDiag  1:
 E= -110.616196404929     Delta-E=       -0.001991690841 Rises=F Damp=F
 DIIS: error= 7.92D-04 at cycle   7 NSaved=   7.
 NSaved= 7 IEnMin= 7 EnMin= -110.616196404929     IErMin= 7 ErrMin= 7.92D-04
 ErrMax= 7.92D-04  0.00D+00 EMaxC= 1.00D-01 BMatC= 7.21D-05 BMatP= 2.52D-03
 IDIUse=3 WtCom= 9.92D-01 WtEn= 7.92D-03
 Coeff-Com: -0.153D-01 0.386D-01 0.673D-01-0.598D-02-0.321D+00-0.648D+00
 Coeff-Com:  0.188D+01
 Coeff-En:   0.000D+00 0.000D+00 0.000D+00 0.000D+00 0.000D+00 0.000D+00
 Coeff-En:   0.100D+01
 Coeff:     -0.152D-01 0.383D-01 0.668D-01-0.594D-02-0.319D+00-0.643D+00
 Coeff:      0.188D+01
 Gap=     0.156 Goal=   None    Shift=    0.000
 Gap=     0.156 Goal=   None    Shift=    0.000
 RMSDP=2.39D-03 MaxDP=2.92D-02 DE=-1.99D-03 OVMax= 7.87D-02

 Cycle   8  Pass 1  IDiag  1:
 E= -110.616852014128     Delta-E=       -0.000655609200 Rises=F Damp=F
 DIIS: error= 3.16D-04 at cycle   8 NSaved=   8.
 NSaved= 8 IEnMin= 8 EnMin= -110.616852014128     IErMin= 8 ErrMin= 3.16D-04
 ErrMax= 3.16D-04  0.00D+00 EMaxC= 1.00D-01 BMatC= 1.92D-05 BMatP= 7.21D-05
 IDIUse=3 WtCom= 9.97D-01 WtEn= 3.16D-03
 Coeff-Com: -0.469D-02 0.200D-02 0.460D-01 0.554D-02-0.408D-01-0.201D-01
 Coeff-Com: -0.737D+00 0.175D+01
 Coeff-En:   0.000D+00 0.000D+00 0.000D+00 0.000D+00 0.000D+00 0.000D+00
 Coeff-En:   0.000D+00 0.100D+01
 Coeff:     -0.468D-02 0.199D-02 0.458D-01 0.552D-02-0.407D-01-0.200D-01
 Coeff:     -0.735D+00 0.175D+01
 Gap=     0.155 Goal=   None    Shift=    0.000
 Gap=     0.155 Goal=   None    Shift=    0.000
 RMSDP=1.75D-03 MaxDP=2.18D-02 DE=-6.56D-04 OVMax= 5.78D-02

 Cycle   9  Pass 1  IDiag  1:
 E= -110.617052222004     Delta-E=       -0.000200207876 Rises=F Damp=F
 DIIS: error= 2.37D-04 at cycle   9 NSaved=   9.
 NSaved= 9 IEnMin= 9 EnMin= -110.617052222004     IErMin= 9 ErrMin= 2.37D-04
 ErrMax= 2.37D-04  0.00D+00 EMaxC= 1.00D-01 BMatC= 1.20D-05 BMatP= 1.92D-05
 IDIUse=3 WtCom= 9.98D-01 WtEn= 2.37D-03
 Coeff-Com: -0.669D-03-0.733D-04 0.189D-01-0.517D-01-0.541D-03 0.159D+00
 Coeff-Com: -0.315D+00-0.285D+00 0.148D+01
 Coeff-En:   0.000D+00 0.000D+00 0.000D+00 0.000D+00 0.000D+00 0.000D+00
 Coeff-En:   0.000D+00 0.000D+00 0.100D+01
 Coeff:     -0.668D-03-0.732D-04 0.188D-01-0.515D-01-0.539D-03 0.159D+00
 Coeff:     -0.314D+00-0.284D+00 0.147D+01
 Gap=     0.155 Goal=   None    Shift=    0.000
 Gap=     0.155 Goal=   None    Shift=    0.000
 RMSDP=1.02D-03 MaxDP=1.28D-02 DE=-2.00D-04 OVMax= 3.38D-02

 Cycle  10  Pass 1  IDiag  1:
 E= -110.617092885126     Delta-E=       -0.000040663122 Rises=F Damp=F
 DIIS: error= 8.70D-05 at cycle  10 NSaved=  10.
 NSaved=10 IEnMin=10 EnMin= -110.617092885126     IErMin=10 ErrMin= 8.70D-05
 ErrMax= 8.70D-05  0.00D+00 EMaxC= 1.00D-01 BMatC= 1.54D-06 BMatP= 1.20D-05
 IDIUse=1 WtCom= 1.00D+00 WtEn= 0.00D+00
 Coeff-Com: -0.226D-03 0.678D-03 0.322D-02-0.177D-02-0.901D-02-0.195D-01
 Coeff-Com:  0.104D+00 0.570D-01-0.822D+00 0.169D+01
 Coeff:     -0.226D-03 0.678D-03 0.322D-02-0.177D-02-0.901D-02-0.195D-01
 Coeff:      0.104D+00 0.570D-01-0.822D+00 0.169D+01
 Gap=     0.155 Goal=   None    Shift=    0.000
 Gap=     0.155 Goal=   None    Shift=    0.000
 RMSDP=3.49D-04 MaxDP=4.35D-03 DE=-4.07D-05 OVMax= 1.15D-02

 Cycle  11  Pass 1  IDiag  1:
 E= -110.617094664560     Delta-E=       -0.000001779433 Rises=F Damp=F
 DIIS: error= 3.18D-05 at cycle  11 NSaved=  11.
 NSaved=11 IEnMin=11 EnMin= -110.617094664560     IErMin=11 ErrMin= 3.18D-05
 ErrMax= 3.18D-05  0.00D+00 EMaxC= 1.00D-01 BMatC= 1.95D-07 BMatP= 1.54D-06
 IDIUse=1 WtCom= 1.00D+00 WtEn= 0.00D+00
 Coeff-Com: -0.162D-03 0.327D-03 0.118D-03 0.339D-02-0.325D-02-0.170D-01
 Coeff-Com:  0.308D-01 0.507D-01-0.176D+00 0.402D+00 0.710D+00
 Coeff:     -0.162D-03 0.327D-03 0.118D-03 0.339D-02-0.325D-02-0.170D-01
 Coeff:      0.308D-01 0.507D-01-0.176D+00 0.402D+00 0.710D+00
 Gap=     0.155 Goal=   None    Shift=    0.000
 Gap=     0.155 Goal=   None    Shift=    0.000
 RMSDP=9.74D-05 MaxDP=1.22D-03 DE=-1.78D-06 OVMax= 3.22D-03

 Cycle  12  Pass 1  IDiag  1:
 E= -110.617094866540     Delta-E=       -0.000000201980 Rises=F Damp=F
 DIIS: error= 6.40D-06 at cycle  12 NSaved=  12.
 NSaved=12 IEnMin=12 EnMin= -110.617094866540     IErMin=12 ErrMin= 6.40D-06
 ErrMax= 6.40D-06  0.00D+00 EMaxC= 1.00D-01 BMatC= 8.13D-09 BMatP= 1.95D-07
 IDIUse=1 WtCom= 1.00D+00 WtEn= 0.00D+00
 Coeff-Com: -0.243D-04 0.398D-04-0.404D-03 0.110D-02-0.292D-03-0.367D-02
 Coeff-Com:  0.584D-03 0.272D-02 0.289D-01-0.127D-01 0.998D-01 0.884D+00
 Coeff:     -0.243D-04 0.398D-04-0.404D-03 0.110D-02-0.292D-03-0.367D-02
 Coeff:      0.584D-03 0.272D-02 0.289D-01-0.127D-01 0.998D-01 0.884D+00
 Gap=     0.155 Goal=   None    Shift=    0.000
 Gap=     0.155 Goal=   None    Shift=    0.000
 RMSDP=9.12D-06 MaxDP=1.13D-04 DE=-2.02D-07 OVMax= 2.99D-04

 Cycle  13  Pass 1  IDiag  1:
 E= -110.617094859438     Delta-E=        0.000000007102 Rises=F Damp=F
 DIIS: error= 4.79D-06 at cycle  13 NSaved=  13.
 NSaved=13 IEnMin=12 EnMin= -110.617094866540     IErMin=13 ErrMin= 4.79D-06
 ErrMax= 4.79D-06  0.00D+00 EMaxC= 1.00D-01 BMatC= 4.55D-09 BMatP= 8.13D-09
 IDIUse=1 WtCom= 1.00D+00 WtEn= 0.00D+00
 Coeff-Com:  0.514D-05-0.139D-04 0.278D-04-0.104D-04-0.630D-04-0.142D-03
 Coeff-Com: -0.312D-03 0.199D-02-0.160D-01 0.241D-02 0.241D-01 0.804D-01
 Coeff-Com:  0.908D+00
 Coeff:      0.514D-05-0.139D-04 0.278D-04-0.104D-04-0.630D-04-0.142D-03
 Coeff:     -0.312D-03 0.199D-02-0.160D-01 0.241D-02 0.241D-01 0.804D-01
 Coeff:      0.908D+00
 Gap=     0.155 Goal=   None    Shift=    0.000
 Gap=     0.155 Goal=   None    Shift=    0.000
 RMSDP=2.03D-05 MaxDP=2.55D-04 DE= 7.10D-09 OVMax= 6.72D-04

 Cycle  14  Pass 1  IDiag  1:
 E= -110.617094872416     Delta-E=       -0.000000012978 Rises=F Damp=F
 DIIS: error= 1.17D-06 at cycle  14 NSaved=  14.
 NSaved=14 IEnMin=14 EnMin= -110.617094872416     IErMin=14 ErrMin= 1.17D-06
 ErrMax= 1.17D-06  0.00D+00 EMaxC= 1.00D-01 BMatC= 2.51D-10 BMatP= 4.55D-09
 IDIUse=1 WtCom= 1.00D+00 WtEn= 0.00D+00
 Coeff-Com: -0.863D-06 0.665D-06-0.118D-04 0.364D-04 0.386D-04 0.185D-04
 Coeff-Com: -0.260D-03 0.214D-03 0.272D-02-0.446D-02 0.415D-02 0.466D-01
 Coeff-Com: -0.249D+00 0.120D+01
 Coeff:     -0.863D-06 0.665D-06-0.118D-04 0.364D-04 0.386D-04 0.185D-04
 Coeff:     -0.260D-03 0.214D-03 0.272D-02-0.446D-02 0.415D-02 0.466D-01
 Coeff:     -0.249D+00 0.120D+01
 Gap=     0.155 Goal=   None    Shift=    0.000
 Gap=     0.155 Goal=   None    Shift=    0.000
 RMSDP=2.60D-06 MaxDP=3.26D-05 DE=-1.30D-08 OVMax= 8.60D-05

 Cycle  15  Pass 1  IDiag  1:
 E= -110.617094872588     Delta-E=       -0.000000000173 Rises=F Damp=F
 DIIS: error= 1.83D-07 at cycle  15 NSaved=  15.
 NSaved=15 IEnMin=15 EnMin= -110.617094872588     IErMin=15 ErrMin= 1.83D-07
 ErrMax= 1.83D-07  0.00D+00 EMaxC= 1.00D-01 BMatC= 6.32D-12 BMatP= 2.51D-10
 IDIUse=1 WtCom= 1.00D+00 WtEn= 0.00D+00
 Coeff-Com:  0.615D-07-0.242D-06-0.120D-05-0.506D-06 0.357D-05 0.927D-05
 Coeff-Com: -0.379D-04-0.500D-04 0.456D-03-0.439D-03-0.685D-03-0.136D-03
 Coeff-Com: -0.876D-02 0.117D+00 0.892D+00
 Coeff:      0.615D-07-0.242D-06-0.120D-05-0.506D-06 0.357D-05 0.927D-05
 Coeff:     -0.379D-04-0.500D-04 0.456D-03-0.439D-03-0.685D-03-0.136D-03
 Coeff:     -0.876D-02 0.117D+00 0.892D+00
 Gap=     0.155 Goal=   None    Shift=    0.000
 Gap=     0.155 Goal=   None    Shift=    0.000
 RMSDP=3.57D-07 MaxDP=4.46D-06 DE=-1.73D-10 OVMax= 1.18D-05

 Cycle  16  Pass 1  IDiag  1:
 E= -110.617094872592     Delta-E=       -0.000000000004 Rises=F Damp=F
 DIIS: error= 1.03D-08 at cycle  16 NSaved=  16.
 NSaved=16 IEnMin=16 EnMin= -110.617094872592     IErMin=16 ErrMin= 1.03D-08
 ErrMax= 1.03D-08  0.00D+00 EMaxC= 1.00D-01 BMatC= 1.87D-14 BMatP= 6.32D-12
 IDIUse=1 WtCom= 1.00D+00 WtEn= 0.00D+00
 Large coefficients: NSaved= 16 BigCof=    0.00 CofMax=   10.00 Det=-3.05D-15
 Inversion failed.  Reducing to 15 matrices.
 Coeff-Com:  0.309D-07 0.301D-06-0.788D-06-0.897D-06-0.505D-06 0.786D-05
 Coeff-Com: -0.113D-04-0.522D-04 0.128D-03-0.210D-03-0.184D-02 0.455D-02
 Coeff-Com: -0.331D-01 0.520D-01 0.979D+00
 Coeff:      0.309D-07 0.301D-06-0.788D-06-0.897D-06-0.505D-06 0.786D-05
 Coeff:     -0.113D-04-0.522D-04 0.128D-03-0.210D-03-0.184D-02 0.455D-02
 Coeff:     -0.331D-01 0.520D-01 0.979D+00
 Gap=     0.155 Goal=   None    Shift=    0.000
 Gap=     0.155 Goal=   None    Shift=    0.000
 RMSDP=3.86D-08 MaxDP=4.84D-07 DE=-3.69D-12 OVMax= 1.28D-06

 Cycle  17  Pass 1  IDiag  1:
 E= -110.617094872592     Delta-E=       -0.000000000000 Rises=F Damp=F
 DIIS: error= 3.57D-09 at cycle  17 NSaved=  16.
 NSaved=16 IEnMin=16 EnMin= -110.617094872592     IErMin=16 ErrMin= 3.57D-09
 ErrMax= 3.57D-09  0.00D+00 EMaxC= 1.00D-01 BMatC= 2.08D-15 BMatP= 1.87D-14
 IDIUse=1 WtCom= 1.00D+00 WtEn= 0.00D+00
 Large coefficients: NSaved= 16 BigCof=    0.00 CofMax=   10.00 Det=-1.12D-16
 Inversion failed.  Reducing to 15 matrices.
 Coeff-Com:  0.428D-07 0.749D-07 0.318D-07 0.583D-08 0.612D-06 0.523D-05
 Coeff-Com: -0.199D-04 0.289D-05 0.761D-04 0.313D-03-0.487D-03-0.265D-02
 Coeff-Com: -0.564D-01-0.130D+00 0.119D+01
 Coeff:      0.428D-07 0.749D-07 0.318D-07 0.583D-08 0.612D-06 0.523D-05
 Coeff:     -0.199D-04 0.289D-05 0.761D-04 0.313D-03-0.487D-03-0.265D-02
 Coeff:     -0.564D-01-0.130D+00 0.119D+01
 Gap=     0.155 Goal=   None    Shift=    0.000
 Gap=     0.155 Goal=   None    Shift=    0.000
 RMSDP=1.01D-08 MaxDP=1.27D-07 DE=-8.53D-14 OVMax= 3.34D-07

 Cycle  18  Pass 1  IDiag  1:
 E= -110.617094872592     Delta-E=        0.000000000000 Rises=F Damp=F
 DIIS: error= 2.16D-09 at cycle  18 NSaved=  16.
 NSaved=16 IEnMin=15 EnMin= -110.617094872592     IErMin=16 ErrMin= 2.16D-09
 ErrMax= 2.16D-09  0.00D+00 EMaxC= 1.00D-01 BMatC= 7.83D-16 BMatP= 2.08D-15
 IDIUse=1 WtCom= 1.00D+00 WtEn= 0.00D+00
 Large coefficients: NSaved= 16 BigCof=    0.00 CofMax=   10.00 Det=-1.15D-17
 Inversion failed.  Reducing to 15 matrices.
 Coeff-Com:  0.339D-07-0.466D-08-0.692D-07-0.310D-06 0.141D-05 0.185D-05
 Coeff-Com: -0.718D-05 0.216D-04 0.159D-03-0.265D-04 0.316D-02-0.940D-02
 Coeff-Com: -0.114D+00-0.436D-01 0.116D+01
 Coeff:      0.339D-07-0.466D-08-0.692D-07-0.310D-06 0.141D-05 0.185D-05
 Coeff:     -0.718D-05 0.216D-04 0.159D-03-0.265D-04 0.316D-02-0.940D-02
 Coeff:     -0.114D+00-0.436D-01 0.116D+01
 Gap=     0.155 Goal=   None    Shift=    0.000
 Gap=     0.155 Goal=   None    Shift=    0.000
 RMSDP=6.74D-09 MaxDP=8.44D-08 DE= 2.27D-13 OVMax= 2.23D-07

 Error on total polarization charges =  0.00289
 SCF Done:  E(UB3LYP) =  -110.617094873     A.U. after   18 cycles
            NFock= 18  Conv=0.67D-08     -V/T= 2.0095
 <Sx>= 0.0000 <Sy>= 0.0000 <Sz>= 0.0000 <S**2>= 0.0000 S= 0.0000
 <L.S>= 0.000000000000E+00
 KE= 1.095776070071D+02 PE=-3.229034081930D+02 EE= 7.041624984647D+01
 Annihilation of the first spin contaminant:
 S**2 before annihilation     0.0000,   after     0.0000
 Leave Link  502 at Tue Jun 11 18:43:26 2019, MaxMem=   104857600 cpu:              12.0 elap:              12.2
 (Enter /Applications/G16/g16/l701.exe)
 ... and contract with generalized density number  0.
 Compute integral first derivatives.
 R6Disp: Adding Grimme-D3 dispersion energy 1st derivatives to the gradient.
 D1PCM: PCM CHGder 1st derivatives, ID1Alg=3 FixD1E=F DoIter=F DoCFld=F I1PDM=0.
 GePol: Maximum number of non-zero 1st derivatives   =     263
 Leave Link  701 at Tue Jun 11 18:43:26 2019, MaxMem=   104857600 cpu:               0.4 elap:               0.5
 (Enter /Applications/G16/g16/l702.exe)
 L702 exits ... SP integral derivatives will be done elsewhere.
 Leave Link  702 at Tue Jun 11 18:43:26 2019, MaxMem=   104857600 cpu:               0.0 elap:               0.0
 (Enter /Applications/G16/g16/l703.exe)
 Integral derivatives from FoFJK, PRISM(SPDF).
 Compute integral first derivatives, UseDBF=F ICtDFT=           0.
 Calling FoFJK, ICntrl=      2127 FMM=F ISym2X=0 I1Cent= 0 IOpClX= 1 NMat=1 NMatS=1 NMatT=0.
 FoFJK:  IHMeth= 1 ICntrl=    2127 DoSepK=F KAlg= 0 I1Cent=           0 FoldK=F
 IRaf=         0 NMat=       1 IRICut=       1 DoRegI=T DoRafI=F ISym2E= 0 IDoP0=0 IntGTp=1.
 FoFCou: FMM=F IPFlag=           0 FMFlag=      100000 FMFlg1=         800
         NFxFlg=           0 DoJE=F BraDBF=F KetDBF=F FulRan=T
         wScrn=  0.000000 ICntrl=      2127 IOpCl=  1 I1Cent=           0 NGrid=           0
         NMat0=    1 NMatS0=      1 NMatT0=    0 NMatD0=    1 NMtDS0=    0 NMtDT0=    0
 Symmetry not used in FoFCou.
 Leave Link  703 at Tue Jun 11 18:43:27 2019, MaxMem=   104857600 cpu:               1.1 elap:               1.2
 (Enter /Applications/G16/g16/l716.exe)
 Dipole        = 1.63125707D+00-4.75295495D-03-1.01412257D-02
 ***** Axes restored to original set *****
 -------------------------------------------------------------------
 Center     Atomic                   Forces (Hartrees/Bohr)
 Number     Number              X              Y              Z
 -------------------------------------------------------------------
      1        7          -0.000165758   -0.007995084    0.004438207
      2        1           0.000819470    0.002471036   -0.000882675
      3        7           0.000006800    0.004226561   -0.002996667
      4        1          -0.000660512    0.001297487   -0.000558865
 -------------------------------------------------------------------
 Cartesian Forces:  Max     0.007995084 RMS     0.003168585
 Leave Link  716 at Tue Jun 11 18:43:27 2019, MaxMem=   104857600 cpu:               0.0 elap:               0.0
 (Enter /Applications/G16/g16/l103.exe)

 GradGradGradGradGradGradGradGradGradGradGradGradGradGradGradGradGradGrad
 Berny optimization.
 Using GEDIIS/GDIIS optimizer.
 FormGI is forming the generalized inverse of G from B-inverse, IUseBI=4.
 Internal  Forces:  Max     0.004961854 RMS     0.002375295
 Search for a local minimum.
 Step number   2 out of a maximum of   20
 All quantities printed in internal units (Hartrees-Bohrs-Radians)
 RMS Force = .23753D-02 SwitMx=.10000D-02 MixMth= 1
 Mixed Optimization -- RFO/linear search
 Update second derivatives using D2CorX and points    1    2
 DE= -9.22D-04 DEPred=-9.30D-04 R= 9.92D-01
 TightC=F SS=  1.41D+00  RLast= 1.11D-01 DXNew= 5.0454D-01 3.3160D-01
 Trust test= 9.92D-01 RLast= 1.11D-01 DXMaxT set to 3.32D-01
 The second derivative matrix:
                          R1        R2        R3        A1        A2
           R1           0.41505
           R2           0.00363   0.93413
           R3           0.00250  -0.01174   0.41188
           A1          -0.00025  -0.00740   0.00653   0.16534
           A2           0.01163  -0.02792   0.00431   0.01170   0.14217
           A3          -0.01132   0.03521  -0.01087  -0.01701   0.00594
           D1          -0.00057  -0.00327   0.00363   0.00267   0.00743
                          A3        D1
           A3           0.17123
           D1          -0.01008   0.00565
 ITU=  1  0
 Use linear search instead of GDIIS.
     Eigenvalues ---    0.00460   0.13155   0.18385   0.41046   0.41789
     Eigenvalues ---    0.93713
 RFO step:  Lambda=-4.61583080D-04 EMin= 4.60137961D-03
 Quartic linear search produced a step of  0.00544.
 Iteration  1 RMS(Cart)=  0.04163213 RMS(Int)=  0.02670745
 Iteration  2 RMS(Cart)=  0.01427851 RMS(Int)=  0.00720899
 Iteration  3 RMS(Cart)=  0.00030583 RMS(Int)=  0.00719899
 Iteration  4 RMS(Cart)=  0.00000167 RMS(Int)=  0.00719899
 Iteration  5 RMS(Cart)=  0.00000002 RMS(Int)=  0.00719899
 ITry= 1 IFail=0 DXMaxC= 9.07D-02 DCOld= 1.00D+10 DXMaxT= 3.32D-01 DXLimC= 3.00D+00 Rises=F
 Variable       Old X    -DE/DX   Delta X   Delta X   Delta X     New X
                                 (Linear)    (Quad)   (Total)
    R1        1.96454   0.00174   0.00003   0.00579   0.00582   1.97036
    R2        2.31584  -0.00496  -0.00001  -0.00571  -0.00572   2.31012
    R3        1.96605   0.00130  -0.00004   0.00115   0.00110   1.96715
    A1        2.15221   0.00232  -0.00003   0.01530   0.00413   2.15634
    A2        1.96262  -0.00160  -0.00039  -0.02582  -0.03704   1.92558
    A3        2.16798  -0.00069   0.00042   0.01751   0.00719   2.17517
    D1        3.11303   0.00133  -0.00018   0.26809   0.26549  -2.90467
         Item               Value     Threshold  Converged?
 Maximum Force            0.004962     0.000450     NO 
 RMS     Force            0.002375     0.000300     NO 
 Maximum Displacement     0.090657     0.001800     NO 
 RMS     Displacement     0.055048     0.001200     NO 
 Predicted change in Energy=-2.308333D-04
 Lowest energy point so far.  Saving SCF results.
 GradGradGradGradGradGradGradGradGradGradGradGradGradGradGradGradGradGrad

 Leave Link  103 at Tue Jun 11 18:43:28 2019, MaxMem=   104857600 cpu:               0.0 elap:               0.0
 (Enter /Applications/G16/g16/l202.exe)
                          Input orientation:                          
 ---------------------------------------------------------------------
 Center     Atomic      Atomic             Coordinates (Angstroms)
 Number     Number       Type             X           Y           Z
 ---------------------------------------------------------------------
      1          7           0        4.052406   -1.277987    0.522458
      2          1           0        4.955979   -0.769758    0.633898
      3          7           0        3.671442   -2.153986    1.285287
      4          1           0        3.445073   -0.788898   -0.167152
 ---------------------------------------------------------------------
                    Distance matrix (angstroms):
                    1          2          3          4
     1  N    0.000000
     2  H    1.042670   0.000000
     3  N    1.222463   1.997606   0.000000
     4  H    1.040973   1.710230   2.006062   0.000000
 Stoichiometry    H2N2
 Framework group  C1[X(H2N2)]
 Deg. of freedom     6
 Full point group                 C1      NOp   1
 RotChk:  IX=3 Diff= 5.05D-02
 Largest Abelian subgroup         C1      NOp   1
 Largest concise Abelian subgroup C1      NOp   1
                         Standard orientation:                         
 ---------------------------------------------------------------------
 Center     Atomic      Atomic             Coordinates (Angstroms)
 Number     Number       Type             X           Y           Z
 ---------------------------------------------------------------------
      1          7           0        0.461170    0.000810   -0.028745
      2          1           0        1.040713   -0.860606    0.067446
      3          7           0       -0.760699    0.000768    0.009331
      4          1           0        1.055987    0.849556    0.068456
 ---------------------------------------------------------------------
 Rotational constants (GHZ):         338.3621581          38.3623816          34.5489756
 Leave Link  202 at Tue Jun 11 18:43:28 2019, MaxMem=   104857600 cpu:               0.0 elap:               0.0
 (Enter /Applications/G16/g16/l301.exe)
 Standard basis: 6-31G(d,p) (6D, 7F)
 Ernie: Thresh=  0.10000D-02 Tol=  0.10000D-05 Strict=F.
 There are    40 symmetry adapted cartesian basis functions of A   symmetry.
 There are    40 symmetry adapted basis functions of A   symmetry.
    40 basis functions,    70 primitive gaussians,    40 cartesian basis functions
     8 alpha electrons        8 beta electrons
       nuclear repulsion energy        32.3323976864 Hartrees.
 IExCor=  402 DFT=T Ex+Corr=B3LYP ExCW=0 ScaHFX=  0.200000
 ScaDFX=  0.800000  0.720000  1.000000  0.810000 ScalE2=  1.000000  1.000000
 IRadAn=      5 IRanWt=     -1 IRanGd=            0 ICorTp=0 IEmpDi=131
 NAtoms=    4 NActive=    4 NUniq=    4 SFac= 1.00D+00 NAtFMM=   60 NAOKFM=F Big=F
 Integral buffers will be    131072 words long.
 Raffenetti 2 integral format.
 Two-electron integral symmetry is turned on.
 R6Disp:  Grimme-D3 Dispersion energy=       -0.0001467300 Hartrees.
 Nuclear repulsion after empirical dispersion term =       32.3322509565 Hartrees.
 ------------------------------------------------------------------------------
 Polarizable Continuum Model (PCM)
 =================================
 Model                : PCM.
 Atomic radii         : UFF (Universal Force Field).
 Polarization charges : Total charges.
 Charge compensation  : None.
 Solution method      : On-the-fly selection.
 Cavity type          : Scaled VdW (van der Waals Surface) (Alpha=1.100).
 Cavity algorithm     : GePol (No added spheres)
                        Default sphere list used, NSphG=    4.
                        Lebedev-Laikov grids with approx.  5.0 points / Ang**2.
                        Smoothing algorithm: York/Karplus (Gamma=1.0000).
                        Polarization charges: spherical gaussians, with
                                              point-specific exponents (IZeta= 3).
                        Self-potential: point-specific (ISelfS= 7).
                        Self-field    : sphere-specific E.n sum rule (ISelfD= 2).
 1st derivatives      : Analytical E(r).r(x)/FMM algorithm (CHGder, D1EAlg=3).
                        Cavity 1st derivative terms included.
 Solvent              : Acetonitrile, Eps=  35.688000 Eps(inf)=   1.806874
 ------------------------------------------------------------------------------
 Spheres list:
[...]
 Coeff-Com: -0.506D-05-0.299D-04 0.319D-03-0.206D-03-0.596D-03-0.488D-02
 Coeff-Com: -0.183D-01 0.107D+00 0.916D+00
 Coeff:     -0.107D-06 0.217D-06-0.121D-05 0.207D-05 0.186D-05-0.481D-06
 Coeff:     -0.506D-05-0.299D-04 0.319D-03-0.206D-03-0.596D-03-0.488D-02
 Coeff:     -0.183D-01 0.107D+00 0.916D+00
 Gap=     0.157 Goal=   None    Shift=    0.000
 Gap=     0.157 Goal=   None    Shift=    0.000
 RMSDP=4.87D-08 MaxDP=6.09D-07 DE=-7.96D-13 OVMax= 1.60D-06

 Cycle  16  Pass 1  IDiag  1:
 E= -110.617176438448     Delta-E=        0.000000000000 Rises=F Damp=F
 DIIS: error= 4.08D-09 at cycle  16 NSaved=  16.
 NSaved=16 IEnMin=15 EnMin= -110.617176438448     IErMin=16 ErrMin= 4.08D-09
 ErrMax= 4.08D-09  0.00D+00 EMaxC= 1.00D-01 BMatC= 3.16D-15 BMatP= 8.87D-15
 IDIUse=1 WtCom= 1.00D+00 WtEn= 0.00D+00
 Large coefficients: NSaved= 16 BigCof=    0.00 CofMax=   10.00 Det=-5.56D-16
 Inversion failed.  Reducing to 15 matrices.
 Coeff-Com:  0.883D-08 0.152D-06-0.280D-06-0.411D-06-0.272D-06 0.275D-05
 Coeff-Com: -0.165D-05-0.207D-04 0.530D-04-0.297D-03 0.898D-03-0.395D-02
 Coeff-Com: -0.109D-01 0.343D-01 0.980D+00
 Coeff:      0.883D-08 0.152D-06-0.280D-06-0.411D-06-0.272D-06 0.275D-05
 Coeff:     -0.165D-05-0.207D-04 0.530D-04-0.297D-03 0.898D-03-0.395D-02
 Coeff:     -0.109D-01 0.343D-01 0.980D+00
 Gap=     0.157 Goal=   None    Shift=    0.000
 Gap=     0.157 Goal=   None    Shift=    0.000
 RMSDP=2.73D-09 MaxDP=3.37D-08 DE= 0.00D+00 OVMax= 8.89D-08

 Error on total polarization charges =  0.00291
 SCF Done:  E(UB3LYP) =  -110.617176438     A.U. after   16 cycles
            NFock= 16  Conv=0.27D-08     -V/T= 2.0094
 <Sx>= 0.0000 <Sy>= 0.0000 <Sz>= 0.0000 <S**2>= 0.0000 S= 0.0000
 <L.S>= 0.000000000000E+00
 KE= 1.095817760041D+02 PE=-3.230026542877D+02 EE= 7.045978436911D+01
 Annihilation of the first spin contaminant:
 S**2 before annihilation    -0.0000,   after     0.0000
 Leave Link  502 at Tue Jun 11 18:44:05 2019, MaxMem=   104857600 cpu:              10.1 elap:              10.2
 (Enter /Applications/G16/g16/l701.exe)
 ... and contract with generalized density number  0.
 Compute integral first derivatives.
 R6Disp: Adding Grimme-D3 dispersion energy 1st derivatives to the gradient.
 D1PCM: PCM CHGder 1st derivatives, ID1Alg=3 FixD1E=F DoIter=F DoCFld=F I1PDM=0.
 GePol: Maximum number of non-zero 1st derivatives   =     263
 Leave Link  701 at Tue Jun 11 18:44:06 2019, MaxMem=   104857600 cpu:               0.4 elap:               0.5
 (Enter /Applications/G16/g16/l702.exe)
 L702 exits ... SP integral derivatives will be done elsewhere.
 Leave Link  702 at Tue Jun 11 18:44:06 2019, MaxMem=   104857600 cpu:               0.0 elap:               0.0
 (Enter /Applications/G16/g16/l703.exe)
 Integral derivatives from FoFJK, PRISM(SPDF).
 Compute integral first derivatives, UseDBF=F ICtDFT=           0.
 Calling FoFJK, ICntrl=      2127 FMM=F ISym2X=0 I1Cent= 0 IOpClX= 1 NMat=1 NMatS=1 NMatT=0.
 FoFJK:  IHMeth= 1 ICntrl=    2127 DoSepK=F KAlg= 0 I1Cent=           0 FoldK=F
 IRaf=         0 NMat=       1 IRICut=       1 DoRegI=T DoRafI=F ISym2E= 0 IDoP0=0 IntGTp=1.
 FoFCou: FMM=F IPFlag=           0 FMFlag=      100000 FMFlg1=         800
         NFxFlg=           0 DoJE=F BraDBF=F KetDBF=F FulRan=T
         wScrn=  0.000000 ICntrl=      2127 IOpCl=  1 I1Cent=           0 NGrid=           0
         NMat0=    1 NMatS0=      1 NMatT0=    0 NMatD0=    1 NMtDS0=    0 NMtDT0=    0
 Symmetry not used in FoFCou.
 Leave Link  703 at Tue Jun 11 18:44:07 2019, MaxMem=   104857600 cpu:               1.1 elap:               1.1
 (Enter /Applications/G16/g16/l716.exe)
 Dipole        = 1.62652889D+00 2.76905538D-05 3.30237217D-04
 ***** Axes restored to original set *****
 -------------------------------------------------------------------
 Center     Atomic                   Forces (Hartrees/Bohr)
 Number     Number              X              Y              Z
 -------------------------------------------------------------------
      1        7          -0.000005250   -0.000082452    0.000186318
      2        1           0.000054001   -0.000003337   -0.000004080
      3        7           0.000029521    0.000074741   -0.000092417
      4        1          -0.000078271    0.000011048   -0.000089821
 -------------------------------------------------------------------
 Cartesian Forces:  Max     0.000186318 RMS     0.000078421
 Leave Link  716 at Tue Jun 11 18:44:07 2019, MaxMem=   104857600 cpu:               0.0 elap:               0.0
 (Enter /Applications/G16/g16/l103.exe)

 GradGradGradGradGradGradGradGradGradGradGradGradGradGradGradGradGradGrad
 Berny optimization.
 Using GEDIIS/GDIIS optimizer.
 FormGI is forming the generalized inverse of G from B-inverse, IUseBI=4.
 Internal  Forces:  Max     0.000119085 RMS     0.000068721
 Search for a local minimum.
 Step number   5 out of a maximum of   20
 All quantities printed in internal units (Hartrees-Bohrs-Radians)
 RMS Force = .68721D-04 SwitMx=.10000D-02 MixMth= 2
 Mixed Optimization -- En-DIIS/RFO-DIIS
 Swapping is turned off.
 Update second derivatives using D2CorX and points    1    3    2    4    5
 DE= -2.84D-06 DEPred=-2.65D-06 R= 1.07D+00
 TightC=F SS=  1.41D+00  RLast= 4.10D-03 DXNew= 2.7884D-01 1.2294D-02
 Trust test= 1.07D+00 RLast= 4.10D-03 DXMaxT set to 1.66D-01
 The second derivative matrix:
                          R1        R2        R3        A1        A2
           R1           0.39365
           R2           0.06454   0.76470
           R3          -0.02343   0.06314   0.38168
           A1          -0.01036   0.02551  -0.00564   0.16531
           A2           0.01627  -0.04339   0.01128   0.00080   0.14229
           A3          -0.00695   0.01947  -0.00705  -0.02333  -0.00115
           D1          -0.00193  -0.00707  -0.00241   0.00386  -0.00015
                          A3        D1
           A3           0.16719
           D1          -0.00075   0.04642
 ITU=  1  1 -1  1  0
     Eigenvalues ---    0.04622   0.13328   0.18968   0.35005   0.41181
     Eigenvalues ---    0.78772
 En-DIIS/RFO-DIIS/Sim-DIIS IScMMF=       -3 using points:     5    4
 RFO step:  Lambda=-1.16170054D-07.
 NNeg= 0 NGDIIS= 2 SimSw=  2.50D-03 Rises=F DC= -2.84D-06 SmlDif=  1.00D-05
 NRisDI= 0 DoIntr=F SqrtH=F CThrHd= 10.0 CDAdj=  3.0
 RMS Error=  0.4098849551D-03 NUsed= 2 OKEnD=F EnDIS=F
 InvSVX:  RCond= 1.89D-05 Info=           0 Equed=N FErr=  1.04D-15 BErr=  1.69D-17
 DidBck=F Rises=F RFO-DIIS coefs:    0.91732    0.08268
 Iteration  1 RMS(Cart)=  0.00025052 RMS(Int)=  0.00000009
 Iteration  2 RMS(Cart)=  0.00000007 RMS(Int)=  0.00000005
 ITry= 1 IFail=0 DXMaxC= 3.99D-04 DCOld= 1.00D+10 DXMaxT= 1.66D-01 DXLimC= 3.00D+00 Rises=F
 Variable       Old X    -DE/DX   Delta X   Delta X   Delta X     New X
                                 (Linear)    (Quad)   (Total)
    R1        1.97176   0.00005  -0.00012   0.00028   0.00016   1.97192
    R2        2.30719  -0.00012   0.00017  -0.00037  -0.00020   2.30699
    R3        1.97156   0.00011  -0.00014   0.00047   0.00033   1.97189
    A1        2.16776   0.00000   0.00007   0.00000   0.00007   2.16783
    A2        1.94748   0.00003  -0.00002   0.00010   0.00009   1.94757
    A3        2.16795  -0.00003  -0.00005  -0.00011  -0.00016   2.16779
    D1       -3.14066  -0.00004  -0.00021  -0.00078  -0.00098   3.14154
         Item               Value     Threshold  Converged?
 Maximum Force            0.000119     0.000450     YES
 RMS     Force            0.000069     0.000300     YES
 Maximum Displacement     0.000399     0.001800     YES
 RMS     Displacement     0.000251     0.001200     YES
 Predicted change in Energy=-6.016273D-08
 Optimization completed.
    -- Stationary point found.
                           ----------------------------
                           !   Optimized Parameters   !
                           ! (Angstroms and Degrees)  !
 --------------------------                            --------------------------
 ! Name  Definition              Value          Derivative Info.                !
 --------------------------------------------------------------------------------
 ! R1    R(1,2)                  1.0434         -DE/DX =    0.0                 !
 ! R2    R(1,3)                  1.2209         -DE/DX =   -0.0001              !
 ! R3    R(1,4)                  1.0433         -DE/DX =    0.0001              !
 ! A1    A(2,1,3)              124.2034         -DE/DX =    0.0                 !
 ! A2    A(2,1,4)              111.5824         -DE/DX =    0.0                 !
 ! A3    A(3,1,4)              124.2141         -DE/DX =    0.0                 !
 ! D1    D(2,1,4,3)            180.0536         -DE/DX =    0.0                 !
 --------------------------------------------------------------------------------
 Lowest energy point so far.  Saving SCF results.
 Largest change from initial coordinates is atom    4       0.074 Angstoms.
 GradGradGradGradGradGradGradGradGradGradGradGradGradGradGradGradGradGrad

 Leave Link  103 at Tue Jun 11 18:44:07 2019, MaxMem=   104857600 cpu:               0.0 elap:               0.0
 (Enter /Applications/G16/g16/l202.exe)
                          Input orientation:                          
 ---------------------------------------------------------------------
 Center     Atomic      Atomic             Coordinates (Angstroms)
 Number     Number       Type             X           Y           Z
 ---------------------------------------------------------------------
      1          7           0        4.034778   -1.238746    0.561519
      2          1           0        4.970560   -0.781421    0.623760
      3          7           0        3.675277   -2.165481    1.270428
      4          1           0        3.444285   -0.804981   -0.181216
 ---------------------------------------------------------------------
                    Distance matrix (angstroms):
                    1          2          3          4
     1  N    0.000000
     2  H    1.043412   0.000000
     3  N    1.220914   2.002888   0.000000
     4  H    1.043307   1.725704   2.002896   0.000000
 Stoichiometry    H2N2
 Framework group  C1[X(H2N2)]
 Deg. of freedom     6
 Full point group                 C1      NOp   1
 RotChk:  IX=3 Diff= 1.30D-15
 Largest Abelian subgroup         C1      NOp   1
 Largest concise Abelian subgroup C1      NOp   1
                         Standard orientation:                         
 ---------------------------------------------------------------------
 Center     Atomic      Atomic             Coordinates (Angstroms)
 Number     Number       Type             X           Y           Z
 ---------------------------------------------------------------------
      1          7           0        0.460827    0.000021   -0.000113
      2          1           0        1.047379   -0.862918    0.000268
      3          7           0       -0.760088   -0.000002    0.000037
      4          1           0        1.047449    0.862786    0.000268
 ---------------------------------------------------------------------
 Rotational constants (GHZ):         336.7669060          38.4873234          34.5399368
 Leave Link  202 at Tue Jun 11 18:44:07 2019, MaxMem=   104857600 cpu:               0.0 elap:               0.0
 (Enter /Applications/G16/g16/l601.exe)
 Copying SCF densities to generalized density rwf, IOpCl= 1 IROHF=0.

 **********************************************************************

            Population analysis using the SCF density.

 **********************************************************************

 Orbital symmetries:
 Alpha Orbitals:
       Occupied  (A) (A) (A) (A) (A) (A) (A) (A)
       Virtual   (A) (A) (A) (A) (A) (A) (A) (A) (A) (A) (A) (A)
                 (A) (A) (A) (A) (A) (A) (A) (A) (A) (A) (A) (A)
                 (A) (A) (A) (A) (A) (A) (A) (A)
 Beta  Orbitals:
       Occupied  (A) (A) (A) (A) (A) (A) (A) (A)
       Virtual   (A) (A) (A) (A) (A) (A) (A) (A) (A) (A) (A) (A)
                 (A) (A) (A) (A) (A) (A) (A) (A) (A) (A) (A) (A)
                 (A) (A) (A) (A) (A) (A) (A) (A)
 The electronic state is 1-A.
 Alpha  occ. eigenvalues --  -14.44209 -14.33552  -1.02662  -0.70647  -0.55060
 Alpha  occ. eigenvalues --   -0.40156  -0.39160  -0.19340
 Alpha virt. eigenvalues --   -0.03678   0.06983   0.14475   0.35279   0.61679
 Alpha virt. eigenvalues --    0.63482   0.71028   0.71526   0.72314   0.76510
 Alpha virt. eigenvalues --    0.78451   0.90318   0.90930   1.19632   1.36744
 Alpha virt. eigenvalues --    1.43764   1.67993   1.78382   1.88195   2.06364
 Alpha virt. eigenvalues --    2.09370   2.19595   2.26951   2.56697   2.63047
 Alpha virt. eigenvalues --    2.65820   2.68054   2.97896   3.18674   3.44079
 Alpha virt. eigenvalues --    3.48455   3.94645
  Beta  occ. eigenvalues --  -14.44209 -14.33552  -1.02662  -0.70647  -0.55060
  Beta  occ. eigenvalues --   -0.40156  -0.39160  -0.19340
  Beta virt. eigenvalues --   -0.03678   0.06983   0.14475   0.35279   0.61679
  Beta virt. eigenvalues --    0.63482   0.71028   0.71526   0.72314   0.76510
  Beta virt. eigenvalues --    0.78451   0.90318   0.90930   1.19632   1.36744
  Beta virt. eigenvalues --    1.43764   1.67993   1.78382   1.88195   2.06364
  Beta virt. eigenvalues --    2.09370   2.19595   2.26951   2.56697   2.63047
  Beta virt. eigenvalues --    2.65820   2.68054   2.97896   3.18674   3.44079
  Beta virt. eigenvalues --    3.48455   3.94645
          Condensed to atoms (all electrons):
               1          2          3          4
     1  N    6.163858   0.319944   0.393479   0.319969
     2  H    0.319944   0.551327  -0.064982  -0.082618
     3  N    0.393479  -0.064982   7.091905  -0.064954
     4  H    0.319969  -0.082618  -0.064954   0.551233
          Atomic-Atomic Spin Densities.
               1          2          3          4
     1  N   -0.000000  -0.000000   0.000000   0.000000
     2  H   -0.000000   0.000000  -0.000000  -0.000000
     3  N    0.000000  -0.000000   0.000000   0.000000
     4  H    0.000000  -0.000000   0.000000  -0.000000
 Mulliken charges and spin densities:
               1          2
     1  N   -0.197250  -0.000000
     2  H    0.276329   0.000000
     3  N   -0.355449   0.000000
     4  H    0.276370  -0.000000
 Sum of Mulliken charges =  -0.00000  -0.00000
 Mulliken charges and spin densities with hydrogens summed into heavy atoms:
               1          2
     1  N    0.355449  -0.000000
     3  N   -0.355449   0.000000
 Electronic spatial extent (au):  <R**2>=             58.8943
 Charge=              0.0000 electrons
 Dipole moment (field-independent basis, Debye):
    X=              4.1342    Y=              0.0001    Z=              0.0008  Tot=              4.1342
 Quadrupole moment (field-independent basis, Debye-Ang):
   XX=            -12.0249   YY=            -11.1519   ZZ=            -11.7821
   XY=              0.0003   XZ=              0.0010   YZ=             -0.0000
 Traceless Quadrupole moment (field-independent basis, Debye-Ang):
   XX=             -0.3719   YY=              0.5011   ZZ=             -0.1291
   XY=              0.0003   XZ=              0.0010   YZ=             -0.0000
 Octapole moment (field-independent basis, Debye-Ang**2):
  XXX=              8.0187  YYY=              0.0000  ZZZ=              0.0006  XYY=              3.8299
  XXY=              0.0004  XXZ=              0.0010  XZZ=              0.3913  YZZ=              0.0001
  YYZ=              0.0008  XYZ=              0.0000
 Hexadecapole moment (field-independent basis, Debye-Ang**3):
 XXXX=            -45.1046 YYYY=            -14.7224 ZZZZ=             -9.5927 XXXY=              0.0010
 XXXZ=              0.0017 YYYX=              0.0003 YYYZ=             -0.0000 ZZZX=              0.0005
 ZZZY=              0.0000 XXYY=             -9.3311 XXZZ=             -8.9937 YYZZ=             -4.3795
 XXYZ=              0.0000 YYXZ=              0.0009 ZZXY=              0.0002
 N-N= 3.234391747599D+01 E-N=-3.230026544054D+02  KE= 1.095817760041D+02
                          Isotropic Fermi Contact Couplings
        Atom                 a.u.       MegaHertz       Gauss      10(-4) cm-1
     1  N(14)             -0.00000      -0.00000      -0.00000      -0.00000
     2  H(1)               0.00000       0.00000       0.00000       0.00000
     3  N(14)              0.00000       0.00000       0.00000       0.00000
     4  H(1)              -0.00000      -0.00000      -0.00000      -0.00000
 --------------------------------------------------------
       Center         ----  Spin Dipole Couplings  ----
                      3XX-RR        3YY-RR        3ZZ-RR
 --------------------------------------------------------
     1   Atom        0.000000      0.000000     -0.000000
     2   Atom        0.000000     -0.000000      0.000000
     3   Atom       -0.000000     -0.000000      0.000000
     4   Atom       -0.000000      0.000000     -0.000000
 --------------------------------------------------------
                        XY            XZ            YZ
 --------------------------------------------------------
     1   Atom        0.000000      0.000000      0.000000
     2   Atom        0.000000      0.000000     -0.000000
     3   Atom        0.000000      0.000000      0.000000
     4   Atom        0.000000     -0.000000     -0.000000
 --------------------------------------------------------


 ---------------------------------------------------------------------------------
              Anisotropic Spin Dipole Couplings in Principal Axis System
 ---------------------------------------------------------------------------------

       Atom             a.u.   MegaHertz   Gauss  10(-4) cm-1        Axes

              Baa    -0.0000    -0.000    -0.000    -0.000 -0.0160  0.7073 -0.7068
     1 N(14)  Bbb    -0.0000    -0.000    -0.000    -0.000  0.9978 -0.0344 -0.0570
              Bcc     0.0000     0.000     0.000     0.000  0.0646  0.7061  0.7051
 
              Baa    -0.0000    -0.000    -0.000    -0.000 -0.3428  0.6266  0.6999
     2 H(1)   Bbb     0.0000     0.000     0.000     0.000  0.8780  0.4786  0.0015
              Bcc     0.0000     0.000     0.000     0.000  0.3340 -0.6150  0.7143
 
              Baa    -0.0000    -0.000    -0.000    -0.000  0.0014  0.7071 -0.7071
     3 N(14)  Bbb    -0.0000    -0.000    -0.000    -0.000  1.0000 -0.0035 -0.0016
              Bcc     0.0000     0.000     0.000     0.000  0.0036  0.7071  0.7071
 
              Baa    -0.0000    -0.000    -0.000    -0.000  0.3309  0.6168  0.7142
     4 H(1)   Bbb    -0.0000    -0.000    -0.000    -0.000  0.8804 -0.4742  0.0017
              Bcc     0.0000     0.000     0.000     0.000 -0.3397 -0.6282  0.6999
 

 ---------------------------------------------------------------------------------

 No NMR shielding tensors so no spin-rotation constants.
 Leave Link  601 at Tue Jun 11 18:44:07 2019, MaxMem=   104857600 cpu:               0.1 elap:               0.1
 (Enter /Applications/G16/g16/l9999.exe)
 1\1\GINC-RUSTAMS-AIR\FOpt\UB3LYP\6-31G(d,p)\H2N2\RUSTAM\11-Jun-2019\0\
 \#p opt ub3lyp/6-31g(d,p) scrf=(iefpcm,solvent=acetonitrile) guess=(mi
 x,always) empiricaldispersion=gd3\\Title Card Required\\0,1\N,4.034777
 9024,-1.2387462779,0.561518673\H,4.9705595838,-0.7814209998,0.62375968
 28\N,3.6752772333,-2.165481199,1.2704284853\H,3.4442852805,-0.80498052
 34,-0.1812158412\\Version=EM64M-G16RevA.03\State=1-A\HF=-110.6171764\S
 2=0.\S2-1=0.\S2A=0.\RMSD=2.734e-09\RMSF=7.842e-05\Dipole=0.4787454,1.2
 349619,-0.9440701\Quadrupole=0.254594,-0.1991824,-0.0554116,-0.0348711
 ,0.2245356,0.0825841\PG=C01 [X(H2N2)]\\@


 IT MATTERS NOT HOW DEEP YOU PLOW,
 BUT HOW LONG YOU STAY IN THE FURROW.
 Job cpu time:       0 days  0 hours  1 minutes  9.6 seconds.
 Elapsed time:       0 days  0 hours  1 minutes 10.7 seconds.
 File lengths (MBytes):  RWF=     11 Int=      0 D2E=      0 Chk=      2 Scr=      1
 Normal termination of Gaussian 16 at Tue Jun 11 18:44:07 2019.
