 Entering Gaussian System, Link 0=g16
 Initial command:
 /opt/software/gaussian/g16.b01/l1.exe "/localscratch/rzk.14640148.0/Gau-32344.inp" -scrdir="/localscratch/rzk.14640148.0/"
 Entering Link 1 = /opt/software/gaussian/g16.b01/l1.exe PID=     32345.
  
 Copyright (c) 1988-2017, Gaussian, Inc.  All Rights Reserved.
  
 This is part of the Gaussian(R) 16 program.  It is based on
 the Gaussian(R) 09 system (copyright 2009, Gaussian, Inc.),
 the Gaussian(R) 03 system (copyright 2003, Gaussian, Inc.),
 the Gaussian(R) 98 system (copyright 1998, Gaussian, Inc.),
 the Gaussian(R) 94 system (copyright 1995, Gaussian, Inc.),
 the Gaussian 92(TM) system (copyright 1992, Gaussian, Inc.),
 the Gaussian 90(TM) system (copyright 1990, Gaussian, Inc.),
 the Gaussian 88(TM) system (copyright 1988, Gaussian, Inc.),
 the Gaussian 86(TM) system (copyright 1986, Carnegie Mellon
 University), and the Gaussian 82(TM) system (copyright 1983,
 Carnegie Mellon University). Gaussian is a federally registered
 trademark of Gaussian, Inc.
  
 This software contains proprietary and confidential information,
 including trade secrets, belonging to Gaussian, Inc.
  
 This software is provided under written license and may be
 used, copied, transmitted, or stored only in accord with that
 written license.
  
 The following legend is applicable only to US Government
 contracts under FAR:
  
                    RESTRICTED RIGHTS LEGEND
  
 Use, reproduction and disclosure by the US Government is
 subject to restrictions as set forth in subparagraphs (a)
 and (c) of the Commercial Computer Software - Restricted
 Rights clause in FAR 52.227-19.
  
 Gaussian, Inc.
 340 Quinnipiac St., Bldg. 40, Wallingford CT 06492
  
  
 ---------------------------------------------------------------
 Warning -- This program may not be used in any manner that
 competes with the business of Gaussian, Inc. or will provide
 assistance to any competitor of Gaussian, Inc.  The licensee
 of this program is prohibited from giving any competitor of
 Gaussian, Inc. access to this program.  By using this program,
 the user acknowledges that Gaussian, Inc. is engaged in the
 business of creating and licensing software in the field of
 computational chemistry and represents and warrants to the
 licensee that it is not a competitor of Gaussian, Inc. and that
 it will not use this program in any manner prohibited above.
 ---------------------------------------------------------------
  

 Cite this work as:
 Gaussian 16, Revision B.01,
 M. J. Frisch, G. W. Trucks, H. B. Schlegel, G. E. Scuseria, 
 M. A. Robb, J. R. Cheeseman, G. Scalmani, V. Barone, 
 G. A. Petersson, H. Nakatsuji, X. Li, M. Caricato, A. V. Marenich, 
 J. Bloino, B. G. Janesko, R. Gomperts, B. Mennucci, H. P. Hratchian, 
 J. V. Ortiz, A. F. Izmaylov, J. L. Sonnenberg, D. Williams-Young, 
 F. Ding, F. Lipparini, F. Egidi, J. Goings, B. Peng, A. Petrone, 
 T. Henderson, D. Ranasinghe, V. G. Zakrzewski, J. Gao, N. Rega, 
 G. Zheng, W. Liang, M. Hada, M. Ehara, K. Toyota, R. Fukuda, 
 J. Hasegawa, M. Ishida, T. Nakajima, Y. Honda, O. Kitao, H. Nakai, 
 T. Vreven, K. Throssell, J. A. Montgomery, Jr., J. E. Peralta, 
 F. Ogliaro, M. J. Bearpark, J. J. Heyd, E. N. Brothers, K. N. Kudin, 
 V. N. Staroverov, T. A. Keith, R. Kobayashi, J. Normand, 
 K. Raghavachari, A. P. Rendell, J. C. Burant, S. S. Iyengar, 
 J. Tomasi, M. Cossi, J. M. Millam, M. Klene, C. Adamo, R. Cammi, 
 J. W. Ochterski, R. L. Martin, K. Morokuma, O. Farkas, 
 J. B. Foresman, and D. J. Fox, Gaussian, Inc., Wallingford CT, 2016.
 
 ******************************************
 Gaussian 16:  ES64L-G16RevB.01 20-Dec-2017
                11-May-2019 
 ******************************************
 %NProcShared=32
 Will use up to   32 processors via shared memory.
 %chk=ABH.chk
 ----------------------------------------------------------------------
 #p opt=modredundant td=(nstates=12,root=08) ub3lyp/6-31g(d,p) scrf=(ie
 fpcm,solvent=acetonitrile) guess=(core,mix,always) empiricaldispersion
 =gd3
 ----------------------------------------------------------------------
 1/18=120,19=15,26=3,38=1/1,3;
 2/9=110,12=2,17=6,18=5,40=1/2;
 3/5=1,6=6,7=101,11=2,25=1,30=1,70=2201,71=1,72=2,74=-5,116=2,124=31/1,2,3,8;
 4/5=2,13=-1/1;
 5/5=2,38=5,53=2/2;
 8/6=1,10=2,107=8,108=12/1;
 9/8=8,15=2,41=12,42=1,70=2/14;
 10/5=4,28=8/2;
 6/7=2,8=2,9=2,10=2/1;
 7/12=6,13=5,14=8/1,2,3,16;
 1/18=20,19=15,26=3/3(2);
 2/9=110/2;
 99//99;
 2/9=110/2;
 3/5=1,6=6,7=101,11=2,25=1,30=1,70=2205,71=1,72=2,74=-5,116=2,124=31/1,2,3,8;
 4/5=2,13=-1/1;
 5/5=2,38=5,53=2/2;
 8/6=1,10=2,107=8,108=12/1;
 9/8=8,15=2,41=12,42=1,49=4,70=2/14;
 10/5=4,28=8/2;
 7/12=6,13=5,14=8/1,2,3,16;
 1/18=20,19=15,26=3/3(-8);
 2/9=110/2;
 6/7=2,8=2,9=2,10=2/1;
 99/9=10/99;
 Leave Link    1 at Sat May 11 00:45:05 2019, MaxMem=           0 cpu:               3.2 elap:               0.1
 (Enter /opt/software/gaussian/g16.b01/l101.exe)
 -------------------
 Title Card Required
 -------------------
 Symbolic Z-matrix:
 Charge =  0 Multiplicity = 1
 C                     0.56833   0.21082  -0.4047 
 H                     5.00968  -0.94119  -0.41285 
 O                     1.2594   -0.78588  -0.61312 
 N                     3.92583  -0.31677   1.13448 
 H                     3.6079    0.6099    1.4115 
 N                     4.32499  -0.20449  -0.256 
 H                     3.52063  -0.43342  -0.8425 
 H                     3.09633  -0.90935   1.19816 
 C                     1.18804   1.59216  -0.38607 
 H                     0.71512   2.23599  -1.13463 
 H                     1.03617   2.06554   0.58974 
 H                     2.25554   1.52027  -0.59245 
 C                    -0.89882   0.07122  -0.16117 
 C                    -1.46194  -1.21651  -0.17624 
 C                    -1.72782   1.17837   0.08347 
 C                    -2.82339  -1.39442   0.04776 
 H                    -0.81242  -2.06419  -0.3654 
 C                    -3.09245   0.99861   0.30822 
 H                    -1.31682   2.1816    0.10067 
 C                    -3.6416   -0.2857    0.29062 
 H                    -3.24972  -2.39273   0.03424 
 H                    -3.72612   1.85949   0.49672 
 H                    -4.70436  -0.42336   0.46572 
 
 Add virtual bond connecting atoms H7         and O3         Dist= 4.35D+00.
 Add virtual bond connecting atoms H7         and H12        Dist= 4.42D+00.
 The following ModRedundant input section has been read:
 B       3       7 S  14 -0.100                                                
 
 ITRead=  0  0  0  0  0  0  0  0  0  0  0  0  0  0  0  0  0  0  0  0
 ITRead=  0  0  0
 MicOpt= -1 -1 -1 -1 -1 -1 -1 -1 -1 -1 -1 -1 -1 -1 -1 -1 -1 -1 -1 -1
 MicOpt= -1 -1 -1
 NAtoms=     23 NQM=       23 NQMF=       0 NMMI=      0 NMMIF=      0
                NMic=       0 NMicF=      0.
                    Isotopes and Nuclear Properties:
 (Nuclear quadrupole moments (NQMom) in fm**2, nuclear magnetic moments (NMagM)
  in nuclear magnetons)

  Atom         1           2           3           4           5           6           7           8           9          10
 IAtWgt=          12           1          16          14           1          14           1           1          12           1
 AtmWgt=  12.0000000   1.0078250  15.9949146  14.0030740   1.0078250  14.0030740   1.0078250   1.0078250  12.0000000   1.0078250
 NucSpn=           0           1           0           2           1           2           1           1           0           1
 AtZEff=  -0.0000000  -0.0000000  -0.0000000  -0.0000000  -0.0000000  -0.0000000  -0.0000000  -0.0000000  -0.0000000  -0.0000000
 NQMom=    0.0000000   0.0000000   0.0000000   2.0440000   0.0000000   2.0440000   0.0000000   0.0000000   0.0000000   0.0000000
 NMagM=    0.0000000   2.7928460   0.0000000   0.4037610   2.7928460   0.4037610   2.7928460   2.7928460   0.0000000   2.7928460
 AtZNuc=   6.0000000   1.0000000   8.0000000   7.0000000   1.0000000   7.0000000   1.0000000   1.0000000   6.0000000   1.0000000

  Atom        11          12          13          14          15          16          17          18          19          20
 IAtWgt=           1           1          12          12          12          12           1          12           1          12
 AtmWgt=   1.0078250   1.0078250  12.0000000  12.0000000  12.0000000  12.0000000   1.0078250  12.0000000   1.0078250  12.0000000
 NucSpn=           1           1           0           0           0           0           1           0           1           0
 AtZEff=  -0.0000000  -0.0000000  -0.0000000  -0.0000000  -0.0000000  -0.0000000  -0.0000000  -0.0000000  -0.0000000  -0.0000000
 NQMom=    0.0000000   0.0000000   0.0000000   0.0000000   0.0000000   0.0000000   0.0000000   0.0000000   0.0000000   0.0000000
 NMagM=    2.7928460   2.7928460   0.0000000   0.0000000   0.0000000   0.0000000   2.7928460   0.0000000   2.7928460   0.0000000
 AtZNuc=   1.0000000   1.0000000   6.0000000   6.0000000   6.0000000   6.0000000   1.0000000   6.0000000   1.0000000   6.0000000

  Atom        21          22          23
 IAtWgt=           1           1           1
 AtmWgt=   1.0078250   1.0078250   1.0078250
 NucSpn=           1           1           1
 AtZEff=  -0.0000000  -0.0000000  -0.0000000
 NQMom=    0.0000000   0.0000000   0.0000000
 NMagM=    2.7928460   2.7928460   2.7928460
 AtZNuc=   1.0000000   1.0000000   1.0000000
 Leave Link  101 at Sat May 11 00:45:06 2019, MaxMem=   104857600 cpu:               4.9 elap:               0.2
 (Enter /opt/software/gaussian/g16.b01/l103.exe)

 GradGradGradGradGradGradGradGradGradGradGradGradGradGradGradGradGradGrad
 Berny optimization.
 Initialization pass.
                           ----------------------------
                           !    Initial Parameters    !
                           ! (Angstroms and Degrees)  !
 --------------------------                            --------------------------
 ! Name  Definition              Value          Derivative Info.                !
 --------------------------------------------------------------------------------
 ! R1    R(1,3)                  1.2306         estimate D2E/DX2                !
 ! R2    R(1,9)                  1.5141         estimate D2E/DX2                !
 ! R3    R(1,13)                 1.4938         estimate D2E/DX2                !
 ! R4    R(2,6)                  1.0179         estimate D2E/DX2                !
 ! R5    R(3,7)                  2.3            Scan                            !
 ! R6    R(4,5)                  1.0181         estimate D2E/DX2                !
 ! R7    R(4,6)                  1.451          estimate D2E/DX2                !
 ! R8    R(4,8)                  1.0214         estimate D2E/DX2                !
 ! R9    R(6,7)                  1.0215         estimate D2E/DX2                !
 ! R10   R(7,12)                 2.3409         estimate D2E/DX2                !
 ! R11   R(9,10)                 1.0948         estimate D2E/DX2                !
 ! R12   R(9,11)                 1.0951         estimate D2E/DX2                !
 ! R13   R(9,12)                 1.0896         estimate D2E/DX2                !
 ! R14   R(13,14)                1.4056         estimate D2E/DX2                !
 ! R15   R(13,15)                1.4046         estimate D2E/DX2                !
 ! R16   R(14,16)                1.3912         estimate D2E/DX2                !
 ! R17   R(14,17)                1.0845         estimate D2E/DX2                !
 ! R18   R(15,18)                1.3946         estimate D2E/DX2                !
 ! R19   R(15,19)                1.0843         estimate D2E/DX2                !
 ! R20   R(16,20)                1.3992         estimate D2E/DX2                !
 ! R21   R(16,21)                1.0856         estimate D2E/DX2                !
 ! R22   R(18,20)                1.3969         estimate D2E/DX2                !
 ! R23   R(18,22)                1.0854         estimate D2E/DX2                !
 ! R24   R(20,23)                1.0859         estimate D2E/DX2                !
 ! A1    A(3,1,9)              120.7396         estimate D2E/DX2                !
 ! A2    A(3,1,13)             120.231          estimate D2E/DX2                !
 ! A3    A(9,1,13)             119.0291         estimate D2E/DX2                !
 ! A4    A(1,3,7)              116.4158         estimate D2E/DX2                !
 ! A5    A(5,4,6)              106.0342         estimate D2E/DX2                !
 ! A6    A(5,4,8)              104.9215         estimate D2E/DX2                !
 ! A7    A(6,4,8)              109.1502         estimate D2E/DX2                !
 ! A8    A(2,6,4)              106.0632         estimate D2E/DX2                !
 ! A9    A(2,6,7)              106.2            estimate D2E/DX2                !
 ! A10   A(4,6,7)              108.4374         estimate D2E/DX2                !
 ! A11   A(3,7,6)              138.6996         estimate D2E/DX2                !
 ! A12   A(3,7,12)              65.5387         estimate D2E/DX2                !
 ! A13   A(6,7,12)             100.2054         estimate D2E/DX2                !
 ! A14   A(1,9,10)             110.5681         estimate D2E/DX2                !
 ! A15   A(1,9,11)             110.3986         estimate D2E/DX2                !
 ! A16   A(1,9,12)             109.7823         estimate D2E/DX2                !
 ! A17   A(10,9,11)            107.166          estimate D2E/DX2                !
 ! A18   A(10,9,12)            109.421          estimate D2E/DX2                !
 ! A19   A(11,9,12)            109.4593         estimate D2E/DX2                !
 ! A20   A(7,12,9)             127.2107         estimate D2E/DX2                !
 ! A21   A(1,13,14)            118.5141         estimate D2E/DX2                !
 ! A22   A(1,13,15)            122.3049         estimate D2E/DX2                !
 ! A23   A(14,13,15)           119.1809         estimate D2E/DX2                !
 ! A24   A(13,14,16)           120.4987         estimate D2E/DX2                !
 ! A25   A(13,14,17)           118.5558         estimate D2E/DX2                !
 ! A26   A(16,14,17)           120.9455         estimate D2E/DX2                !
 ! A27   A(13,15,18)           120.2636         estimate D2E/DX2                !
 ! A28   A(13,15,19)           120.5546         estimate D2E/DX2                !
 ! A29   A(18,15,19)           119.1818         estimate D2E/DX2                !
 ! A30   A(14,16,20)           119.9265         estimate D2E/DX2                !
 ! A31   A(14,16,21)           119.9941         estimate D2E/DX2                !
 ! A32   A(20,16,21)           120.0794         estimate D2E/DX2                !
 ! A33   A(15,18,20)           120.0746         estimate D2E/DX2                !
 ! A34   A(15,18,22)           119.8011         estimate D2E/DX2                !
 ! A35   A(20,18,22)           120.1243         estimate D2E/DX2                !
 ! A36   A(16,20,18)           120.0558         estimate D2E/DX2                !
 ! A37   A(16,20,23)           119.9914         estimate D2E/DX2                !
 ! A38   A(18,20,23)           119.9528         estimate D2E/DX2                !
 ! D1    D(9,1,3,7)              3.4465         estimate D2E/DX2                !
 ! D2    D(13,1,3,7)          -176.3442         estimate D2E/DX2                !
 ! D3    D(3,1,9,10)           121.7559         estimate D2E/DX2                !
 ! D4    D(3,1,9,11)          -119.8283         estimate D2E/DX2                !
 ! D5    D(3,1,9,12)             0.9333         estimate D2E/DX2                !
 ! D6    D(13,1,9,10)          -58.4509         estimate D2E/DX2                !
 ! D7    D(13,1,9,11)           59.9649         estimate D2E/DX2                !
 ! D8    D(13,1,9,12)         -179.2735         estimate D2E/DX2                !
 ! D9    D(3,1,13,14)            0.0148         estimate D2E/DX2                !
 ! D10   D(3,1,13,15)          179.8847         estimate D2E/DX2                !
 ! D11   D(9,1,13,14)         -179.7795         estimate D2E/DX2                !
 ! D12   D(9,1,13,15)            0.0905         estimate D2E/DX2                !
 ! D13   D(1,3,7,6)             73.2068         estimate D2E/DX2                !
 ! D14   D(1,3,7,12)            -3.9145         estimate D2E/DX2                !
 ! D15   D(5,4,6,2)            154.6            estimate D2E/DX2                !
 ! D16   D(5,4,6,7)            -91.6949         estimate D2E/DX2                !
 ! D17   D(8,4,6,2)            -92.8548         estimate D2E/DX2                !
 ! D18   D(8,4,6,7)             20.8503         estimate D2E/DX2                !
 ! D19   D(2,6,7,3)            124.1916         estimate D2E/DX2                !
 ! D20   D(2,6,7,12)          -171.4383         estimate D2E/DX2                !
 ! D21   D(4,6,7,3)             10.5768         estimate D2E/DX2                !
 ! D22   D(4,6,7,12)            74.9469         estimate D2E/DX2                !
 ! D23   D(3,7,12,9)             5.5518         estimate D2E/DX2                !
 ! D24   D(6,7,12,9)          -133.6236         estimate D2E/DX2                !
 ! D25   D(1,9,12,7)            -5.3086         estimate D2E/DX2                !
 ! D26   D(10,9,12,7)         -126.8213         estimate D2E/DX2                !
 ! D27   D(11,9,12,7)          116.0188         estimate D2E/DX2                !
 ! D28   D(1,13,14,16)         179.8933         estimate D2E/DX2                !
 ! D29   D(1,13,14,17)          -0.0809         estimate D2E/DX2                !
 ! D30   D(15,13,14,16)          0.0192         estimate D2E/DX2                !
 ! D31   D(15,13,14,17)       -179.955          estimate D2E/DX2                !
 ! D32   D(1,13,15,18)        -179.8716         estimate D2E/DX2                !
 ! D33   D(1,13,15,19)           0.0963         estimate D2E/DX2                !
 ! D34   D(14,13,15,18)         -0.0024         estimate D2E/DX2                !
 ! D35   D(14,13,15,19)        179.9654         estimate D2E/DX2                !
 ! D36   D(13,14,16,20)         -0.0182         estimate D2E/DX2                !
 ! D37   D(13,14,16,21)        179.9979         estimate D2E/DX2                !
 ! D38   D(17,14,16,20)        179.9554         estimate D2E/DX2                !
 ! D39   D(17,14,16,21)         -0.0285         estimate D2E/DX2                !
 ! D40   D(13,15,18,20)         -0.0152         estimate D2E/DX2                !
 ! D41   D(13,15,18,22)        179.9881         estimate D2E/DX2                !
 ! D42   D(19,15,18,20)       -179.9835         estimate D2E/DX2                !
 ! D43   D(19,15,18,22)          0.0198         estimate D2E/DX2                !
 ! D44   D(14,16,20,18)          0.0004         estimate D2E/DX2                !
 ! D45   D(14,16,20,23)       -179.9916         estimate D2E/DX2                !
 ! D46   D(21,16,20,18)        179.9842         estimate D2E/DX2                !
 ! D47   D(21,16,20,23)         -0.0077         estimate D2E/DX2                !
 ! D48   D(15,18,20,16)          0.0163         estimate D2E/DX2                !
 ! D49   D(15,18,20,23)       -179.9917         estimate D2E/DX2                !
 ! D50   D(22,18,20,16)       -179.987          estimate D2E/DX2                !
 ! D51   D(22,18,20,23)          0.0049         estimate D2E/DX2                !
 --------------------------------------------------------------------------------
 Trust Radius=3.00D-01 FncErr=1.00D-07 GrdErr=1.00D-06 EigMax=2.50D+02 EigMin=1.00D-04
 Number of optimizations in scan=  15
 Number of steps in this run=    123 maximum allowed number of steps=    138.
 GradGradGradGradGradGradGradGradGradGradGradGradGradGradGradGradGradGrad

 Leave Link  103 at Sat May 11 00:45:06 2019, MaxMem=   104857600 cpu:               0.6 elap:               0.0
 (Enter /opt/software/gaussian/g16.b01/l202.exe)
                          Input orientation:                          
 ---------------------------------------------------------------------
 Center     Atomic      Atomic             Coordinates (Angstroms)
 Number     Number       Type             X           Y           Z
 ---------------------------------------------------------------------
      1          6           0        0.568326    0.210816   -0.404695
      2          1           0        5.009679   -0.941195   -0.412848
      3          8           0        1.259404   -0.785877   -0.613115
      4          7           0        3.925826   -0.316774    1.134482
      5          1           0        3.607896    0.609902    1.411499
      6          7           0        4.324985   -0.204487   -0.255997
      7          1           0        3.520633   -0.433422   -0.842501
      8          1           0        3.096332   -0.909353    1.198157
      9          6           0        1.188036    1.592164   -0.386071
     10          1           0        0.715121    2.235994   -1.134627
     11          1           0        1.036166    2.065539    0.589738
     12          1           0        2.255536    1.520265   -0.592445
     13          6           0       -0.898822    0.071220   -0.161174
     14          6           0       -1.461944   -1.216508   -0.176239
     15          6           0       -1.727815    1.178365    0.083471
     16          6           0       -2.823394   -1.394418    0.047758
     17          1           0       -0.812423   -2.064189   -0.365400
     18          6           0       -3.092445    0.998613    0.308223
     19          1           0       -1.316817    2.181601    0.100673
     20          6           0       -3.641595   -0.285698    0.290616
     21          1           0       -3.249722   -2.392727    0.034242
     22          1           0       -3.726118    1.859493    0.496723
     23          1           0       -4.704364   -0.423359    0.465721
 ---------------------------------------------------------------------
                    Distance matrix (angstroms):
                    1          2          3          4          5
     1  C    0.000000
     2  H    4.588334   0.000000
     3  O    1.230620   3.758829   0.000000
     4  N    3.730981   1.989691   3.222415   0.000000
     5  H    3.563259   2.774732   3.400394   1.018109   0.000000
     6  N    3.782469   1.017913   3.140595   1.450989   1.989470
     7  H    3.053332   1.630857   2.300000   2.021447   2.485288
     8  H    3.196049   2.501449   2.582684   1.021403   1.617204
     9  C    1.514104   4.585148   2.389921   3.667645   3.170460
    10  H    2.157706   5.390614   3.114470   4.687654   4.182712
    11  H    2.155868   5.082758   3.102783   3.784481   3.067240
    12  H    2.143965   3.698154   2.512170   3.024377   2.583298
    13  C    1.493758   5.999892   2.365757   5.010638   4.803539
    14  C    2.492277   6.481797   2.789631   5.617435   5.617826
    15  C    2.539039   7.080444   3.642383   5.941693   5.527804
    16  C    3.779584   7.859682   4.180468   6.920568   6.873033
    17  H    2.661515   5.929607   2.447021   5.268217   5.463273
    18  C    3.811840   8.362249   4.792897   7.188120   6.801682
    19  H    2.773654   7.073903   3.994037   5.898809   5.333038
    20  C    4.295744   8.704544   5.008662   7.614390   7.390101
    21  H    4.642046   8.397889   4.830451   7.550404   7.611803
    22  H    4.687530   9.218748   5.751969   7.980922   7.495736
    23  H    5.381548   9.767429   6.071395   8.656719   8.429460
                    6          7          8          9         10
     6  N    0.000000
     7  H    1.021460   0.000000
     8  H    2.030022   2.137949   0.000000
     9  C    3.617364   3.122873   3.522635   0.000000
    10  H    4.445116   3.883557   4.583149   1.094761   0.000000
    11  H    4.084681   3.803773   3.669392   1.095149   1.762260
    12  H    2.714882   2.340916   3.133087   1.089640   1.783005
    13  C    5.231937   4.500050   4.332500   2.592070   2.870308
    14  C    5.875296   5.087554   4.770869   3.867178   4.192599
    15  C    6.218031   5.567898   5.373405   2.982262   2.927504
    16  C    7.253105   6.477867   6.049947   5.019905   5.205671
    17  H    5.464744   4.654289   4.365401   4.167875   4.627815
    18  C    7.535520   6.863504   6.537069   4.376856   4.255642
    19  H    6.136005   5.579323   5.498577   2.618901   2.378591
    20  C    7.985724   7.252812   6.827315   5.225859   5.231751
    21  H    7.889792   7.102483   6.620234   5.979107   6.205747
    22  H    8.345469   7.717926   7.396238   4.999970   4.746331
    23  H    9.060791   8.328393   7.850064   6.285560   6.245325
                   11         12         13         14         15
    11  H    0.000000
    12  H    1.783744   0.000000
    13  C    2.878429   3.497957   0.000000
    14  C    4.195129   4.634955   1.405552   0.000000
    15  C    2.946689   4.054731   1.404582   2.423541   0.000000
    16  C    5.211645   5.890736   2.428111   1.391177   2.796566
    17  H    4.624308   4.723583   2.146892   1.084538   3.399056
    18  C    4.273524   5.448323   2.427421   2.792848   1.394647
    19  H    2.406072   3.698579   2.167254   3.412461   1.084296
    20  C    5.243972   6.230365   2.802554   2.415624   2.418459
    21  H    6.209150   6.783223   3.411151   2.150336   3.882180
    22  H    4.767647   6.089462   3.409450   3.878291   2.151262
    23  H    6.258089   7.303259   3.888413   3.399189   3.401688
                   16         17         18         19         20
    16  C    0.000000
    17  H    2.159467   0.000000
    18  C    2.422154   3.877244   0.000000
    19  H    3.880784   4.300973   2.143687   0.000000
    20  C    1.399176   3.405525   1.396900   3.395326   0.000000
    21  H    1.085615   2.491601   3.406022   4.966388   2.158440
    22  H    3.406526   4.962676   1.085444   2.462791   2.156726
    23  H    2.157706   4.304682   2.155248   4.288887   1.085859
                   21         22         23
    21  H    0.000000
    22  H    4.303745   0.000000
    23  H    2.486075   2.483816   0.000000
 Stoichiometry    C8H12N2O
 Framework group  C1[X(C8H12N2O)]
 Deg. of freedom    63
 Full point group                 C1      NOp   1
 Largest Abelian subgroup         C1      NOp   1
 Largest concise Abelian subgroup C1      NOp   1
                         Standard orientation:                         
 ---------------------------------------------------------------------
 Center     Atomic      Atomic             Coordinates (Angstroms)
 Number     Number       Type             X           Y           Z
 ---------------------------------------------------------------------
      1          6           0        0.545073    0.205371   -0.402928
      2          1           0        4.985046   -0.951966   -0.408102
      3          8           0        1.234946   -0.792730   -0.608581
      4          7           0        3.902038   -0.321893    1.137528
      5          1           0        3.585233    0.605939    1.411952
      6          7           0        4.301243   -0.214001   -0.253286
      7          1           0        3.496581   -0.443626   -0.839094
      8          1           0        3.071840   -0.913299    1.202922
      9          6           0        1.166435    1.586025   -0.388233
     10          1           0        0.694243    2.228308   -1.138571
     11          1           0        1.015193    2.062328    0.586248
     12          1           0        2.233835    1.512268   -0.594467
     13          6           0       -0.922225    0.068216   -0.158927
     14          6           0       -1.486887   -1.218875   -0.170331
     15          6           0       -1.749879    1.177036    0.082647
     16          6           0       -2.848534   -1.394526    0.054248
     17          1           0       -0.838391   -2.067862   -0.357142
     18          6           0       -3.114709    0.999549    0.307986
     19          1           0       -1.337681    2.179824    0.096999
     20          6           0       -3.665394   -0.284149    0.294030
     21          1           0       -3.276056   -2.392359    0.043569
     22          1           0       -3.747340    1.861714    0.494098
     23          1           0       -4.728316   -0.420046    0.469586
 ---------------------------------------------------------------------
 Rotational constants (GHZ):           2.7374293           0.4512794           0.4117792
 Leave Link  202 at Sat May 11 00:45:06 2019, MaxMem=   104857600 cpu:               2.2 elap:               0.1
 (Enter /opt/software/gaussian/g16.b01/l301.exe)
 Standard basis: 6-31G(d,p) (6D, 7F)
 Ernie: Thresh=  0.10000D-02 Tol=  0.10000D-05 Strict=F.
 There are   225 symmetry adapted cartesian basis functions of A   symmetry.
 There are   225 symmetry adapted basis functions of A   symmetry.
   225 basis functions,   392 primitive gaussians,   225 cartesian basis functions
    41 alpha electrons       41 beta electrons
       nuclear repulsion energy       566.7484200189 Hartrees.
 IExCor=  402 DFT=T Ex+Corr=B3LYP ExCW=0 ScaHFX=  0.200000
 ScaDFX=  0.800000  0.720000  1.000000  0.810000 ScalE2=  1.000000  1.000000
 IRadAn=      5 IRanWt=     -1 IRanGd=            0 ICorTp=0 IEmpDi=131
 NAtoms=   23 NActive=   23 NUniq=   23 SFac= 1.00D+00 NAtFMM=   60 NAOKFM=F Big=F
 Integral buffers will be    131072 words long.
 Raffenetti 2 integral format.
 Two-electron integral symmetry is turned on.
 R6Disp:  Grimme-D3 Dispersion energy=       -0.0170489256 Hartrees.
 Nuclear repulsion after empirical dispersion term =      566.7313710933 Hartrees.
 ------------------------------------------------------------------------------
 Polarizable Continuum Model (PCM)
 =================================
 Model                : PCM.
 Atomic radii         : UFF (Universal Force Field).
 Polarization charges : Total charges.
 Charge compensation  : None.
 Solution method      : On-the-fly selection.
 Cavity type          : Scaled VdW (van der Waals Surface) (Alpha=1.100).
 Cavity algorithm     : GePol (No added spheres)
                        Default sphere list used, NSphG=   23.
                        Lebedev-Laikov grids with approx.  5.0 points / Ang**2.
                        Smoothing algorithm: York/Karplus (Gamma=1.0000).
                        Polarization charges: spherical gaussians, with
                                              point-specific exponents (IZeta= 3).
                        Self-potential: point-specific (ISelfS= 7).
                        Self-field    : sphere-specific E.n sum rule (ISelfD= 2).
 1st derivatives      : Analytical E(r).r(x)/FMM algorithm (CHGder, D1EAlg=3).
                        Cavity 1st derivative terms included.
 Solvent              : Acetonitrile, Eps=  35.688000 Eps(inf)=   1.806874
 ------------------------------------------------------------------------------
 GePol: Number of generator spheres                  =      23
 GePol: Total number of spheres                      =      23
 GePol: Number of exposed spheres                    =      23 (100.00%)
 GePol: Number of points                             =    1856
 GePol: Average weight of points                     =       0.13
 GePol: Minimum weight of points                     =   0.11D-11
 GePol: Maximum weight of points                     =    0.20577
 GePol: Number of points with low weight             =     115
 GePol: Fraction of low-weight points (<1% of avg)   =       6.20%
 GePol: Cavity surface area                          =    242.197 Ang**2
 GePol: Cavity volume                                =    244.665 Ang**3
 Leave Link  301 at Sat May 11 00:45:06 2019, MaxMem=   104857600 cpu:               2.9 elap:               0.1
 (Enter /opt/software/gaussian/g16.b01/l302.exe)
 NPDir=0 NMtPBC=     1 NCelOv=     1 NCel=       1 NClECP=     1 NCelD=      1
         NCelK=      1 NCelE2=     1 NClLst=     1 CellRange=     0.0.
 One-electron integrals computed using PRISM.
 One-electron integral symmetry used in STVInt
 PrsmSu:  requested number of processors reduced to:  29 ShMem   1 Linda.
 NBasis=   225 RedAO= T EigKep=  4.70D-04  NBF=   225
 NBsUse=   225 1.00D-06 EigRej= -1.00D+00 NBFU=   225
 Precomputing XC quadrature grid using
 IXCGrd= 4 IRadAn=           5 IRanWt=          -1 IRanGd=           0 AccXCQ= 0.00D+00.
 Generated NRdTot=       0 NPtTot=           0 NUsed=           0 NTot=          32
 NSgBfM=   224   224   224   224   224 MxSgAt=    23 MxSgA2=    23.
 Leave Link  302 at Sat May 11 00:45:06 2019, MaxMem=   104857600 cpu:               7.9 elap:               0.3
 (Enter /opt/software/gaussian/g16.b01/l303.exe)
 DipDrv:  MaxL=1.
 Leave Link  303 at Sat May 11 00:45:06 2019, MaxMem=   104857600 cpu:               2.0 elap:               0.1
 (Enter /opt/software/gaussian/g16.b01/l308.exe)
 Leave Link  308 at Sat May 11 00:45:07 2019, MaxMem=   104857600 cpu:               1.3 elap:               0.1
 (Enter /opt/software/gaussian/g16.b01/l401.exe)
 Core hamiltonian diagonalized for initial guess.
 JPrj=0 DoOrth=F DoCkMO=T.
 Mixing orbitals, IMix= 1 IMixAn=  0 NRI=1 NE=   41 Coef=  7.07106781D-01  7.07106781D-01
 Mixing orbitals, IMix= 1 IMixAn=  0 NRI=1 NE=   41 Coef= -7.07106781D-01  7.07106781D-01
 Initial guess <Sx>= 0.0000 <Sy>= 0.0000 <Sz>= 0.0000 <S**2>= 1.0000 S= 0.6180
 Leave Link  401 at Sat May 11 00:45:07 2019, MaxMem=   104857600 cpu:               3.6 elap:               0.1
 (Enter /opt/software/gaussian/g16.b01/l502.exe)
 Integral symmetry usage will be decided dynamically.
 UHF open shell SCF:
 Using DIIS extrapolation, IDIIS=  1040.
 NGot=   104857600 LenX=   104746616 LenY=   104695550
 Requested convergence on RMS density matrix=1.00D-08 within 128 cycles.
 Requested convergence on MAX density matrix=1.00D-06.
 Requested convergence on             energy=1.00D-06.
 No special actions if energy rises.
 Fock matrices will be formed incrementally for  20 cycles.

 Cycle   1  Pass 1  IDiag  1:
 FoFJK:  IHMeth= 1 ICntrl=       0 DoSepK=F KAlg= 0 I1Cent=           0 FoldK=F
 IRaf= 830000000 NMat=       1 IRICut=       1 DoRegI=T DoRafI=F ISym2E= 0 IDoP0=0 IntGTp=1.
 FoFCou: FMM=F IPFlag=           0 FMFlag=      100000 FMFlg1=           0
         NFxFlg=           0 DoJE=F BraDBF=F KetDBF=F FulRan=T
         wScrn=  0.000000 ICntrl=         0 IOpCl=  1 I1Cent=           0 NGrid=           0
         NMat0=    1 NMatS0=      1 NMatT0=    0 NMatD0=    1 NMtDS0=    0 NMtDT0=    0
 Symmetry not used in FoFCou.
 Inv3:  Mode=1 IEnd=    10334208.
 Iteration    1 A*A^-1 deviation from unit magnitude is 3.44D-15 for     27.
 Iteration    1 A*A^-1 deviation from orthogonality  is 2.68D-15 for   1267    811.
 Iteration    1 A^-1*A deviation from unit magnitude is 3.33D-15 for   1650.
 Iteration    1 A^-1*A deviation from orthogonality  is 1.59D-13 for    969    939.
 E= -317.680720873123    
 DIIS: error= 4.46D-01 at cycle   1 NSaved=   1.
 NSaved= 1 IEnMin= 1 EnMin= -317.680720873123     IErMin= 1 ErrMin= 4.46D-01
 ErrMax= 4.46D-01  0.00D+00 EMaxC= 1.00D-01 BMatC= 3.36D+02 BMatP= 3.36D+02
 IDIUse=3 WtCom= 0.00D+00 WtEn= 1.00D+00
 Coeff-Com:  0.100D+01
 Coeff-En:   0.100D+01
 Coeff:      0.100D+01
 Gap=     1.520 Goal=   None    Shift=    0.000
 Gap=    -1.283 Goal=   None    Shift=    0.000
 GapD=   -1.283 DampG=0.250 DampE=0.250 DampFc=0.2500 IDamp=-1.
 Damping current iteration by 2.50D-01
 RMSDP=9.31D-02 MaxDP=4.54D+00              OVMax= 1.00D+00

 Cycle   2  Pass 1  IDiag  1:
 RMSU=  1.30D-02    CP:  7.61D-01
 E= -401.537984481082     Delta-E=      -83.857263607960 Rises=F Damp=T
 DIIS: error= 2.70D-01 at cycle   2 NSaved=   2.
 NSaved= 2 IEnMin= 2 EnMin= -401.537984481082     IErMin= 2 ErrMin= 2.70D-01
 ErrMax= 2.70D-01  0.00D+00 EMaxC= 1.00D-01 BMatC= 1.17D+02 BMatP= 3.36D+02
 IDIUse=3 WtCom= 0.00D+00 WtEn= 1.00D+00
 Coeff-Com: -0.128D+01 0.228D+01
 Coeff-En:   0.000D+00 0.100D+01
 Coeff:      0.000D+00 0.100D+01
 Gap=     0.670 Goal=   None    Shift=    0.000
 Gap=     1.481 Goal=   None    Shift=    0.000
 RMSDP=1.39D-01 MaxDP=8.35D+00 DE=-8.39D+01 OVMax= 1.00D+00

 Cycle   3  Pass 1  IDiag  1:
 RMSU=  1.30D-01    CP:  2.08D-01  2.30D+00
 E= -422.628721524705     Delta-E=      -21.090737043623 Rises=F Damp=F
 DIIS: error= 1.80D-01 at cycle   3 NSaved=   3.
 NSaved= 3 IEnMin= 3 EnMin= -422.628721524705     IErMin= 3 ErrMin= 1.80D-01
 ErrMax= 1.80D-01  0.00D+00 EMaxC= 1.00D-01 BMatC= 8.76D+01 BMatP= 1.17D+02
 IDIUse=3 WtCom= 0.00D+00 WtEn= 1.00D+00
 EnCoef did   100 forward-backward iterations
 Coeff-Com: -0.109D+01 0.196D+01 0.133D+00
 Coeff-En:   0.339D+00 0.748D-03 0.661D+00
 Coeff:      0.339D+00 0.748D-03 0.661D+00
 Gap=    -0.064 Goal=   None    Shift=    0.000
 Gap=    -0.079 Goal=   None    Shift=    0.000
 RMSDP=1.38D-01 MaxDP=8.51D+00 DE=-2.11D+01 OVMax= 9.98D-01

 Cycle   4  Pass 1  IDiag  1:
 RMSU=  5.88D-02    CP:  2.04D-01  5.37D-01  5.84D-02
 E= -462.285108057428     Delta-E=      -39.656386532723 Rises=F Damp=F
 DIIS: error= 1.25D-01 at cycle   4 NSaved=   4.
 NSaved= 4 IEnMin= 4 EnMin= -462.285108057428     IErMin= 4 ErrMin= 1.25D-01
 ErrMax= 1.25D-01  0.00D+00 EMaxC= 1.00D-01 BMatC= 6.01D+01 BMatP= 8.76D+01
 IDIUse=3 WtCom= 0.00D+00 WtEn= 1.00D+00
 EnCoef did     6 forward-backward iterations
 Coeff-Com: -0.887D+00 0.158D+01 0.118D+00 0.193D+00
 Coeff-En:   0.329D-01 0.000D+00 0.348D+00 0.619D+00
 Coeff:      0.329D-01 0.000D+00 0.348D+00 0.619D+00
 Gap=    -0.512 Goal=   None    Shift=    0.000
 Gap=    -0.506 Goal=   None    Shift=    0.000
 RMSDP=8.04D-02 MaxDP=2.23D+00 DE=-3.97D+01 OVMax= 9.95D-01

 Cycle   5  Pass 1  IDiag  1:
 RMSU=  5.80D-02    CP:  2.66D-01  4.13D-01  9.35D-02  6.13D-02
 E= -388.432970850582     Delta-E=       73.852137206846 Rises=F Damp=F
 DIIS: error= 4.26D-01 at cycle   5 NSaved=   5.
 NSaved= 5 IEnMin= 4 EnMin= -462.285108057428     IErMin= 4 ErrMin= 1.25D-01
 ErrMax= 4.26D-01  0.00D+00 EMaxC= 1.00D-01 BMatC= 2.02D+02 BMatP= 6.01D+01
 IDIUse=2 WtCom= 0.00D+00 WtEn= 1.00D+00
 EnCoef did     5 forward-backward iterations
 Coeff-En:   0.000D+00 0.000D+00 0.231D+00 0.573D+00 0.196D+00
 Coeff:      0.000D+00 0.000D+00 0.231D+00 0.573D+00 0.196D+00
 Gap=     0.036 Goal=   None    Shift=    0.000
 Gap=     0.036 Goal=   None    Shift=    0.000
 RMSDP=5.80D-02 MaxDP=2.39D+00 DE= 7.39D+01 OVMax= 9.99D-01

 Cycle   6  Pass 1  IDiag  1:
 RMSU=  1.83D-02    CP:  8.42D-02  4.21D-01  2.15D-02  6.59D-02  9.89D-02
 E= -492.826296884388     Delta-E=     -104.393326033806 Rises=F Damp=F
 DIIS: error= 8.08D-02 at cycle   6 NSaved=   6.
 NSaved= 6 IEnMin= 6 EnMin= -492.826296884388     IErMin= 6 ErrMin= 8.08D-02
 ErrMax= 8.08D-02  0.00D+00 EMaxC= 1.00D-01 BMatC= 1.20D+01 BMatP= 6.01D+01
 IDIUse=3 WtCom= 1.92D-01 WtEn= 8.08D-01
 Coeff-Com: -0.370D+00 0.663D+00 0.118D-01 0.155D+00-0.159D-01 0.556D+00
 Coeff-En:   0.000D+00 0.000D+00 0.000D+00 0.136D+00 0.000D+00 0.864D+00
 Coeff:     -0.710D-01 0.127D+00 0.226D-02 0.140D+00-0.305D-02 0.805D+00
 Gap=    -0.244 Goal=   None    Shift=    0.000
 Gap=    -0.241 Goal=   None    Shift=    0.000
 RMSDP=1.37D-02 MaxDP=4.96D-01 DE=-1.04D+02 OVMax= 7.41D-01

 Cycle   7  Pass 1  IDiag  1:
 RMSU=  1.23D-02    CP:  8.52D-02  3.62D-01  1.01D-02  1.05D-01  5.01D-02
                    CP:  7.48D-01
 E= -492.878852960923     Delta-E=       -0.052556076536 Rises=F Damp=F
 DIIS: error= 8.94D-02 at cycle   7 NSaved=   7.
 NSaved= 7 IEnMin= 7 EnMin= -492.878852960923     IErMin= 6 ErrMin= 8.08D-02
 ErrMax= 8.94D-02  0.00D+00 EMaxC= 1.00D-01 BMatC= 1.34D+01 BMatP= 1.20D+01
 IDIUse=2 WtCom= 0.00D+00 WtEn= 1.00D+00
 Coeff-En:   0.000D+00 0.000D+00 0.000D+00 0.000D+00 0.000D+00 0.497D+00
 Coeff-En:   0.503D+00
 Coeff:      0.000D+00 0.000D+00 0.000D+00 0.000D+00 0.000D+00 0.497D+00
 Coeff:      0.503D+00
 Gap=     0.021 Goal=   None    Shift=    0.000
 Gap=     0.021 Goal=   None    Shift=    0.000
 RMSDP=1.47D-02 MaxDP=5.66D-01 DE=-5.26D-02 OVMax= 9.76D-01

 Cycle   8  Pass 1  IDiag  1:
 RMSU=  1.30D-02    CP:  7.63D-02  5.84D-01  1.76D-02  1.05D-01  4.08D-02
                    CP:  7.77D-01  5.13D-01
 E= -492.693136616999     Delta-E=        0.185716343924 Rises=F Damp=F
 DIIS: error= 1.04D-01 at cycle   8 NSaved=   8.
 NSaved= 8 IEnMin= 7 EnMin= -492.878852960923     IErMin= 6 ErrMin= 8.08D-02
 ErrMax= 1.04D-01  0.00D+00 EMaxC= 1.00D-01 BMatC= 1.20D+01 BMatP= 1.20D+01
 IDIUse=3 WtCom= 1.92D-01 WtEn= 8.08D-01
 EnCoef did     3 forward-backward iterations
 Coeff-Com: -0.776D-01 0.135D+00-0.151D-01-0.118D-01-0.580D-02 0.373D+00
 Coeff-Com:  0.333D+00 0.269D+00
 Coeff-En:   0.000D+00 0.000D+00 0.000D+00 0.000D+00 0.000D+00 0.365D+00
 Coeff-En:   0.368D+00 0.267D+00
 Coeff:     -0.149D-01 0.259D-01-0.290D-02-0.226D-02-0.111D-02 0.366D+00
 Coeff:      0.361D+00 0.268D+00
 Gap=     0.008 Goal=   None    Shift=    0.000
 Gap=     0.008 Goal=   None    Shift=    0.000
 RMSDP=1.23D-02 MaxDP=5.02D-01 DE= 1.86D-01 OVMax= 7.12D-01

 Cycle   9  Pass 1  IDiag  1:
 RMSU=  4.88D-03    CP:  7.45D-02  3.92D-01  1.07D-02  8.17D-02  5.47D-02
                    CP:  8.53D-01  4.87D-01  1.77D-01
 E= -496.785383383133     Delta-E=       -4.092246766134 Rises=F Damp=F
 DIIS: error= 9.50D-03 at cycle   9 NSaved=   9.
 NSaved= 9 IEnMin= 9 EnMin= -496.785383383133     IErMin= 9 ErrMin= 9.50D-03
 ErrMax= 9.50D-03  0.00D+00 EMaxC= 1.00D-01 BMatC= 1.22D-01 BMatP= 1.20D+01
 IDIUse=3 WtCom= 9.05D-01 WtEn= 9.50D-02
 Coeff-Com: -0.636D-02 0.148D-01-0.167D-02 0.335D-02 0.268D-02 0.375D-01
 Coeff-Com: -0.632D-02 0.558D-01 0.900D+00
 Coeff-En:   0.000D+00 0.000D+00 0.000D+00 0.000D+00 0.000D+00 0.000D+00
 Coeff-En:   0.000D+00 0.000D+00 0.100D+01
 Coeff:     -0.576D-02 0.134D-01-0.152D-02 0.303D-02 0.243D-02 0.339D-01
 Coeff:     -0.572D-02 0.505D-01 0.910D+00
 Gap=     0.153 Goal=   None    Shift=    0.000
 Gap=     0.153 Goal=   None    Shift=    0.000
 RMSDP=1.15D-03 MaxDP=3.49D-02 DE=-4.09D+00 OVMax= 5.43D-02

 Cycle  10  Pass 1  IDiag  1:
 RMSU=  1.07D-03    CP:  7.53D-02  3.96D-01  1.06D-02  8.22D-02  5.64D-02
                    CP:  8.58D-01  4.60D-01  1.80D-01  1.03D+00
 E= -496.802454121041     Delta-E=       -0.017070737908 Rises=F Damp=F
 DIIS: error= 7.81D-03 at cycle  10 NSaved=  10.
 NSaved=10 IEnMin=10 EnMin= -496.802454121041     IErMin=10 ErrMin= 7.81D-03
 ErrMax= 7.81D-03  0.00D+00 EMaxC= 1.00D-01 BMatC= 4.60D-02 BMatP= 1.22D-01
 IDIUse=3 WtCom= 9.22D-01 WtEn= 7.81D-02
 Coeff-Com: -0.140D-02 0.364D-02-0.928D-04 0.173D-03 0.995D-03 0.371D-02
 Coeff-Com: -0.402D-02 0.307D-01 0.392D+00 0.574D+00
 Coeff-En:   0.000D+00 0.000D+00 0.000D+00 0.000D+00 0.000D+00 0.000D+00
 Coeff-En:   0.000D+00 0.000D+00 0.195D+00 0.805D+00
 Coeff:     -0.129D-02 0.336D-02-0.856D-04 0.160D-03 0.917D-03 0.342D-02
 Coeff:     -0.370D-02 0.283D-01 0.377D+00 0.592D+00
 Gap=     0.175 Goal=   None    Shift=    0.000
 Gap=     0.175 Goal=   None    Shift=    0.000
 RMSDP=5.02D-04 MaxDP=1.95D-02 DE=-1.71D-02 OVMax= 3.21D-02

 Cycle  11  Pass 1  IDiag  1:
 RMSU=  3.40D-04    CP:  7.51D-02  3.96D-01  1.06D-02  8.17D-02  5.60D-02
                    CP:  8.57D-01  4.66D-01  1.82D-01  1.02D+00  6.70D-01
 E= -496.810621094128     Delta-E=       -0.008166973087 Rises=F Damp=F
 DIIS: error= 3.71D-03 at cycle  11 NSaved=  11.
 NSaved=11 IEnMin=11 EnMin= -496.810621094128     IErMin=11 ErrMin= 3.71D-03
 ErrMax= 3.71D-03  0.00D+00 EMaxC= 1.00D-01 BMatC= 1.02D-02 BMatP= 4.60D-02
 IDIUse=3 WtCom= 9.63D-01 WtEn= 3.71D-02
 Coeff-Com: -0.143D-03 0.755D-04-0.395D-03 0.119D-03-0.220D-03-0.304D-02
 Coeff-Com: -0.424D-02 0.111D-01 0.813D-01 0.337D+00 0.579D+00
 Coeff-En:   0.000D+00 0.000D+00 0.000D+00 0.000D+00 0.000D+00 0.000D+00
 Coeff-En:   0.000D+00 0.000D+00 0.000D+00 0.136D+00 0.864D+00
 Coeff:     -0.137D-03 0.727D-04-0.380D-03 0.115D-03-0.212D-03-0.293D-02
 Coeff:     -0.408D-02 0.107D-01 0.783D-01 0.329D+00 0.589D+00
 Gap=     0.176 Goal=   None    Shift=    0.000
 Gap=     0.176 Goal=   None    Shift=    0.000
 RMSDP=2.14D-04 MaxDP=1.14D-02 DE=-8.17D-03 OVMax= 1.48D-02

 Cycle  12  Pass 1  IDiag  1:
 RMSU=  1.32D-04    CP:  7.49D-02  3.96D-01  1.06D-02  8.21D-02  5.59D-02
                    CP:  8.56D-01  4.65D-01  1.84D-01  1.03D+00  7.54D-01
                    CP:  6.12D-01
 E= -496.812415902283     Delta-E=       -0.001794808155 Rises=F Damp=F
 DIIS: error= 1.33D-03 at cycle  12 NSaved=  12.
 NSaved=12 IEnMin=12 EnMin= -496.812415902283     IErMin=12 ErrMin= 1.33D-03
 ErrMax= 1.33D-03  0.00D+00 EMaxC= 1.00D-01 BMatC= 1.37D-03 BMatP= 1.02D-02
 IDIUse=3 WtCom= 9.87D-01 WtEn= 1.33D-02
 Coeff-Com: -0.893D-04 0.152D-03-0.141D-03 0.170D-03-0.240D-03-0.196D-02
 Coeff-Com: -0.715D-03 0.655D-02 0.119D-01 0.122D+00 0.317D+00 0.546D+00
 Coeff-En:   0.000D+00 0.000D+00 0.000D+00 0.000D+00 0.000D+00 0.000D+00
 Coeff-En:   0.000D+00 0.000D+00 0.000D+00 0.000D+00 0.000D+00 0.100D+01
 Coeff:     -0.881D-04 0.150D-03-0.140D-03 0.168D-03-0.237D-03-0.194D-02
 Coeff:     -0.705D-03 0.646D-02 0.118D-01 0.120D+00 0.313D+00 0.552D+00
 Gap=     0.176 Goal=   None    Shift=    0.000
 Gap=     0.176 Goal=   None    Shift=    0.000
 RMSDP=8.37D-05 MaxDP=4.09D-03 DE=-1.79D-03 OVMax= 5.27D-03

 Cycle  13  Pass 1  IDiag  1:
 RMSU=  6.18D-05    CP:  7.50D-02  3.96D-01  1.06D-02  8.19D-02  5.59D-02
                    CP:  8.56D-01  4.65D-01  1.84D-01  1.03D+00  7.25D-01
                    CP:  6.47D-01  7.22D-01
 E= -496.812626527122     Delta-E=       -0.000210624840 Rises=F Damp=F
 DIIS: error= 7.29D-04 at cycle  13 NSaved=  13.
 NSaved=13 IEnMin=13 EnMin= -496.812626527122     IErMin=13 ErrMin= 7.29D-04
 ErrMax= 7.29D-04  0.00D+00 EMaxC= 1.00D-01 BMatC= 3.22D-04 BMatP= 1.37D-03
 IDIUse=3 WtCom= 9.93D-01 WtEn= 7.29D-03
 Coeff-Com:  0.371D-04-0.109D-04-0.611D-04 0.207D-03-0.331D-04-0.174D-02
 Coeff-Com:  0.345D-03 0.183D-02-0.270D-01-0.305D-01 0.365D-01 0.304D+00
 Coeff-Com:  0.717D+00
 Coeff-En:   0.000D+00 0.000D+00 0.000D+00 0.000D+00 0.000D+00 0.000D+00
 Coeff-En:   0.000D+00 0.000D+00 0.000D+00 0.000D+00 0.000D+00 0.000D+00
 Coeff-En:   0.100D+01
 Coeff:      0.368D-04-0.109D-04-0.606D-04 0.206D-03-0.328D-04-0.172D-02
 Coeff:      0.342D-03 0.182D-02-0.268D-01-0.303D-01 0.362D-01 0.302D+00
 Coeff:      0.719D+00
 Gap=     0.178 Goal=   None    Shift=    0.000
 Gap=     0.178 Goal=   None    Shift=    0.000
 RMSDP=4.22D-05 MaxDP=1.31D-03 DE=-2.11D-04 OVMax= 2.86D-03

 Cycle  14  Pass 1  IDiag  1:
 RMSU=  3.34D-05    CP:  7.50D-02  3.96D-01  1.06D-02  8.20D-02  5.59D-02
                    CP:  8.56D-01  4.66D-01  1.85D-01  1.03D+00  7.28D-01
                    CP:  6.76D-01  8.49D-01  9.67D-01
 E= -496.812702518512     Delta-E=       -0.000075991389 Rises=F Damp=F
 DIIS: error= 2.08D-04 at cycle  14 NSaved=  14.
 NSaved=14 IEnMin=14 EnMin= -496.812702518512     IErMin=14 ErrMin= 2.08D-04
 ErrMax= 2.08D-04  0.00D+00 EMaxC= 1.00D-01 BMatC= 4.60D-05 BMatP= 3.22D-04
 IDIUse=3 WtCom= 9.98D-01 WtEn= 2.08D-03
 Coeff-Com: -0.799D-05 0.146D-04-0.135D-04-0.336D-04 0.495D-04-0.793D-03
 Coeff-Com:  0.588D-03 0.238D-03-0.435D-02-0.166D-01-0.190D-01-0.478D-01
 Coeff-Com:  0.236D+00 0.852D+00
 Coeff-En:   0.000D+00 0.000D+00 0.000D+00 0.000D+00 0.000D+00 0.000D+00
 Coeff-En:   0.000D+00 0.000D+00 0.000D+00 0.000D+00 0.000D+00 0.000D+00
 Coeff-En:   0.000D+00 0.100D+01
 Coeff:     -0.797D-05 0.146D-04-0.135D-04-0.335D-04 0.494D-04-0.791D-03
 Coeff:      0.587D-03 0.237D-03-0.434D-02-0.166D-01-0.190D-01-0.477D-01
 Coeff:      0.235D+00 0.852D+00
 Gap=     0.178 Goal=   None    Shift=    0.000
 Gap=     0.178 Goal=   None    Shift=    0.000
 RMSDP=1.71D-05 MaxDP=7.46D-04 DE=-7.60D-05 OVMax= 9.50D-04

 Cycle  15  Pass 1  IDiag  1:
 RMSU=  1.04D-05    CP:  7.50D-02  3.96D-01  1.06D-02  8.20D-02  5.59D-02
                    CP:  8.56D-01  4.66D-01  1.85D-01  1.03D+00  7.21D-01
                    CP:  6.79D-01  8.61D-01  1.11D+00  1.01D+00
 E= -496.812710932344     Delta-E=       -0.000008413832 Rises=F Damp=F
 DIIS: error= 7.12D-05 at cycle  15 NSaved=  15.
 NSaved=15 IEnMin=15 EnMin= -496.812710932344     IErMin=15 ErrMin= 7.12D-05
 ErrMax= 7.12D-05  0.00D+00 EMaxC= 1.00D-01 BMatC= 7.45D-06 BMatP= 4.60D-05
 IDIUse=1 WtCom= 1.00D+00 WtEn= 0.00D+00
 Coeff-Com: -0.745D-05 0.128D-04-0.569D-05-0.700D-05-0.145D-05-0.146D-03
 Coeff-Com:  0.183D-03-0.719D-04 0.300D-02 0.230D-02-0.774D-03-0.593D-01
 Coeff-Com:  0.369D-01 0.410D+00 0.608D+00
 Coeff:     -0.745D-05 0.128D-04-0.569D-05-0.700D-05-0.145D-05-0.146D-03
 Coeff:      0.183D-03-0.719D-04 0.300D-02 0.230D-02-0.774D-03-0.593D-01
 Coeff:      0.369D-01 0.410D+00 0.608D+00
 Gap=     0.178 Goal=   None    Shift=    0.000
 Gap=     0.178 Goal=   None    Shift=    0.000
 RMSDP=5.80D-06 MaxDP=2.20D-04 DE=-8.41D-06 OVMax= 4.58D-04

 Cycle  16  Pass 1  IDiag  1:
 RMSU=  2.79D-06    CP:  7.50D-02  3.96D-01  1.06D-02  8.20D-02  5.59D-02
                    CP:  8.56D-01  4.66D-01  1.85D-01  1.03D+00  7.21D-01
                    CP:  6.75D-01  8.41D-01  1.10D+00  1.03D+00  6.55D-01
 E= -496.812712698674     Delta-E=       -0.000001766331 Rises=F Damp=F
 DIIS: error= 1.47D-05 at cycle  16 NSaved=  16.
 NSaved=16 IEnMin=16 EnMin= -496.812712698674     IErMin=16 ErrMin= 1.47D-05
 ErrMax= 1.47D-05  0.00D+00 EMaxC= 1.00D-01 BMatC= 3.01D-07 BMatP= 7.45D-06
 IDIUse=1 WtCom= 1.00D+00 WtEn= 0.00D+00
 Coeff-Com: -0.225D-05 0.551D-05 0.432D-06 0.490D-05-0.160D-05-0.324D-04
 Coeff-Com:  0.409D-04-0.272D-04 0.133D-02 0.253D-02 0.274D-02-0.205D-01
 Coeff-Com:  0.591D-02 0.969D-01 0.213D+00 0.698D+00
 Coeff:     -0.225D-05 0.551D-05 0.432D-06 0.490D-05-0.160D-05-0.324D-04
 Coeff:      0.409D-04-0.272D-04 0.133D-02 0.253D-02 0.274D-02-0.205D-01
 Coeff:      0.591D-02 0.969D-01 0.213D+00 0.698D+00
 Gap=     0.178 Goal=   None    Shift=    0.000
 Gap=     0.178 Goal=   None    Shift=    0.000
 RMSDP=1.56D-06 MaxDP=5.01D-05 DE=-1.77D-06 OVMax= 1.10D-04

 Cycle  17  Pass 1  IDiag  1:
 RMSU=  1.19D-06    CP:  7.50D-02  3.96D-01  1.06D-02  8.20D-02  5.59D-02
                    CP:  8.56D-01  4.66D-01  1.85D-01  1.03D+00  7.21D-01
                    CP:  6.75D-01  8.35D-01  1.10D+00  1.03D+00  6.80D-01
                    CP:  8.19D-01
 E= -496.812712752034     Delta-E=       -0.000000053360 Rises=F Damp=F
 DIIS: error= 7.11D-06 at cycle  17 NSaved=  17.
 NSaved=17 IEnMin=17 EnMin= -496.812712752034     IErMin=17 ErrMin= 7.11D-06
 ErrMax= 7.11D-06  0.00D+00 EMaxC= 1.00D-01 BMatC= 7.84D-08 BMatP= 3.01D-07
 IDIUse=1 WtCom= 1.00D+00 WtEn= 0.00D+00
 Coeff-Com:  0.257D-06-0.223D-06-0.399D-06 0.826D-06 0.668D-06-0.532D-05
 Coeff-Com:  0.498D-05-0.565D-06 0.186D-03 0.851D-03 0.144D-02-0.311D-02
 Coeff-Com: -0.752D-03-0.733D-02 0.222D-01 0.386D+00 0.600D+00
 Coeff:      0.257D-06-0.223D-06-0.399D-06 0.826D-06 0.668D-06-0.532D-05
 Coeff:      0.498D-05-0.565D-06 0.186D-03 0.851D-03 0.144D-02-0.311D-02
 Coeff:     -0.752D-03-0.733D-02 0.222D-01 0.386D+00 0.600D+00
 Gap=     0.178 Goal=   None    Shift=    0.000
 Gap=     0.178 Goal=   None    Shift=    0.000
 RMSDP=6.37D-07 MaxDP=2.61D-05 DE=-5.34D-08 OVMax= 6.68D-05

 Cycle  18  Pass 1  IDiag  1:
 RMSU=  2.98D-07    CP:  7.50D-02  3.96D-01  1.06D-02  8.20D-02  5.59D-02
                    CP:  8.56D-01  4.66D-01  1.85D-01  1.03D+00  7.21D-01
                    CP:  6.75D-01  8.35D-01  1.10D+00  1.03D+00  6.86D-01
                    CP:  9.27D-01  6.22D-01
 E= -496.812712771411     Delta-E=       -0.000000019377 Rises=F Damp=F
 DIIS: error= 1.96D-06 at cycle  18 NSaved=  18.
 NSaved=18 IEnMin=18 EnMin= -496.812712771411     IErMin=18 ErrMin= 1.96D-06
 ErrMax= 1.96D-06  0.00D+00 EMaxC= 1.00D-01 BMatC= 3.22D-09 BMatP= 7.84D-08
 IDIUse=1 WtCom= 1.00D+00 WtEn= 0.00D+00
 Coeff-Com:  0.449D-06-0.878D-06-0.173D-06-0.106D-06 0.148D-06-0.780D-06
 Coeff-Com:  0.187D-06-0.433D-06 0.644D-05 0.246D-03 0.474D-03 0.226D-04
 Coeff-Com: -0.106D-02-0.902D-02-0.400D-02 0.118D+00 0.252D+00 0.643D+00
 Coeff:      0.449D-06-0.878D-06-0.173D-06-0.106D-06 0.148D-06-0.780D-06
 Coeff:      0.187D-06-0.433D-06 0.644D-05 0.246D-03 0.474D-03 0.226D-04
 Coeff:     -0.106D-02-0.902D-02-0.400D-02 0.118D+00 0.252D+00 0.643D+00
 Gap=     0.178 Goal=   None    Shift=    0.000
 Gap=     0.178 Goal=   None    Shift=    0.000
 RMSDP=1.77D-07 MaxDP=9.08D-06 DE=-1.94D-08 OVMax= 2.53D-05

 Cycle  19  Pass 1  IDiag  1:
 RMSU=  1.34D-07    CP:  7.50D-02  3.96D-01  1.06D-02  8.20D-02  5.59D-02
                    CP:  8.56D-01  4.66D-01  1.85D-01  1.03D+00  7.21D-01
                    CP:  6.75D-01  8.35D-01  1.10D+00  1.03D+00  6.88D-01
                    CP:  9.30D-01  7.00D-01  7.90D-01
 E= -496.812712772194     Delta-E=       -0.000000000783 Rises=F Damp=F
 DIIS: error= 1.03D-06 at cycle  19 NSaved=  19.
 NSaved=19 IEnMin=19 EnMin= -496.812712772194     IErMin=19 ErrMin= 1.03D-06
 ErrMax= 1.03D-06  0.00D+00 EMaxC= 1.00D-01 BMatC= 9.47D-10 BMatP= 3.22D-09
 IDIUse=1 WtCom= 1.00D+00 WtEn= 0.00D+00
 Coeff-Com:  0.127D-06-0.273D-06 0.463D-07 0.599D-07-0.149D-07-0.141D-07
 Coeff-Com: -0.804D-06-0.214D-06-0.151D-04 0.459D-04 0.112D-03 0.557D-03
 Coeff-Com: -0.450D-03-0.443D-02-0.542D-02 0.219D-01 0.732D-01 0.376D+00
 Coeff-Com:  0.539D+00
 Coeff:      0.127D-06-0.273D-06 0.463D-07 0.599D-07-0.149D-07-0.141D-07
 Coeff:     -0.804D-06-0.214D-06-0.151D-04 0.459D-04 0.112D-03 0.557D-03
 Coeff:     -0.450D-03-0.443D-02-0.542D-02 0.219D-01 0.732D-01 0.376D+00
 Coeff:      0.539D+00
 Gap=     0.178 Goal=   None    Shift=    0.000
 Gap=     0.178 Goal=   None    Shift=    0.000
 RMSDP=7.68D-08 MaxDP=3.64D-06 DE=-7.83D-10 OVMax= 1.01D-05

 Cycle  20  Pass 1  IDiag  1:
 RMSU=  5.22D-08    CP:  7.50D-02  3.96D-01  1.06D-02  8.20D-02  5.59D-02
                    CP:  8.56D-01  4.66D-01  1.85D-01  1.03D+00  7.21D-01
                    CP:  6.75D-01  8.35D-01  1.10D+00  1.03D+00  6.87D-01
                    CP:  9.36D-01  6.95D-01  9.18D-01  8.04D-01
 E= -496.812712772512     Delta-E=       -0.000000000318 Rises=F Damp=F
 DIIS: error= 4.21D-07 at cycle  20 NSaved=  20.
 NSaved=20 IEnMin=20 EnMin= -496.812712772512     IErMin=20 ErrMin= 4.21D-07
 ErrMax= 4.21D-07  0.00D+00 EMaxC= 1.00D-01 BMatC= 6.60D-11 BMatP= 9.47D-10
 IDIUse=1 WtCom= 1.00D+00 WtEn= 0.00D+00
 Coeff-Com: -0.635D-07 0.132D-06 0.262D-07 0.116D-07-0.810D-08 0.644D-07
 Coeff-Com:  0.453D-07 0.928D-07-0.534D-06-0.444D-04-0.915D-04 0.685D-04
 Coeff-Com:  0.190D-03 0.150D-02 0.745D-03-0.170D-01-0.374D-01-0.784D-01
 Coeff-Com:  0.230D-01 0.111D+01
 Coeff:     -0.635D-07 0.132D-06 0.262D-07 0.116D-07-0.810D-08 0.644D-07
 Coeff:      0.453D-07 0.928D-07-0.534D-06-0.444D-04-0.915D-04 0.685D-04
 Coeff:      0.190D-03 0.150D-02 0.745D-03-0.170D-01-0.374D-01-0.784D-01
 Coeff:      0.230D-01 0.111D+01
 Gap=     0.178 Goal=   None    Shift=    0.000
 Gap=     0.178 Goal=   None    Shift=    0.000
 RMSDP=5.80D-08 MaxDP=2.78D-06 DE=-3.18D-10 OVMax= 7.67D-06

 Cycle  21  Pass 1  IDiag  1:
 Restarting incremental Fock formation.
 E= -496.812712772608     Delta-E=       -0.000000000096 Rises=F Damp=F
 DIIS: error= 2.76D-07 at cycle  21 NSaved=  20.
 NSaved=20 IEnMin=20 EnMin= -496.812712772608     IErMin=20 ErrMin= 2.76D-07
 ErrMax= 2.76D-07  0.00D+00 EMaxC= 1.00D-01 BMatC= 2.78D-11 BMatP= 6.60D-11
 IDIUse=1 WtCom= 1.00D+00 WtEn= 0.00D+00
 Coeff-Com:  0.193D-07-0.125D-08-0.482D-07-0.599D-08 0.137D-06 0.134D-06
 Coeff-Com:  0.290D-07 0.305D-05-0.261D-04-0.599D-04-0.139D-03 0.125D-03
 Coeff-Com:  0.160D-02 0.163D-02-0.124D-01-0.334D-01-0.131D+00-0.140D+00
 Coeff-Com:  0.414D+00 0.900D+00
 Coeff:      0.193D-07-0.125D-08-0.482D-07-0.599D-08 0.137D-06 0.134D-06
 Coeff:      0.290D-07 0.305D-05-0.261D-04-0.599D-04-0.139D-03 0.125D-03
 Coeff:      0.160D-02 0.163D-02-0.124D-01-0.334D-01-0.131D+00-0.140D+00
 Coeff:      0.414D+00 0.900D+00
 Gap=     0.178 Goal=   None    Shift=    0.000
 Gap=     0.178 Goal=   None    Shift=    0.000
 RMSDP=4.05D-08 MaxDP=2.11D-06 DE=-9.63D-11 OVMax= 5.51D-06

 Cycle  22  Pass 1  IDiag  1:
 RMSU=  4.05D-08    CP:  1.00D+00
 E= -496.812712772651     Delta-E=       -0.000000000043 Rises=F Damp=F
 DIIS: error= 1.71D-07 at cycle  22 NSaved=  20.
 NSaved=20 IEnMin=20 EnMin= -496.812712772651     IErMin=20 ErrMin= 1.71D-07
 ErrMax= 1.71D-07  0.00D+00 EMaxC= 1.00D-01 BMatC= 9.90D-12 BMatP= 2.78D-11
 IDIUse=1 WtCom= 1.00D+00 WtEn= 0.00D+00
 Coeff-Com:  0.363D-08-0.160D-07 0.150D-07-0.514D-08 0.449D-07 0.427D-07
 Coeff-Com:  0.197D-05 0.571D-05 0.157D-04-0.121D-03 0.464D-04 0.230D-03
 Coeff-Com:  0.629D-03 0.141D-02-0.490D-03-0.414D-01-0.962D-01-0.327D+00
 Coeff-Com:  0.422D+00 0.104D+01
 Coeff:      0.363D-08-0.160D-07 0.150D-07-0.514D-08 0.449D-07 0.427D-07
 Coeff:      0.197D-05 0.571D-05 0.157D-04-0.121D-03 0.464D-04 0.230D-03
 Coeff:      0.629D-03 0.141D-02-0.490D-03-0.414D-01-0.962D-01-0.327D+00
 Coeff:      0.422D+00 0.104D+01
 Gap=     0.178 Goal=   None    Shift=    0.000
 Gap=     0.178 Goal=   None    Shift=    0.000
 RMSDP=3.76D-08 MaxDP=2.02D-06 DE=-4.31D-11 OVMax= 5.26D-06

 Cycle  23  Pass 1  IDiag  1:
 RMSU=  1.59D-08    CP:  1.00D+00  1.84D+00
 E= -496.812712772669     Delta-E=       -0.000000000017 Rises=F Damp=F
 DIIS: error= 5.47D-08 at cycle  23 NSaved=  20.
 NSaved=20 IEnMin=20 EnMin= -496.812712772669     IErMin=20 ErrMin= 5.47D-08
 ErrMax= 5.47D-08  0.00D+00 EMaxC= 1.00D-01 BMatC= 1.98D-12 BMatP= 9.90D-12
 IDIUse=1 WtCom= 1.00D+00 WtEn= 0.00D+00
 Coeff-Com: -0.125D-07-0.139D-07 0.119D-07 0.695D-07-0.159D-07 0.444D-06
 Coeff-Com:  0.624D-05 0.133D-04-0.304D-04-0.255D-04-0.194D-03-0.107D-03
 Coeff-Com:  0.213D-02 0.487D-02 0.677D-02-0.711D-02-0.165D+00 0.773D-04
 Coeff-Com:  0.384D+00 0.775D+00
 Coeff:     -0.125D-07-0.139D-07 0.119D-07 0.695D-07-0.159D-07 0.444D-06
 Coeff:      0.624D-05 0.133D-04-0.304D-04-0.255D-04-0.194D-03-0.107D-03
 Coeff:      0.213D-02 0.487D-02 0.677D-02-0.711D-02-0.165D+00 0.773D-04
 Coeff:      0.384D+00 0.775D+00
 Gap=     0.178 Goal=   None    Shift=    0.000
 Gap=     0.178 Goal=   None    Shift=    0.000
 RMSDP=7.34D-09 MaxDP=4.50D-07 DE=-1.74D-11 OVMax= 1.00D-06

 Error on total polarization charges =  0.00819
 SCF Done:  E(UB3LYP) =  -496.812712773     A.U. after   23 cycles
            NFock= 23  Conv=0.73D-08     -V/T= 2.0096
 <Sx>= 0.0000 <Sy>= 0.0000 <Sz>= 0.0000 <S**2>= 0.0000 S= 0.0000
 <L.S>=  0.00000000000    
 KE= 4.920658075566D+02 PE=-2.288595720444D+03 EE= 7.329858290210D+02
 Annihilation of the first spin contaminant:
 S**2 before annihilation     0.0000,   after    -0.0000
 Leave Link  502 at Sat May 11 00:45:26 2019, MaxMem=   104857600 cpu:             608.9 elap:              19.5
 (Enter /opt/software/gaussian/g16.b01/l801.exe)
 DoSCS=F DFT=T ScalE2(SS,OS)=  1.000000  1.000000
 ExpMin= 1.61D-01 ExpMax= 5.48D+03 ExpMxC= 8.25D+02 IAcc=3 IRadAn=         5 AccDes= 0.00D+00
 HarFok:  IExCor=  205 AccDes= 0.00D+00 IRadAn=         5 IDoV=-2 UseB2=F ITyADJ=14
 ICtDFT= 12500011 ScaDFX=  1.000000  1.000000  1.000000  1.000000
 Largest valence mixing into a core orbital is  5.78D-05
 Largest core mixing into a valence orbital is  1.43D-05
 Largest valence mixing into a core orbital is  5.78D-05
 Largest core mixing into a valence orbital is  1.43D-05
 Range of M.O.s used for correlation:    12   225
 NBasis=   225 NAE=    41 NBE=    41 NFC=    11 NFV=     0
 NROrb=    214 NOA=    30 NOB=    30 NVA=   184 NVB=   184

 **** Warning!!: The largest alpha MO coefficient is  0.10883458D+02


 **** Warning!!: The largest beta MO coefficient is  0.10883458D+02

 Leave Link  801 at Sat May 11 00:45:26 2019, MaxMem=   104857600 cpu:               3.5 elap:               0.2
 (Enter /opt/software/gaussian/g16.b01/l914.exe)
 UHF ground state
 Two-electron integrals replicated using symmetry.
 MDV=   104857600 DFT=T DoStab=F Mixed=T DoRPA=T DoScal=F NonHer=T
 NEqPCM:  Using equilibrium solvation (IEInf=0, Eps=  35.6880, EpsInf=   1.8069)
 Making orbital integer symmetry assigments:
 Orbital symmetries:
 Alpha Orbitals:
       Occupied  (A) (A) (A) (A) (A) (A) (A) (A) (A) (A) (A) (A)
                 (A) (A) (A) (A) (A) (A) (A) (A) (A) (A) (A) (A)
                 (A) (A) (A) (A) (A) (A) (A) (A) (A) (A) (A) (A)
                 (A) (A) (A) (A) (A)
       Virtual   (A) (A) (A) (A) (A) (A) (A) (A) (A) (A) (A) (A)
                 (A) (A) (A) (A) (A) (A) (A) (A) (A) (A) (A) (A)
                 (A) (A) (A) (A) (A) (A) (A) (A) (A) (A) (A) (A)
                 (A) (A) (A) (A) (A) (A) (A) (A) (A) (A) (A) (A)
                 (A) (A) (A) (A) (A) (A) (A) (A) (A) (A) (A) (A)
                 (A) (A) (A) (A) (A) (A) (A) (A) (A) (A) (A) (A)
                 (A) (A) (A) (A) (A) (A) (A) (A) (A) (A) (A) (A)
                 (A) (A) (A) (A) (A) (A) (A) (A) (A) (A) (A) (A)
                 (A) (A) (A) (A) (A) (A) (A) (A) (A) (A) (A) (A)
                 (A) (A) (A) (A) (A) (A) (A) (A) (A) (A) (A) (A)
                 (A) (A) (A) (A) (A) (A) (A) (A) (A) (A) (A) (A)
                 (A) (A) (A) (A) (A) (A) (A) (A) (A) (A) (A) (A)
                 (A) (A) (A) (A) (A) (A) (A) (A) (A) (A) (A) (A)
                 (A) (A) (A) (A) (A) (A) (A) (A) (A) (A) (A) (A)
                 (A) (A) (A) (A) (A) (A) (A) (A) (A) (A) (A) (A)
                 (A) (A) (A) (A)
 Beta  Orbitals:
       Occupied  (A) (A) (A) (A) (A) (A) (A) (A) (A) (A) (A) (A)
                 (A) (A) (A) (A) (A) (A) (A) (A) (A) (A) (A) (A)
                 (A) (A) (A) (A) (A) (A) (A) (A) (A) (A) (A) (A)
                 (A) (A) (A) (A) (A)
       Virtual   (A) (A) (A) (A) (A) (A) (A) (A) (A) (A) (A) (A)
                 (A) (A) (A) (A) (A) (A) (A) (A) (A) (A) (A) (A)
                 (A) (A) (A) (A) (A) (A) (A) (A) (A) (A) (A) (A)
                 (A) (A) (A) (A) (A) (A) (A) (A) (A) (A) (A) (A)
                 (A) (A) (A) (A) (A) (A) (A) (A) (A) (A) (A) (A)
                 (A) (A) (A) (A) (A) (A) (A) (A) (A) (A) (A) (A)
                 (A) (A) (A) (A) (A) (A) (A) (A) (A) (A) (A) (A)
                 (A) (A) (A) (A) (A) (A) (A) (A) (A) (A) (A) (A)
                 (A) (A) (A) (A) (A) (A) (A) (A) (A) (A) (A) (A)
                 (A) (A) (A) (A) (A) (A) (A) (A) (A) (A) (A) (A)
                 (A) (A) (A) (A) (A) (A) (A) (A) (A) (A) (A) (A)
                 (A) (A) (A) (A) (A) (A) (A) (A) (A) (A) (A) (A)
                 (A) (A) (A) (A) (A) (A) (A) (A) (A) (A) (A) (A)
                 (A) (A) (A) (A) (A) (A) (A) (A) (A) (A) (A) (A)
                 (A) (A) (A) (A) (A) (A) (A) (A) (A) (A) (A) (A)
                 (A) (A) (A) (A)
    48 initial guesses have been made.
 Convergence on wavefunction:    0.000001000000000
 Davidson Disk Diagonalization:  ConvIn= 1.00D-06 SkipCon=T Conv= 1.00D-06.
 Max sub-space:  2000 roots to seek:    48 dimension of matrix:        11040
 Iteration     1 Dimension    48 NMult     0 NNew     48
 CISAX will form     8 AO SS matrices at one time.
 NMat=     8 NSing=     8 JSym2X= 0.
 FoFJK:  IHMeth= 1 ICntrl=       0 DoSepK=F KAlg= 0 I1Cent=           0 FoldK=F
 IRaf= 830000000 NMat=      16 IRICut=       1 DoRegI=T DoRafI=F ISym2E= 0 IDoP0=0 IntGTp=1.
 FoFCou: FMM=F IPFlag=           0 FMFlag=      100000 FMFlg1=           0
         NFxFlg=           0 DoJE=F BraDBF=F KetDBF=F FulRan=T
         wScrn=  0.000000 ICntrl=         0 IOpCl=  1 I1Cent=           0 NGrid=           0
         NMat0=   16 NMatS0=      8 NMatT0=    0 NMatD0=   16 NMtDS0=    0 NMtDT0=    0
 Symmetry not used in FoFCou.
 NMat=     8 NSing=     8 JSym2X= 0.
 NMat=     8 NSing=     8 JSym2X= 0.
 NMat=     8 NSing=     8 JSym2X= 0.
 NMat=     8 NSing=     8 JSym2X= 0.
 NMat=     8 NSing=     8 JSym2X= 0.
 New state      1 was old state      7
 New state      2 was old state      9
 New state      3 was old state      8
 New state      4 was old state      5
 New state      5 was old state      1
 New state      6 was old state      2
 New state      7 was old state      3
 New state      8 was old state      4
 New state      9 was old state     16
 New state     10 was old state      6
 New state     11 was old state     20
 New state     12 was old state     10
 Excitation Energies [eV] at current iteration:
 Root      1 :     3.476081348489228
 Root      2 :     3.627730085293906
 Root      3 :     3.918988380831308
 Root      4 :     3.985294591929118
 Root      5 :     4.222330982573173
 Root      6 :     4.229183578954868
 Root      7 :     4.522642716730153
 Root      8 :     4.540155919315449
 Root      9 :     4.635223314089589
 Root     10 :     4.803734684120880
 Root     11 :     5.216426470276908
 Root     12 :     5.517029405157776
 Root     13 :     5.810231132377358
 Root     14 :     5.810880517211204
 Root     15 :     5.909561518056522
 Root     16 :     5.937074999341230
 Root     17 :     5.947665206164052
 Root     18 :     6.167467534621839
 Root     19 :     6.170106720361586
 Root     20 :     6.510041207729425
 Root     21 :     6.529529620061094
 Root     22 :     6.620486132095858
 Root     23 :     6.629796482859697
 Root     24 :     6.729814057234505
 Root     25 :     6.752359993062703
 Root     26 :     6.853682030050652
 Root     27 :     6.893820672060341
 Root     28 :     6.967327683255382
 Root     29 :     6.972462881344806
 Root     30 :     7.043546919368902
 Root     31 :     7.245367582126990
 Root     32 :     7.272885385927967
 Root     33 :     7.295201798059713
 Root     34 :     7.367485132805643
 Root     35 :     7.399795688297561
 Root     36 :     7.582998457610710
 Root     37 :     7.686382741075774
 Root     38 :     7.777948384280694
 Root     39 :     7.780297884611136
 Root     40 :     7.883146511964727
 Root     41 :     7.891606034727880
 Root     42 :     7.893605253795352
 Root     43 :     8.058413974638627
 Root     44 :     8.318913776578245
 Root     45 :     8.544978468087839
 Root     46 :     8.767370766110004
 Root     47 :     8.791622445186590
 Root     48 :     9.258948191841133
 Iteration     2 Dimension    72 NMult    48 NNew     24
 CISAX will form     8 AO SS matrices at one time.
 NMat=     8 NSing=     8 JSym2X= 0.
 NMat=     8 NSing=     8 JSym2X= 0.
 NMat=     8 NSing=     8 JSym2X= 0.
 New state      1 was old state      2
 Root      1 not converged, maximum delta is    0.102907243139929
 New state      2 was old state      1
 Root      2 not converged, maximum delta is    0.065637282236116
 Root      3 not converged, maximum delta is    0.013688375592735
 Root      4 not converged, maximum delta is    0.031912116711726
 Root      5 not converged, maximum delta is    0.033699176985476
 Root      6 not converged, maximum delta is    0.015580592711161
 New state      7 was old state      9
 Root      7 not converged, maximum delta is    0.368568215644223
 Root      8 not converged, maximum delta is    0.044310018069526
 New state      9 was old state      7
 Root      9 not converged, maximum delta is    0.347581614494751
 Root     10 not converged, maximum delta is    0.044194854458205
 New state     11 was old state     12
 Root     11 not converged, maximum delta is    0.072746185006893
 New state     12 was old state     11
 Root     12 not converged, maximum delta is    0.046376165335083
 Excitation Energies [eV] at current iteration:
 Root      1 :     3.328283872606470   Change is   -0.299446212687437
 Root      2 :     3.384487027233752   Change is   -0.091594321255476
 Root      3 :     3.874457939908936   Change is   -0.044530440922372
 Root      4 :     3.928376039117483   Change is   -0.056918552811635
 Root      5 :     4.217976339409152   Change is   -0.004354643164022
 Root      6 :     4.225358903701927   Change is   -0.003824675252941
 Root      7 :     4.441824250400782   Change is   -0.193399063688807
 Root      8 :     4.528728463937179   Change is   -0.011427455378269
 Root      9 :     4.531013002123569   Change is    0.008370285393417
 Root     10 :     4.654358486424369   Change is   -0.149376197696511
 Root     11 :     5.010829357601004   Change is   -0.506200047556772
 Root     12 :     5.166940029413423   Change is   -0.049486440863485
 Iteration     3 Dimension    96 NMult    72 NNew     24
 CISAX will form     8 AO SS matrices at one time.
 NMat=     8 NSing=     8 JSym2X= 0.
 NMat=     8 NSing=     8 JSym2X= 0.
 NMat=     8 NSing=     8 JSym2X= 0.
 Root      1 not converged, maximum delta is    0.010162431306339
 Root      2 not converged, maximum delta is    0.005018755538624
 Root      3 not converged, maximum delta is    0.001793448552939
 Root      4 not converged, maximum delta is    0.007122732428343
 Root      5 not converged, maximum delta is    0.002140341862070
 Root      6 not converged, maximum delta is    0.000482410652109
 Root      7 not converged, maximum delta is    0.010308387577550
 Root      8 not converged, maximum delta is    0.004183781835155
 Root      9 not converged, maximum delta is    0.005601728777918
 Root     10 not converged, maximum delta is    0.010919545737612
 Root     11 not converged, maximum delta is    0.015376831109271
 Root     12 not converged, maximum delta is    0.014679363811433
 Excitation Energies [eV] at current iteration:
 Root      1 :     3.320982944816051   Change is   -0.007300927790418
 Root      2 :     3.383132261076335   Change is   -0.001354766157418
 Root      3 :     3.872973134282908   Change is   -0.001484805626029
 Root      4 :     3.925474284925919   Change is   -0.002901754191564
 Root      5 :     4.217760178278829   Change is   -0.000216161130322
 Root      6 :     4.225223495322268   Change is   -0.000135408379658
 Root      7 :     4.436519217783502   Change is   -0.005305032617280
 Root      8 :     4.528286403024572   Change is   -0.000442060912607
 Root      9 :     4.530506606531889   Change is   -0.000506395591681
 Root     10 :     4.641324686410377   Change is   -0.013033800013993
 Root     11 :     4.992842583132954   Change is   -0.017986774468050
 Root     12 :     5.163869955774184   Change is   -0.003070073639239
 Iteration     4 Dimension   120 NMult    96 NNew     24
 CISAX will form     8 AO SS matrices at one time.
 NMat=     8 NSing=     8 JSym2X= 0.
 NMat=     8 NSing=     8 JSym2X= 0.
 NMat=     8 NSing=     8 JSym2X= 0.
 Root      1 not converged, maximum delta is    0.000661554072881
 Root      2 not converged, maximum delta is    0.000354222720775
 Root      3 not converged, maximum delta is    0.000281412645633
 Root      4 not converged, maximum delta is    0.000685843626281
 Root      5 not converged, maximum delta is    0.000128755191460
 Root      6 not converged, maximum delta is    0.000201613675599
 Root      7 not converged, maximum delta is    0.000606273398966
 Root      8 not converged, maximum delta is    0.000516369977750
 Root      9 not converged, maximum delta is    0.000183457613622
 Root     10 not converged, maximum delta is    0.000913887469012
 Root     11 not converged, maximum delta is    0.002653189994548
 Root     12 not converged, maximum delta is    0.001644024759416
 Excitation Energies [eV] at current iteration:
 Root      1 :     3.320804982478077   Change is   -0.000177962337975
 Root      2 :     3.383100707594654   Change is   -0.000031553481681
 Root      3 :     3.872920146059002   Change is   -0.000052988223906
 Root      4 :     3.925426997278008   Change is   -0.000047287647911
 Root      5 :     4.217752846684591   Change is   -0.000007331594238
 Root      6 :     4.225211135653899   Change is   -0.000012359668370
 Root      7 :     4.436357365850622   Change is   -0.000161851932880
 Root      8 :     4.528240143186990   Change is   -0.000046259837583
 Root      9 :     4.530493192892528   Change is   -0.000013413639362
 Root     10 :     4.640760392262814   Change is   -0.000564294147563
 Root     11 :     4.991300479760775   Change is   -0.001542103372179
 Root     12 :     5.163741122720866   Change is   -0.000128833053318
 Iteration     5 Dimension   144 NMult   120 NNew     24
 CISAX will form     8 AO SS matrices at one time.
 NMat=     8 NSing=     8 JSym2X= 0.
 NMat=     8 NSing=     8 JSym2X= 0.
 NMat=     8 NSing=     8 JSym2X= 0.
 Root      1 not converged, maximum delta is    0.000080862300105
 Root      2 not converged, maximum delta is    0.000054433391360
 Root      3 not converged, maximum delta is    0.000085763077135
 Root      4 not converged, maximum delta is    0.000062576988604
 Root      5 not converged, maximum delta is    0.000027700654355
 Root      6 not converged, maximum delta is    0.000040996061050
 Root      7 not converged, maximum delta is    0.000212152935134
 Root      8 not converged, maximum delta is    0.000063084974819
 Root      9 not converged, maximum delta is    0.000053173967769
 Root     10 not converged, maximum delta is    0.000238669981463
 Root     11 not converged, maximum delta is    0.000624749624365
 Root     12 not converged, maximum delta is    0.000294967024047
 Excitation Energies [eV] at current iteration:
 Root      1 :     3.320800677228046   Change is   -0.000004305250030
 Root      2 :     3.383099715217252   Change is   -0.000000992377402
 Root      3 :     3.872917195062334   Change is   -0.000002950996668
 Root      4 :     3.925425461244796   Change is   -0.000001536033211
 Root      5 :     4.217752553821680   Change is   -0.000000292862911
 Root      6 :     4.225210378418217   Change is   -0.000000757235681
 Root      7 :     4.436349450217832   Change is   -0.000007915632790
 Root      8 :     4.528237476324144   Change is   -0.000002666862846
 Root      9 :     4.530492470064766   Change is   -0.000000722827761
 Root     10 :     4.640741594471489   Change is   -0.000018797791324
 Root     11 :     4.991201009614976   Change is   -0.000099470145800
 Root     12 :     5.163732838857060   Change is   -0.000008283863806
 Iteration     6 Dimension   168 NMult   144 NNew     24
 CISAX will form     8 AO SS matrices at one time.
 NMat=     8 NSing=     8 JSym2X= 0.
 NMat=     8 NSing=     8 JSym2X= 0.
 NMat=     8 NSing=     8 JSym2X= 0.
 Root      1 not converged, maximum delta is    0.000008214989714
 Root      2 not converged, maximum delta is    0.000007691819210
 Root      3 not converged, maximum delta is    0.000017978270075
 Root      4 not converged, maximum delta is    0.000018180393537
 Root      5 not converged, maximum delta is    0.000007114164283
 Root      6 not converged, maximum delta is    0.000009283248575
 Root      7 not converged, maximum delta is    0.000045309499295
 Root      8 not converged, maximum delta is    0.000009938634589
 Root      9 not converged, maximum delta is    0.000008620378024
 Root     10 not converged, maximum delta is    0.000057871976469
 Root     11 not converged, maximum delta is    0.000074212229417
 Root     12 not converged, maximum delta is    0.000034849038616
 Excitation Energies [eV] at current iteration:
 Root      1 :     3.320800590968123   Change is   -0.000000086259923
 Root      2 :     3.383099686823350   Change is   -0.000000028393902
 Root      3 :     3.872917050350873   Change is   -0.000000144711461
 Root      4 :     3.925425409564470   Change is   -0.000000051680327
 Root      5 :     4.217752539819231   Change is   -0.000000014002449
 Root      6 :     4.225210350273361   Change is   -0.000000028144857
 Root      7 :     4.436349004489117   Change is   -0.000000445728715
 Root      8 :     4.528237370952124   Change is   -0.000000105372020
 Root      9 :     4.530492440123961   Change is   -0.000000029940805
 Root     10 :     4.640740578669241   Change is   -0.000001015802249
 Root     11 :     4.991196244193655   Change is   -0.000004765421320
 Root     12 :     5.163732456381644   Change is   -0.000000382475416
 Iteration     7 Dimension   192 NMult   168 NNew     24
 CISAX will form     8 AO SS matrices at one time.
 NMat=     8 NSing=     8 JSym2X= 0.
 NMat=     8 NSing=     8 JSym2X= 0.
 NMat=     8 NSing=     8 JSym2X= 0.
 Root      1 not converged, maximum delta is    0.000001812039395
 Root      2 not converged, maximum delta is    0.000001256284120
 Root      3 not converged, maximum delta is    0.000001931566081
 Root      4 not converged, maximum delta is    0.000002421461244
 Root      5 has converged.
 Root      6 not converged, maximum delta is    0.000001134129797
 Root      7 not converged, maximum delta is    0.000005804383229
 Root      8 not converged, maximum delta is    0.000002157004144
 Root      9 not converged, maximum delta is    0.000002801855178
 Root     10 not converged, maximum delta is    0.000017063635902
 Root     11 not converged, maximum delta is    0.000015621609907
 Root     12 not converged, maximum delta is    0.000010301567684
 Excitation Energies [eV] at current iteration:
 Root      1 :     3.320800589278052   Change is   -0.000000001690071
 Root      2 :     3.383099686049169   Change is   -0.000000000774181
 Root      3 :     3.872917046091337   Change is   -0.000000004259536
 Root      4 :     3.925425407531557   Change is   -0.000000002032912
 Root      5 :     4.217752539280758   Change is   -0.000000000538473
 Root      6 :     4.225210349293419   Change is   -0.000000000979942
 Root      7 :     4.436348986343143   Change is   -0.000000018145974
 Root      8 :     4.528237366610731   Change is   -0.000000004341393
 Root      9 :     4.530492438583599   Change is   -0.000000001540362
 Root     10 :     4.640740525634421   Change is   -0.000000053034819
 Root     11 :     4.991196019878172   Change is   -0.000000224315483
 Root     12 :     5.163732424229993   Change is   -0.000000032151650
 Iteration     8 Dimension   214 NMult   192 NNew     22
 CISAX will form     8 AO SS matrices at one time.
 NMat=     8 NSing=     8 JSym2X= 0.
 NMat=     8 NSing=     8 JSym2X= 0.
 NMat=     6 NSing=     6 JSym2X= 0.
 Root      1 has converged.
 Root      2 has converged.
 Root      3 has converged.
 Root      4 has converged.
 Root      5 has converged.
 Root      6 has converged.
 Root      7 not converged, maximum delta is    0.000001415789831
 Root      8 has converged.
 Root      9 has converged.
 Root     10 not converged, maximum delta is    0.000005009685158
 Root     11 not converged, maximum delta is    0.000004897559762
 Root     12 not converged, maximum delta is    0.000002203334416
 Excitation Energies [eV] at current iteration:
 Root      1 :     3.320800589227427   Change is   -0.000000000050624
 Root      2 :     3.383099686030531   Change is   -0.000000000018638
 Root      3 :     3.872917045992168   Change is   -0.000000000099169
 Root      4 :     3.925425407462803   Change is   -0.000000000068754
 Root      5 :     4.217752539264892   Change is   -0.000000000015866
 Root      6 :     4.225210349258144   Change is   -0.000000000035275
 Root      7 :     4.436348985513219   Change is   -0.000000000829924
 Root      8 :     4.528237366428497   Change is   -0.000000000182234
 Root      9 :     4.530492438497028   Change is   -0.000000000086572
 Root     10 :     4.640740522352048   Change is   -0.000000003282373
 Root     11 :     4.991196006803836   Change is   -0.000000013074336
 Root     12 :     5.163732422093378   Change is   -0.000000002136614
 Iteration     9 Dimension   222 NMult   214 NNew      8
 CISAX will form     8 AO SS matrices at one time.
 NMat=     8 NSing=     8 JSym2X= 0.
 Root      1 has converged.
 Root      2 has converged.
 Root      3 has converged.
 Root      4 has converged.
 Root      5 has converged.
 Root      6 has converged.
 Root      7 has converged.
 Root      8 has converged.
 Root      9 has converged.
 Root     10 has converged.
 Root     11 not converged, maximum delta is    0.000001845299892
 Root     12 has converged.
 Excitation Energies [eV] at current iteration:
 Root      1 :     3.320800589227254   Change is   -0.000000000000173
 Root      2 :     3.383099686030483   Change is   -0.000000000000048
 Root      3 :     3.872917045992105   Change is   -0.000000000000063
 Root      4 :     3.925425407461819   Change is   -0.000000000000984
 Root      5 :     4.217752539264152   Change is   -0.000000000000740
 Root      6 :     4.225210349258027   Change is   -0.000000000000117
 Root      7 :     4.436348985478623   Change is   -0.000000000034596
 Root      8 :     4.528237366423378   Change is   -0.000000000005119
 Root      9 :     4.530492438496664   Change is   -0.000000000000363
 Root     10 :     4.640740522119282   Change is   -0.000000000232766
[...]
 Large coefficients: NSaved=  3 BigCof=   24.73 CofMax=   10.00 Det=-5.88D-11
 Inversion failed.  Reducing to  2 matrices.
 Large coefficients: NSaved=  2 BigCof=   25.79 CofMax=   10.00 Det=-1.71D-09
 Coeff-Com: -0.248D+02 0.258D+02
 Coeff:     -0.248D+02 0.258D+02
 Gap=     0.025 Goal=   None    Shift=    0.000
 Gap=     0.025 Goal=   None    Shift=    0.000
 RMSDP=1.39D-04 MaxDP=4.57D-03 DE= 5.62D-08 OVMax= 2.57D-02

 Cycle 109  Pass 1  IDiag  1:
 RMSU=  4.13D-07    CP:  1.00D+00  1.27D+00  1.27D-01 -3.00D+00  2.50D+00
                    CP:  2.48D+00 -3.00D+00  3.00D+00
 E= -496.751261306673     Delta-E=        0.000001644930 Rises=F Damp=F
 DIIS: error= 2.66D-05 at cycle 109 NSaved=   3.
 NSaved= 3 IEnMin= 1 EnMin= -496.751263007791     IErMin= 3 ErrMin= 2.66D-05
 ErrMax= 2.66D-05  0.00D+00 EMaxC= 1.00D-01 BMatC= 4.07D-07 BMatP= 1.05D-06
 IDIUse=1 WtCom= 1.00D+00 WtEn= 0.00D+00
 Large coefficients: NSaved=  3 BigCof=   21.61 CofMax=   10.00 Det=-1.68D-10
 Inversion failed.  Reducing to  2 matrices.
 Coeff-Com: -0.134D+01 0.234D+01
 Coeff:     -0.134D+01 0.234D+01
 Gap=     0.025 Goal=   None    Shift=    0.000
 Gap=     0.025 Goal=   None    Shift=    0.000
 RMSDP=1.78D-04 MaxDP=5.90D-03 DE= 1.64D-06 OVMax= 3.32D-02

 Cycle 110  Pass 1  IDiag  1:
 RMSU=  1.97D-06    CP:  1.00D+00  2.55D+00  2.44D+00 -3.00D+00  3.00D+00
                    CP:  3.00D+00  3.00D+00  3.00D+00 -6.86D-01
 E= -496.751256842840     Delta-E=        0.000004463833 Rises=F Damp=F
 DIIS: error= 6.80D-05 at cycle 110 NSaved=   3.
 NSaved= 3 IEnMin= 1 EnMin= -496.751262951603     IErMin= 2 ErrMin= 2.66D-05
 ErrMax= 6.80D-05  0.00D+00 EMaxC= 1.00D-01 BMatC= 2.96D-06 BMatP= 4.07D-07
 IDIUse=1 WtCom= 1.00D+00 WtEn= 0.00D+00
 Coeff-Com: -0.286D+01 0.330D+01 0.562D+00
 Coeff:     -0.286D+01 0.330D+01 0.562D+00
 Gap=     0.026 Goal=   None    Shift=    0.000
 Gap=     0.026 Goal=   None    Shift=    0.000
 RMSDP=2.92D-04 MaxDP=9.62D-03 DE= 4.46D-06 OVMax= 5.45D-02

 Cycle 111  Pass 1  IDiag  1:
 RMSU=  2.29D-04    CP:  1.00D+00  3.00D+00  3.00D+00 -3.00D+00  3.00D+00
                    CP:  3.00D+00 -3.00D+00  3.00D+00  1.47D+00  3.00D+00
 E= -496.751212751751     Delta-E=        0.000044091089 Rises=F Damp=F
 DIIS: error= 3.28D-04 at cycle 111 NSaved=   4.
 NSaved= 4 IEnMin= 1 EnMin= -496.751262951603     IErMin= 2 ErrMin= 2.66D-05
 ErrMax= 3.28D-04  0.00D+00 EMaxC= 1.00D-01 BMatC= 6.09D-05 BMatP= 4.07D-07
 IDIUse=1 WtCom= 1.00D+00 WtEn= 0.00D+00
 Coeff-Com: -0.634D+00 0.144D+01 0.288D+00-0.912D-01
 Coeff:     -0.634D+00 0.144D+01 0.288D+00-0.912D-01
 Gap=     0.025 Goal=   None    Shift=    0.000
 Gap=     0.025 Goal=   None    Shift=    0.000
 RMSDP=3.78D-04 MaxDP=1.25D-02 DE= 4.41D-05 OVMax= 7.05D-02

 Cycle 112  Pass 1  IDiag  1:
 RMSU=  2.39D-07    CP:  1.00D+00  1.93D+00  1.10D+00 -3.00D+00  2.00D+00
                    CP:  2.52D+00 -3.00D+00  3.00D+00  6.12D-01  7.20D-02
                    CP: -1.94D-05
 E= -496.751259705362     Delta-E=       -0.000046953611 Rises=F Damp=F
 DIIS: error= 3.96D-05 at cycle 112 NSaved=   5.
 NSaved= 5 IEnMin= 1 EnMin= -496.751262951603     IErMin= 2 ErrMin= 2.66D-05
 ErrMax= 3.96D-05  0.00D+00 EMaxC= 1.00D-01 BMatC= 8.96D-07 BMatP= 4.07D-07
 IDIUse=1 WtCom= 1.00D+00 WtEn= 0.00D+00
 Coeff-Com: -0.802D+00 0.113D+01 0.235D+00-0.987D-01 0.536D+00
 Coeff:     -0.802D+00 0.113D+01 0.235D+00-0.987D-01 0.536D+00
 Gap=     0.025 Goal=   None    Shift=    0.000
 Gap=     0.025 Goal=   None    Shift=    0.000
 RMSDP=5.81D-05 MaxDP=1.94D-03 DE=-4.70D-05 OVMax= 1.09D-02

 Cycle 113  Pass 1  IDiag  1:
 RMSU=  1.01D-07    CP:  1.00D+00  2.34D+00  2.00D+00 -3.00D+00  2.31D+00
                    CP:  3.00D+00 -3.00D+00  3.00D+00  5.94D-01  1.08D-01
                    CP: -1.03D-05  7.15D-01
 E= -496.751258003451     Delta-E=        0.000001701911 Rises=F Damp=F
 DIIS: error= 6.07D-05 at cycle 113 NSaved=   6.
 NSaved= 6 IEnMin= 1 EnMin= -496.751262951603     IErMin= 2 ErrMin= 2.66D-05
 ErrMax= 6.07D-05  0.00D+00 EMaxC= 1.00D-01 BMatC= 2.06D-06 BMatP= 4.07D-07
 IDIUse=1 WtCom= 1.00D+00 WtEn= 0.00D+00
 Coeff-Com: -0.509D+00 0.134D+01 0.269D+00-0.542D-01 0.534D+00-0.579D+00
 Coeff:     -0.509D+00 0.134D+01 0.269D+00-0.542D-01 0.534D+00-0.579D+00
 Gap=     0.025 Goal=   None    Shift=    0.000
 Gap=     0.025 Goal=   None    Shift=    0.000
 RMSDP=9.86D-05 MaxDP=3.29D-03 DE= 1.70D-06 OVMax= 1.85D-02

 Cycle 114  Pass 1  IDiag  1:
 RMSU=  1.07D-07    CP:  1.00D+00  1.64D+00  6.04D-01 -3.00D+00  2.26D+00
                    CP:  2.39D+00 -3.00D+00  3.00D+00  7.01D-01  7.41D-02
                    CP: -2.33D-05  6.65D-01 -1.07D-01
 E= -496.751260525242     Delta-E=       -0.000002521791 Rises=F Damp=F
 DIIS: error= 3.06D-05 at cycle 114 NSaved=   7.
 NSaved= 7 IEnMin= 1 EnMin= -496.751262951603     IErMin= 2 ErrMin= 2.66D-05
 ErrMax= 3.06D-05  0.00D+00 EMaxC= 1.00D-01 BMatC= 5.24D-07 BMatP= 4.07D-07
 IDIUse=1 WtCom= 1.00D+00 WtEn= 0.00D+00
 Coeff-Com:  0.110D+00 0.916D+00 0.170D+00 0.392D-01 0.277D+00-0.163D+01
 Coeff-Com:  0.111D+01
 Coeff:      0.110D+00 0.916D+00 0.170D+00 0.392D-01 0.277D+00-0.163D+01
 Coeff:      0.111D+01
 Gap=     0.025 Goal=   None    Shift=    0.000
 Gap=     0.024 Goal=   None    Shift=    0.000
 RMSDP=1.83D-04 MaxDP=6.11D-03 DE=-2.52D-06 OVMax= 3.43D-02

 Cycle 115  Pass 1  IDiag  1:
 RMSU=  4.69D-07    CP:  1.00D+00  3.24D-01 -3.19D-01 -3.00D+00  3.00D+00
                    CP:  3.00D+00 -3.00D+00  3.00D+00  5.39D-01  3.79D-01
                    CP:  7.79D-05 -1.28D+00 -5.96D-01 -3.00D+00
 E= -496.751262884273     Delta-E=       -0.000002359031 Rises=F Damp=F
 DIIS: error= 4.15D-05 at cycle 115 NSaved=   8.
 NSaved= 8 IEnMin= 1 EnMin= -496.751262951603     IErMin= 2 ErrMin= 2.66D-05
 ErrMax= 4.15D-05  0.00D+00 EMaxC= 1.00D-01 BMatC= 9.53D-07 BMatP= 4.07D-07
 IDIUse=1 WtCom= 1.00D+00 WtEn= 0.00D+00
 Coeff-Com: -0.872D+00 0.762D+00 0.142D+00 0.440D-01 0.246D+00-0.163D+01
 Coeff-Com:  0.118D+01 0.113D+01
 Coeff:     -0.872D+00 0.762D+00 0.142D+00 0.440D-01 0.246D+00-0.163D+01
 Coeff:      0.118D+01 0.113D+01
 Gap=     0.025 Goal=   None    Shift=    0.000
 Gap=     0.024 Goal=   None    Shift=    0.000
 RMSDP=1.76D-05 MaxDP=6.41D-04 DE=-2.36D-06 OVMax= 3.60D-03

 Cycle 116  Pass 1  IDiag  1:
 RMSU=  1.01D-06    CP:  1.00D+00  1.98D-01 -4.18D-01 -3.00D+00  3.00D+00
                    CP:  3.00D+00 -3.00D+00  3.00D+00  1.14D+00  1.33D+00
                    CP:  2.83D-04 -3.00D+00  6.65D-01 -3.00D+00  2.69D+00
 E= -496.751263050456     Delta-E=       -0.000000166182 Rises=F Damp=F
 DIIS: error= 4.69D-05 at cycle 116 NSaved=   9.
 NSaved= 9 IEnMin= 9 EnMin= -496.751263050456     IErMin= 2 ErrMin= 2.66D-05
 ErrMax= 4.69D-05  0.00D+00 EMaxC= 1.00D-01 BMatC= 1.22D-06 BMatP= 4.07D-07
 IDIUse=1 WtCom= 1.00D+00 WtEn= 0.00D+00
 Coeff-Com: -0.108D+01 0.843D+00 0.159D+00 0.456D-01 0.279D+00-0.170D+01
 Coeff-Com:  0.122D+01 0.753D+00 0.482D+00
 Coeff:     -0.108D+01 0.843D+00 0.159D+00 0.456D-01 0.279D+00-0.170D+01
 Coeff:      0.122D+01 0.753D+00 0.482D+00
 Gap=     0.025 Goal=   None    Shift=    0.000
 Gap=     0.024 Goal=   None    Shift=    0.000
 RMSDP=5.84D-06 MaxDP=2.06D-04 DE=-1.66D-07 OVMax= 1.16D-03

 Cycle 117  Pass 1  IDiag  1:
 RMSU=  3.61D-07    CP:  1.00D+00  2.39D-01 -5.17D-01 -3.00D+00  3.00D+00
                    CP:  3.00D+00 -3.00D+00  3.00D+00  1.61D+00  1.91D+00
                    CP:  4.00D-04 -3.00D+00  1.39D+00 -3.00D+00  3.00D+00
                    CP:  1.70D+00
 E= -496.751262997442     Delta-E=        0.000000053013 Rises=F Damp=F
 DIIS: error= 4.49D-05 at cycle 117 NSaved=  10.
 NSaved=10 IEnMin= 9 EnMin= -496.751263050456     IErMin= 2 ErrMin= 2.66D-05
 ErrMax= 4.49D-05  0.00D+00 EMaxC= 1.00D-01 BMatC= 1.12D-06 BMatP= 4.07D-07
 IDIUse=1 WtCom= 1.00D+00 WtEn= 0.00D+00
 Coeff-Com: -0.114D+01 0.835D+00 0.157D+00 0.466D-01 0.276D+00-0.171D+01
 Coeff-Com:  0.123D+01 0.883D+00 0.625D+00-0.200D+00
 Coeff:     -0.114D+01 0.835D+00 0.157D+00 0.466D-01 0.276D+00-0.171D+01
 Coeff:      0.123D+01 0.883D+00 0.625D+00-0.200D+00
 Gap=     0.025 Goal=   None    Shift=    0.000
 Gap=     0.024 Goal=   None    Shift=    0.000
 RMSDP=2.23D-06 MaxDP=7.06D-05 DE= 5.30D-08 OVMax= 3.97D-04

 Cycle 118  Pass 1  IDiag  1:
 RMSU=  1.42D-08    CP:  1.00D+00  2.23D-01 -4.96D-01 -3.00D+00  3.00D+00
                    CP:  3.00D+00 -3.00D+00  3.00D+00  1.51D+00  1.80D+00
                    CP:  3.78D-04 -3.00D+00  1.24D+00 -3.00D+00  3.00D+00
                    CP:  1.57D+00  7.52D-01
 E= -496.751263018309     Delta-E=       -0.000000020867 Rises=F Damp=F
 DIIS: error= 4.57D-05 at cycle 118 NSaved=  11.
 NSaved=11 IEnMin= 9 EnMin= -496.751263050456     IErMin= 2 ErrMin= 2.66D-05
 ErrMax= 4.57D-05  0.00D+00 EMaxC= 1.00D-01 BMatC= 1.15D-06 BMatP= 4.07D-07
 IDIUse=1 WtCom= 1.00D+00 WtEn= 0.00D+00
 Coeff-Com: -0.992D+00 0.799D+00 0.150D+00 0.399D-01 0.266D+00-0.160D+01
 Coeff-Com:  0.114D+01 0.728D+00 0.409D+00 0.239D+01-0.233D+01
 Coeff:     -0.992D+00 0.799D+00 0.150D+00 0.399D-01 0.266D+00-0.160D+01
 Coeff:      0.114D+01 0.728D+00 0.409D+00 0.239D+01-0.233D+01
 Gap=     0.025 Goal=   None    Shift=    0.000
 Gap=     0.025 Goal=   None    Shift=    0.000
 RMSDP=6.63D-06 MaxDP=2.09D-04 DE=-2.09D-08 OVMax= 1.18D-03

 Cycle 119  Pass 1  IDiag  1:
 RMSU=  3.40D-09    CP:  1.00D+00  2.70D-01 -5.58D-01 -3.00D+00  3.00D+00
                    CP:  3.00D+00 -3.00D+00  3.00D+00  1.81D+00  2.12D+00
                    CP:  4.42D-04 -3.00D+00  1.67D+00 -3.00D+00  3.00D+00
                    CP:  1.95D+00  1.47D+00 -1.91D+00
 E= -496.751262955807     Delta-E=        0.000000062502 Rises=F Damp=F
 DIIS: error= 4.34D-05 at cycle 119 NSaved=  12.
 NSaved=12 IEnMin= 9 EnMin= -496.751263050456     IErMin= 2 ErrMin= 2.66D-05
 ErrMax= 4.34D-05  0.00D+00 EMaxC= 1.00D-01 BMatC= 1.04D-06 BMatP= 4.07D-07
 IDIUse=1 WtCom= 1.00D+00 WtEn= 0.00D+00
 Coeff-Com: -0.152D+01 0.516D+00 0.101D+00 0.341D-02 0.221D+00-0.934D+00
 Coeff-Com:  0.514D+00 0.173D+01 0.304D+01-0.444D+01-0.673D+01 0.851D+01
 Coeff:     -0.152D+01 0.516D+00 0.101D+00 0.341D-02 0.221D+00-0.934D+00
 Coeff:      0.514D+00 0.173D+01 0.304D+01-0.444D+01-0.673D+01 0.851D+01
 Gap=     0.025 Goal=   None    Shift=    0.000
 Gap=     0.025 Goal=   None    Shift=    0.000
 RMSDP=2.61D-05 MaxDP=8.00D-04 DE= 6.25D-08 OVMax= 4.50D-03

 Cycle 120  Pass 1  IDiag  1:
 RMSU=  3.52D-07    CP:  1.00D+00  4.57D-01 -7.34D-01 -3.00D+00  3.00D+00
                    CP:  3.00D+00 -3.00D+00  3.00D+00  2.77D+00  3.00D+00
                    CP:  6.47D-04 -3.00D+00  3.00D+00 -3.00D+00  3.00D+00
                    CP:  3.00D+00  3.00D+00 -3.00D+00  3.00D+00
 E= -496.751262692908     Delta-E=        0.000000262899 Rises=F Damp=F
 DIIS: error= 3.55D-05 at cycle 120 NSaved=  13.
 NSaved=13 IEnMin= 9 EnMin= -496.751263050456     IErMin= 2 ErrMin= 2.66D-05
 ErrMax= 3.55D-05  0.00D+00 EMaxC= 1.00D-01 BMatC= 6.99D-07 BMatP= 4.07D-07
 IDIUse=1 WtCom= 1.00D+00 WtEn= 0.00D+00
 Large coefficients: NSaved= 13 BigCof=   25.39 CofMax=   10.00 Det=-1.40D-14
 Inversion failed.  Reducing to 12 matrices.
 Large coefficients: NSaved= 12 BigCof=   21.17 CofMax=   10.00 Det=-1.60D-14
 Inversion failed.  Reducing to 11 matrices.
 Large coefficients: NSaved= 11 BigCof=   29.41 CofMax=   10.00 Det=-1.67D-14
 Inversion failed.  Reducing to 10 matrices.
 Large coefficients: NSaved= 10 BigCof=   79.49 CofMax=   10.00 Det=-1.84D-14
 Inversion failed.  Reducing to  9 matrices.
 Large coefficients: NSaved=  9 BigCof=   92.51 CofMax=   10.00 Det=-2.76D-14
 Inversion failed.  Reducing to  8 matrices.
 Large coefficients: NSaved=  8 BigCof=   86.13 CofMax=   10.00 Det=-2.76D-14
 Inversion failed.  Reducing to  7 matrices.
 Large coefficients: NSaved=  7 BigCof=   58.19 CofMax=   10.00 Det=-3.68D-14
 Inversion failed.  Reducing to  6 matrices.
 Large coefficients: NSaved=  6 BigCof=   23.98 CofMax=   10.00 Det=-4.91D-14
 Inversion failed.  Reducing to  5 matrices.
 Large coefficients: NSaved=  5 BigCof=   13.59 CofMax=   10.00 Det=-7.08D-14
 Inversion failed.  Reducing to  4 matrices.
 Large coefficients: NSaved=  4 BigCof=   15.57 CofMax=   10.00 Det=-1.18D-12
 Inversion failed.  Reducing to  3 matrices.
 Coeff-Com: -0.265D+01-0.689D+00 0.434D+01
 Coeff:     -0.265D+01-0.689D+00 0.434D+01
 Gap=     0.025 Goal=   None    Shift=    0.000
 Gap=     0.025 Goal=   None    Shift=    0.000
 RMSDP=1.10D-04 MaxDP=3.47D-03 DE= 2.63D-07 OVMax= 1.95D-02

 Cycle 121  Pass 1  IDiag  1:
 Restarting incremental Fock formation.
 E= -496.751261367019     Delta-E=        0.000001325889 Rises=F Damp=F
 DIIS: error= 2.05D-05 at cycle 121 NSaved=   4.
 NSaved= 4 IEnMin= 1 EnMin= -496.751263050456     IErMin= 4 ErrMin= 2.05D-05
 ErrMax= 2.05D-05  0.00D+00 EMaxC= 1.00D-01 BMatC= 2.47D-07 BMatP= 6.99D-07
 IDIUse=1 WtCom= 1.00D+00 WtEn= 0.00D+00
 Coeff-Com: -0.208D+01-0.100D+01 0.382D+01 0.269D+00
 Coeff:     -0.208D+01-0.100D+01 0.382D+01 0.269D+00
 Gap=     0.025 Goal=   None    Shift=    0.000
 Gap=     0.025 Goal=   None    Shift=    0.000
 RMSDP=1.72D-05 MaxDP=5.36D-04 DE= 1.33D-06 OVMax= 3.01D-03

 Cycle 122  Pass 1  IDiag  1:
 RMSU=  1.72D-05    CP:  1.00D+00
 E= -496.751261123588     Delta-E=        0.000000243431 Rises=F Damp=F
 DIIS: error= 2.10D-05 at cycle 122 NSaved=   5.
 NSaved= 5 IEnMin= 1 EnMin= -496.751263050456     IErMin= 4 ErrMin= 2.05D-05
 ErrMax= 2.10D-05  0.00D+00 EMaxC= 1.00D-01 BMatC= 2.56D-07 BMatP= 2.47D-07
 IDIUse=1 WtCom= 1.00D+00 WtEn= 0.00D+00
 Coeff-Com: -0.173D+01-0.300D+01 0.634D+01 0.242D+01-0.304D+01
 Coeff:     -0.173D+01-0.300D+01 0.634D+01 0.242D+01-0.304D+01
 Gap=     0.025 Goal=   None    Shift=    0.000
 Gap=     0.025 Goal=   None    Shift=    0.000
 RMSDP=1.10D-04 MaxDP=3.51D-03 DE= 2.43D-07 OVMax= 1.97D-02

 Cycle 123  Pass 1  IDiag  1:
 RMSU=  4.15D-05    CP:  1.00D+00 -3.00D+00
 E= -496.751262501421     Delta-E=       -0.000001377833 Rises=F Damp=F
 DIIS: error= 3.13D-05 at cycle 123 NSaved=   6.
 NSaved= 6 IEnMin= 1 EnMin= -496.751263050456     IErMin= 4 ErrMin= 2.05D-05
 ErrMax= 3.13D-05  0.00D+00 EMaxC= 1.00D-01 BMatC= 5.72D-07 BMatP= 2.47D-07
 IDIUse=1 WtCom= 1.00D+00 WtEn= 0.00D+00
 Large coefficients: NSaved=  6 BigCof=   10.70 CofMax=   10.00 Det=-6.13D-12
 Inversion failed.  Reducing to  5 matrices.
 Coeff-Com: -0.272D+01-0.384D+00 0.414D+01 0.156D+00-0.186D+00
 Coeff:     -0.272D+01-0.384D+00 0.414D+01 0.156D+00-0.186D+00
 Gap=     0.025 Goal=   None    Shift=    0.000
 Gap=     0.025 Goal=   None    Shift=    0.000
 RMSDP=1.04D-04 MaxDP=3.34D-03 DE=-1.38D-06 OVMax= 1.88D-02

 Cycle 124  Pass 1  IDiag  1:
 RMSU=  6.42D-07    CP:  1.00D+00  6.58D-01 -9.66D-04
 E= -496.751261209998     Delta-E=        0.000001291422 Rises=F Damp=F
 DIIS: error= 2.06D-05 at cycle 124 NSaved=   6.
 NSaved= 6 IEnMin= 1 EnMin= -496.751263050456     IErMin= 6 ErrMin= 2.06D-05
 ErrMax= 2.06D-05  0.00D+00 EMaxC= 1.00D-01 BMatC= 2.48D-07 BMatP= 2.56D-07
 IDIUse=1 WtCom= 1.00D+00 WtEn= 0.00D+00
 Coeff-Com:  0.552D+00-0.638D+01 0.726D+01-0.517D+01 0.362D+00 0.437D+01
 Coeff:      0.552D+00-0.638D+01 0.726D+01-0.517D+01 0.362D+00 0.437D+01
 Gap=     0.025 Goal=   None    Shift=    0.000
 Gap=     0.025 Goal=   None    Shift=    0.000
 RMSDP=9.99D-05 MaxDP=3.22D-03 DE= 1.29D-06 OVMax= 1.81D-02

 Cycle 125  Pass 1  IDiag  1:
 RMSU=  1.26D-07    CP:  1.00D+00 -3.00D+00  8.94D-01 -1.13D+00
 E= -496.751262457867     Delta-E=       -0.000001247869 Rises=F Damp=F
 DIIS: error= 2.95D-05 at cycle 125 NSaved=   7.
 NSaved= 7 IEnMin= 1 EnMin= -496.751263050456     IErMin= 6 ErrMin= 2.06D-05
 ErrMax= 2.95D-05  0.00D+00 EMaxC= 1.00D-01 BMatC= 5.20D-07 BMatP= 2.48D-07
 IDIUse=1 WtCom= 1.00D+00 WtEn= 0.00D+00
 Large coefficients: NSaved=  7 BigCof=   17.29 CofMax=   10.00 Det=-4.16D-12
 Inversion failed.  Reducing to  6 matrices.
 Coeff-Com: -0.238D+01-0.658D+00 0.397D+01-0.248D+00 0.280D+00 0.265D-01
 Coeff:     -0.238D+01-0.658D+00 0.397D+01-0.248D+00 0.280D+00 0.265D-01
 Gap=     0.025 Goal=   None    Shift=    0.000
 Gap=     0.025 Goal=   None    Shift=    0.000
 RMSDP=1.08D-04 MaxDP=3.48D-03 DE=-1.25D-06 OVMax= 1.96D-02

 Cycle 126  Pass 1  IDiag  1:
 RMSU=  2.19D-08    CP:  1.00D+00  1.14D+00 -1.12D-03  1.18D+00  5.47D-02
 E= -496.751261091573     Delta-E=        0.000001366294 Rises=F Damp=F
 DIIS: error= 2.09D-05 at cycle 126 NSaved=   7.
 NSaved= 7 IEnMin= 1 EnMin= -496.751263050456     IErMin= 5 ErrMin= 2.06D-05
 ErrMax= 2.09D-05  0.00D+00 EMaxC= 1.00D-01 BMatC= 2.54D-07 BMatP= 2.48D-07
 IDIUse=1 WtCom= 1.00D+00 WtEn= 0.00D+00
 Large coefficients: NSaved=  7 BigCof=   16.73 CofMax=   10.00 Det=-7.45D-12
 Inversion failed.  Reducing to  6 matrices.
 Coeff-Com: -0.262D+01-0.570D+00 0.418D+01-0.180D+00 0.771D-01 0.107D+00
 Coeff:     -0.262D+01-0.570D+00 0.418D+01-0.180D+00 0.771D-01 0.107D+00
 Gap=     0.025 Goal=   None    Shift=    0.000
 Gap=     0.025 Goal=   None    Shift=    0.000
 RMSDP=1.13D-05 MaxDP=3.64D-04 DE= 1.37D-06 OVMax= 2.05D-03

 Cycle 127  Pass 1  IDiag  1:
 RMSU=  1.29D-08    CP:  1.00D+00  4.76D-01 -5.75D-04  5.92D-01 -9.74D-02
                    CP:  8.46D-02
 E= -496.751261254199     Delta-E=       -0.000000162626 Rises=F Damp=F
 DIIS: error= 2.05D-05 at cycle 127 NSaved=   7.
 NSaved= 7 IEnMin= 1 EnMin= -496.751263050456     IErMin= 7 ErrMin= 2.05D-05
 ErrMax= 2.05D-05  0.00D+00 EMaxC= 1.00D-01 BMatC= 2.46D-07 BMatP= 2.54D-07
 IDIUse=1 WtCom= 1.00D+00 WtEn= 0.00D+00
 Large coefficients: NSaved=  7 BigCof=   13.37 CofMax=   10.00 Det=-7.83D-12
 Inversion failed.  Reducing to  6 matrices.
 Coeff-Com: -0.313D+01-0.227D+01 0.701D+01 0.105D+01-0.769D+01 0.603D+01
 Coeff:     -0.313D+01-0.227D+01 0.701D+01 0.105D+01-0.769D+01 0.603D+01
 Gap=     0.024 Goal=   None    Shift=    0.000
 Gap=     0.024 Goal=   None    Shift=    0.000
 RMSDP=2.17D-04 MaxDP=7.00D-03 DE=-1.63D-07 OVMax= 3.94D-02

 Cycle 128  Pass 1  IDiag  1:
 RMSU=  3.28D-05    CP:  1.00D+00 -3.00D+00  3.00D+00  2.56D+00  3.00D+00
                    CP:  3.00D+00 -3.00D+00
 E= -496.751263346641     Delta-E=       -0.000002092442 Rises=F Damp=F
 DIIS: error= 7.75D-05 at cycle 128 NSaved=   7.
 NSaved= 7 IEnMin= 7 EnMin= -496.751263346641     IErMin= 6 ErrMin= 2.05D-05
 ErrMax= 7.75D-05  0.00D+00 EMaxC= 1.00D-01 BMatC= 3.45D-06 BMatP= 2.46D-07
 IDIUse=1 WtCom= 1.00D+00 WtEn= 0.00D+00
 Large coefficients: NSaved=  7 BigCof=   12.84 CofMax=   10.00 Det=-7.83D-12
 Inversion failed.  Reducing to  6 matrices.
 Coeff-Com: -0.249D+01-0.526D+00 0.398D+01-0.299D+00 0.316D+00 0.109D-01
 Coeff:     -0.249D+01-0.526D+00 0.398D+01-0.299D+00 0.316D+00 0.109D-01
 Gap=     0.025 Goal=   None    Shift=    0.000
 Gap=     0.025 Goal=   None    Shift=    0.000
 RMSDP=2.30D-04 MaxDP=7.42D-03 DE=-2.09D-06 OVMax= 4.17D-02

 >>>>>>>>>> Convergence criterion not met.
 Error on total polarization charges =  0.00826
 SCF Done:  E(UB3LYP) =  -496.751263347     A.U. after  129 cycles
            NFock=128  Conv=0.23D-03     -V/T= 2.0096
 <Sx>= 0.0000 <Sy>= 0.0000 <Sz>= 0.0000 <S**2>= 0.0000 S= 0.0000
 <L.S>=  0.00000000000    
 KE= 4.920154300385D+02 PE=-2.299364439781D+03 EE= 7.387336090217D+02
 Annihilation of the first spin contaminant:
 S**2 before annihilation     0.0000,   after     0.0000
 Leave Link  502 at Sat May 11 02:38:56 2019, MaxMem=   104857600 cpu:            3159.0 elap:              99.4
 (Enter /opt/software/gaussian/g16.b01/l801.exe)
 DoSCS=F DFT=T ScalE2(SS,OS)=  1.000000  1.000000
 SCFChk:  SCF convergence  2.30D-04 required  1.00D-08


 SCF Error SCF Error SCF Error SCF Error SCF Error SCF Error SCF Error SCF Error

                                    ERROR!!!!

    SCF has not converged.  Gradients and post-SCF results would be GARBAGE!!

 SCF Error SCF Error SCF Error SCF Error SCF Error SCF Error SCF Error SCF Error


 Error termination via Lnk1e in /opt/software/gaussian/g16.b01/l801.exe at Sat May 11 02:38:56 2019.
 Job cpu time:       2 days 12 hours 15 minutes 29.2 seconds.
 Elapsed time:       0 days  1 hours 53 minutes 44.6 seconds.
 File lengths (MBytes):  RWF=    506 Int=      0 D2E=      0 Chk=     35 Scr=      1
