 Entering Gaussian System, Link 0=g16
 Initial command:
 /project/6004141/group/g16/g16/l1.exe "/scratch/rzk/Gau-16866.inp" -scrdir="/scratch/rzk/"
 Entering Link 1 = /project/6004141/group/g16/g16/l1.exe PID=     16868.
  
 Copyright (c) 1988,1990,1992,1993,1995,1998,2003,2009,2016,
            Gaussian, Inc.  All Rights Reserved.
  
 This is part of the Gaussian(R) 16 program.  It is based on
 the Gaussian(R) 09 system (copyright 2009, Gaussian, Inc.),
 the Gaussian(R) 03 system (copyright 2003, Gaussian, Inc.),
 the Gaussian(R) 98 system (copyright 1998, Gaussian, Inc.),
 the Gaussian(R) 94 system (copyright 1995, Gaussian, Inc.),
 the Gaussian 92(TM) system (copyright 1992, Gaussian, Inc.),
 the Gaussian 90(TM) system (copyright 1990, Gaussian, Inc.),
 the Gaussian 88(TM) system (copyright 1988, Gaussian, Inc.),
 the Gaussian 86(TM) system (copyright 1986, Carnegie Mellon
 University), and the Gaussian 82(TM) system (copyright 1983,
 Carnegie Mellon University). Gaussian is a federally registered
 trademark of Gaussian, Inc.
  
 This software contains proprietary and confidential information,
 including trade secrets, belonging to Gaussian, Inc.
  
 This software is provided under written license and may be
 used, copied, transmitted, or stored only in accord with that
 written license.
  
 The following legend is applicable only to US Government
 contracts under FAR:
  
                    RESTRICTED RIGHTS LEGEND
  
 Use, reproduction and disclosure by the US Government is
 subject to restrictions as set forth in subparagraphs (a)
 and (c) of the Commercial Computer Software - Restricted
 Rights clause in FAR 52.227-19.
  
 Gaussian, Inc.
 340 Quinnipiac St., Bldg. 40, Wallingford CT 06492
  
  
 ---------------------------------------------------------------
 Warning -- This program may not be used in any manner that
 competes with the business of Gaussian, Inc. or will provide
 assistance to any competitor of Gaussian, Inc.  The licensee
 of this program is prohibited from giving any competitor of
 Gaussian, Inc. access to this program.  By using this program,
 the user acknowledges that Gaussian, Inc. is engaged in the
 business of creating and licensing software in the field of
 computational chemistry and represents and warrants to the
 licensee that it is not a competitor of Gaussian, Inc. and that
 it will not use this program in any manner prohibited above.
 ---------------------------------------------------------------
  

 Cite this work as:
 Gaussian 16, Revision A.03,
 M. J. Frisch, G. W. Trucks, H. B. Schlegel, G. E. Scuseria, 
 M. A. Robb, J. R. Cheeseman, G. Scalmani, V. Barone, 
 G. A. Petersson, H. Nakatsuji, X. Li, M. Caricato, A. V. Marenich, 
 J. Bloino, B. G. Janesko, R. Gomperts, B. Mennucci, H. P. Hratchian, 
 J. V. Ortiz, A. F. Izmaylov, J. L. Sonnenberg, D. Williams-Young, 
 F. Ding, F. Lipparini, F. Egidi, J. Goings, B. Peng, A. Petrone, 
 T. Henderson, D. Ranasinghe, V. G. Zakrzewski, J. Gao, N. Rega, 
 G. Zheng, W. Liang, M. Hada, M. Ehara, K. Toyota, R. Fukuda, 
 J. Hasegawa, M. Ishida, T. Nakajima, Y. Honda, O. Kitao, H. Nakai, 
 T. Vreven, K. Throssell, J. A. Montgomery, Jr., J. E. Peralta, 
 F. Ogliaro, M. J. Bearpark, J. J. Heyd, E. N. Brothers, K. N. Kudin, 
 V. N. Staroverov, T. A. Keith, R. Kobayashi, J. Normand, 
 K. Raghavachari, A. P. Rendell, J. C. Burant, S. S. Iyengar, 
 J. Tomasi, M. Cossi, J. M. Millam, M. Klene, C. Adamo, R. Cammi, 
 J. W. Ochterski, R. L. Martin, K. Morokuma, O. Farkas, 
 J. B. Foresman, and D. J. Fox, Gaussian, Inc., Wallingford CT, 2016.
 
 ******************************************
 Gaussian 16:  ES64L-G16RevA.03 25-Dec-2016
                11-Jun-2019 
 ******************************************
 %NProcShared=40
 Will use up to   40 processors via shared memory.
 %chk=AABH.chk
 ----------------------------------------------------------------------
 #p opt ub3lyp/6-31g(d,p) scrf=(iefpcm,solvent=acetonitrile) guess=(mix
 ,always) empiricaldispersion=gd3
 ----------------------------------------------------------------------
 1/18=20,19=15,26=3,38=1/1,3;
 2/9=110,12=2,17=6,18=5,40=1/2;
 3/5=1,6=6,7=101,11=2,25=1,30=1,70=2201,71=1,72=2,74=-5,116=2,124=31/1,2,3;
 4/13=-1/1;
 5/5=2,38=5,53=2/2;
 6/7=2,8=2,9=2,10=2,28=1/1;
 7//1,2,3,16;
 1/18=20,19=15,26=3/3(2);
 2/9=110/2;
 99//99;
 2/9=110/2;
 3/5=1,6=6,7=101,11=2,25=1,30=1,70=2205,71=1,72=2,74=-5,116=2,124=31/1,2,3;
 4/13=-1/1;
 5/5=2,38=5,53=2/2;
 7//1,2,3,16;
 1/18=20,19=15,26=3/3(-5);
 2/9=110/2;
 6/7=2,8=2,9=2,10=2,19=2,28=1/1;
 99/9=1/99;
 Leave Link    1 at Tue Jun 11 16:34:12 2019, MaxMem=           0 cpu:              15.5 elap:               0.4
 (Enter /project/6004141/group/g16/g16/l101.exe)
 -------------------
 Title Card Required
 -------------------
 Symbolic Z-matrix:
 Charge =  0 Multiplicity = 1
 C                     0.58588   0.22433  -0.91915 
 H                     2.89796   2.34475   0.02014 
 C                    -0.29171   0.95251   0.22336 
 O                    -0.37884   2.32087  -0.1755 
 O                     1.68231   1.11663  -1.20489 
 N                     1.86265   3.68882   0.69801 
 H                     1.91056   4.60457   1.17284 
 N                     3.01128   3.26053   0.50029 
 H                     1.20678   1.9735   -1.40402 
 H                     0.46992   2.88634   0.2739 
 C                    -0.22249   0.08726  -2.21707 
 H                     0.43682  -0.26149  -3.01569 
 H                    -1.06189  -0.60198  -2.1218 
 H                    -0.62937   1.06472  -2.4917 
 C                     0.3899    0.85063   1.59573 
 H                    -0.13329   1.50103   2.30198 
 H                     0.38629  -0.16639   1.98753 
 H                     1.43264   1.16584   1.533 
 C                     1.18841  -1.09991  -0.46888 
 C                     2.48581  -1.14975   0.06426 
 C                     0.46578  -2.29967  -0.55633 
 C                     3.03539  -2.3524    0.50973 
 H                     3.06997  -0.23988   0.12528 
 C                     1.01201  -3.50356  -0.10731 
 H                    -0.53703  -2.30185  -0.96612 
 C                     2.29968  -3.53647   0.42987 
 H                     4.04223  -2.36277   0.91753 
 H                     0.42848  -4.4165   -0.18358 
 H                     2.72645  -4.47311   0.7762 
 C                    -1.71643   0.39217   0.28116 
 C                    -2.77129   1.08805  -0.32759 
 C                    -2.00971  -0.82345   0.91806 
 C                    -4.07171   0.58156  -0.31274 
 H                    -2.56158   2.0349   -0.80941 
 C                    -3.30956  -1.33363   0.93268 
 H                    -1.2228   -1.38974   1.40168 
 C                    -4.34812  -0.63451   0.31554 
 H                    -4.87064   1.14085  -0.79178 
 H                    -3.50794  -2.27769   1.43218 
 H                    -5.35978  -1.02946   0.32882 
 
 Add virtual bond connecting atoms H10        and N6         Dist= 3.14D+00.
 ITRead=  0  0  0  0  0  0  0  0  0  0  0  0  0  0  0  0  0  0  0  0
 ITRead=  0  0  0  0  0  0  0  0  0  0  0  0  0  0  0  0  0  0  0  0
 MicOpt= -1 -1 -1 -1 -1 -1 -1 -1 -1 -1 -1 -1 -1 -1 -1 -1 -1 -1 -1 -1
 MicOpt= -1 -1 -1 -1 -1 -1 -1 -1 -1 -1 -1 -1 -1 -1 -1 -1 -1 -1 -1 -1
 NAtoms=     40 NQM=       40 NQMF=       0 NMMI=      0 NMMIF=      0
                NMic=       0 NMicF=      0.
                    Isotopes and Nuclear Properties:
 (Nuclear quadrupole moments (NQMom) in fm**2, nuclear magnetic moments (NMagM)
  in nuclear magnetons)

  Atom         1           2           3           4           5           6           7           8           9          10
 IAtWgt=          12           1          12          16          16          14           1          14           1           1
 AtmWgt=  12.0000000   1.0078250  12.0000000  15.9949146  15.9949146  14.0030740   1.0078250  14.0030740   1.0078250   1.0078250
 NucSpn=           0           1           0           0           0           2           1           2           1           1
 AtZEff=  -0.0000000  -0.0000000  -0.0000000  -0.0000000  -0.0000000  -0.0000000  -0.0000000  -0.0000000  -0.0000000  -0.0000000
 NQMom=    0.0000000   0.0000000   0.0000000   0.0000000   0.0000000   2.0440000   0.0000000   2.0440000   0.0000000   0.0000000
 NMagM=    0.0000000   2.7928460   0.0000000   0.0000000   0.0000000   0.4037610   2.7928460   0.4037610   2.7928460   2.7928460
 AtZNuc=   6.0000000   1.0000000   6.0000000   8.0000000   8.0000000   7.0000000   1.0000000   7.0000000   1.0000000   1.0000000

  Atom        11          12          13          14          15          16          17          18          19          20
 IAtWgt=          12           1           1           1          12           1           1           1          12          12
 AtmWgt=  12.0000000   1.0078250   1.0078250   1.0078250  12.0000000   1.0078250   1.0078250   1.0078250  12.0000000  12.0000000
 NucSpn=           0           1           1           1           0           1           1           1           0           0
 AtZEff=  -0.0000000  -0.0000000  -0.0000000  -0.0000000  -0.0000000  -0.0000000  -0.0000000  -0.0000000  -0.0000000  -0.0000000
 NQMom=    0.0000000   0.0000000   0.0000000   0.0000000   0.0000000   0.0000000   0.0000000   0.0000000   0.0000000   0.0000000
 NMagM=    0.0000000   2.7928460   2.7928460   2.7928460   0.0000000   2.7928460   2.7928460   2.7928460   0.0000000   0.0000000
 AtZNuc=   6.0000000   1.0000000   1.0000000   1.0000000   6.0000000   1.0000000   1.0000000   1.0000000   6.0000000   6.0000000

  Atom        21          22          23          24          25          26          27          28          29          30
 IAtWgt=          12          12           1          12           1          12           1           1           1          12
 AtmWgt=  12.0000000  12.0000000   1.0078250  12.0000000   1.0078250  12.0000000   1.0078250   1.0078250   1.0078250  12.0000000
 NucSpn=           0           0           1           0           1           0           1           1           1           0
 AtZEff=  -0.0000000  -0.0000000  -0.0000000  -0.0000000  -0.0000000  -0.0000000  -0.0000000  -0.0000000  -0.0000000  -0.0000000
 NQMom=    0.0000000   0.0000000   0.0000000   0.0000000   0.0000000   0.0000000   0.0000000   0.0000000   0.0000000   0.0000000
 NMagM=    0.0000000   0.0000000   2.7928460   0.0000000   2.7928460   0.0000000   2.7928460   2.7928460   2.7928460   0.0000000
 AtZNuc=   6.0000000   6.0000000   1.0000000   6.0000000   1.0000000   6.0000000   1.0000000   1.0000000   1.0000000   6.0000000

  Atom        31          32          33          34          35          36          37          38          39          40
 IAtWgt=          12          12          12           1          12           1          12           1           1           1
 AtmWgt=  12.0000000  12.0000000  12.0000000   1.0078250  12.0000000   1.0078250  12.0000000   1.0078250   1.0078250   1.0078250
 NucSpn=           0           0           0           1           0           1           0           1           1           1
 AtZEff=  -0.0000000  -0.0000000  -0.0000000  -0.0000000  -0.0000000  -0.0000000  -0.0000000  -0.0000000  -0.0000000  -0.0000000
 NQMom=    0.0000000   0.0000000   0.0000000   0.0000000   0.0000000   0.0000000   0.0000000   0.0000000   0.0000000   0.0000000
 NMagM=    0.0000000   0.0000000   0.0000000   2.7928460   0.0000000   2.7928460   0.0000000   2.7928460   2.7928460   2.7928460
 AtZNuc=   6.0000000   6.0000000   6.0000000   1.0000000   6.0000000   1.0000000   6.0000000   1.0000000   1.0000000   1.0000000
 Leave Link  101 at Tue Jun 11 16:34:13 2019, MaxMem=   104857600 cpu:              10.1 elap:               0.3
 (Enter /project/6004141/group/g16/g16/l103.exe)

 GradGradGradGradGradGradGradGradGradGradGradGradGradGradGradGradGradGrad
 Berny optimization.
 Initialization pass.
                           ----------------------------
                           !    Initial Parameters    !
                           ! (Angstroms and Degrees)  !
 --------------------------                            --------------------------
 ! Name  Definition              Value          Derivative Info.                !
 --------------------------------------------------------------------------------
 ! R1    R(1,3)                  1.6142         estimate D2E/DX2                !
 ! R2    R(1,5)                  1.4422         estimate D2E/DX2                !
 ! R3    R(1,11)                 1.5352         estimate D2E/DX2                !
 ! R4    R(1,19)                 1.523          estimate D2E/DX2                !
 ! R5    R(2,8)                  1.0402         estimate D2E/DX2                !
 ! R6    R(3,4)                  1.428          estimate D2E/DX2                !
 ! R7    R(3,15)                 1.5357         estimate D2E/DX2                !
 ! R8    R(3,30)                 1.532          estimate D2E/DX2                !
 ! R9    R(4,10)                 1.1145         estimate D2E/DX2                !
 ! R10   R(5,9)                  1.0            estimate D2E/DX2                !
 ! R11   R(6,7)                  1.0326         estimate D2E/DX2                !
 ! R12   R(6,8)                  1.2417         estimate D2E/DX2                !
 ! R13   R(6,10)                 1.6624         estimate D2E/DX2                !
 ! R14   R(11,12)                1.0927         estimate D2E/DX2                !
 ! R15   R(11,13)                1.0903         estimate D2E/DX2                !
 ! R16   R(11,14)                1.0938         estimate D2E/DX2                !
 ! R17   R(15,16)                1.0934         estimate D2E/DX2                !
 ! R18   R(15,17)                1.0899         estimate D2E/DX2                !
 ! R19   R(15,18)                1.0911         estimate D2E/DX2                !
 ! R20   R(19,20)                1.4036         estimate D2E/DX2                !
 ! R21   R(19,21)                1.4033         estimate D2E/DX2                !
 ! R22   R(20,22)                1.3953         estimate D2E/DX2                !
 ! R23   R(20,23)                1.083          estimate D2E/DX2                !
 ! R24   R(21,24)                1.3962         estimate D2E/DX2                !
 ! R25   R(21,25)                1.0833         estimate D2E/DX2                !
 ! R26   R(22,26)                1.3963         estimate D2E/DX2                !
 ! R27   R(22,27)                1.0863         estimate D2E/DX2                !
 ! R28   R(24,26)                1.3956         estimate D2E/DX2                !
 ! R29   R(24,28)                1.0862         estimate D2E/DX2                !
 ! R30   R(26,29)                1.086          estimate D2E/DX2                !
 ! R31   R(30,31)                1.4027         estimate D2E/DX2                !
 ! R32   R(30,32)                1.4033         estimate D2E/DX2                !
 ! R33   R(31,33)                1.3957         estimate D2E/DX2                !
 ! R34   R(31,34)                1.0829         estimate D2E/DX2                !
 ! R35   R(32,35)                1.3965         estimate D2E/DX2                !
 ! R36   R(32,36)                1.0834         estimate D2E/DX2                !
 ! R37   R(33,37)                1.3964         estimate D2E/DX2                !
 ! R38   R(33,38)                1.0865         estimate D2E/DX2                !
 ! R39   R(35,37)                1.3958         estimate D2E/DX2                !
 ! R40   R(35,39)                1.0863         estimate D2E/DX2                !
 ! R41   R(37,40)                1.0861         estimate D2E/DX2                !
 ! A1    A(3,1,5)              105.9283         estimate D2E/DX2                !
 ! A2    A(3,1,11)             110.6334         estimate D2E/DX2                !
 ! A3    A(3,1,19)             113.4582         estimate D2E/DX2                !
 ! A4    A(5,1,11)             106.7409         estimate D2E/DX2                !
 ! A5    A(5,1,19)             107.2038         estimate D2E/DX2                !
 ! A6    A(11,1,19)            112.3738         estimate D2E/DX2                !
 ! A7    A(1,3,4)              105.5307         estimate D2E/DX2                !
 ! A8    A(1,3,15)             111.1782         estimate D2E/DX2                !
 ! A9    A(1,3,30)             111.5483         estimate D2E/DX2                !
 ! A10   A(4,3,15)             109.8931         estimate D2E/DX2                !
 ! A11   A(4,3,30)             107.7149         estimate D2E/DX2                !
 ! A12   A(15,3,30)            110.7792         estimate D2E/DX2                !
 ! A13   A(3,4,10)             109.0931         estimate D2E/DX2                !
 ! A14   A(1,5,9)              102.0095         estimate D2E/DX2                !
 ! A15   A(7,6,8)              109.6444         estimate D2E/DX2                !
 ! A16   A(7,6,10)             125.7504         estimate D2E/DX2                !
 ! A17   A(8,6,10)             124.6006         estimate D2E/DX2                !
 ! A18   A(2,8,6)              106.0446         estimate D2E/DX2                !
 ! A19   A(1,11,12)            109.1882         estimate D2E/DX2                !
 ! A20   A(1,11,13)            112.827          estimate D2E/DX2                !
 ! A21   A(1,11,14)            109.169          estimate D2E/DX2                !
 ! A22   A(12,11,13)           109.0638         estimate D2E/DX2                !
 ! A23   A(12,11,14)           109.0348         estimate D2E/DX2                !
 ! A24   A(13,11,14)           107.4866         estimate D2E/DX2                !
 ! A25   A(3,15,16)            108.9887         estimate D2E/DX2                !
 ! A26   A(3,15,17)            112.4387         estimate D2E/DX2                !
 ! A27   A(3,15,18)            110.7083         estimate D2E/DX2                !
 ! A28   A(16,15,17)           108.7407         estimate D2E/DX2                !
 ! A29   A(16,15,18)           108.818          estimate D2E/DX2                !
 ! A30   A(17,15,18)           107.0616         estimate D2E/DX2                !
 ! A31   A(1,19,20)            120.59           estimate D2E/DX2                !
 ! A32   A(1,19,21)            121.4155         estimate D2E/DX2                !
 ! A33   A(20,19,21)           117.9899         estimate D2E/DX2                !
 ! A34   A(19,20,22)           121.0625         estimate D2E/DX2                !
 ! A35   A(19,20,23)           119.3518         estimate D2E/DX2                !
 ! A36   A(22,20,23)           119.585          estimate D2E/DX2                !
 ! A37   A(19,21,24)           121.0436         estimate D2E/DX2                !
 ! A38   A(19,21,25)           120.1312         estimate D2E/DX2                !
 ! A39   A(24,21,25)           118.8213         estimate D2E/DX2                !
 ! A40   A(20,22,26)           120.3395         estimate D2E/DX2                !
 ! A41   A(20,22,27)           119.5466         estimate D2E/DX2                !
 ! A42   A(26,22,27)           120.1137         estimate D2E/DX2                !
 ! A43   A(21,24,26)           120.3374         estimate D2E/DX2                !
 ! A44   A(21,24,28)           119.4705         estimate D2E/DX2                !
 ! A45   A(26,24,28)           120.1914         estimate D2E/DX2                !
 ! A46   A(22,26,24)           119.2201         estimate D2E/DX2                !
 ! A47   A(22,26,29)           120.4034         estimate D2E/DX2                !
 ! A48   A(24,26,29)           120.3754         estimate D2E/DX2                !
 ! A49   A(3,30,31)            120.1002         estimate D2E/DX2                !
 ! A50   A(3,30,32)            121.8903         estimate D2E/DX2                !
 ! A51   A(31,30,32)           118.0045         estimate D2E/DX2                !
 ! A52   A(30,31,33)           121.0674         estimate D2E/DX2                !
 ! A53   A(30,31,34)           118.7665         estimate D2E/DX2                !
 ! A54   A(33,31,34)           120.1655         estimate D2E/DX2                !
 ! A55   A(30,32,35)           121.0473         estimate D2E/DX2                !
 ! A56   A(30,32,36)           120.2357         estimate D2E/DX2                !
 ! A57   A(35,32,36)           118.7144         estimate D2E/DX2                !
 ! A58   A(31,33,37)           120.3489         estimate D2E/DX2                !
 ! A59   A(31,33,38)           119.5789         estimate D2E/DX2                !
 ! A60   A(37,33,38)           120.0721         estimate D2E/DX2                !
 ! A61   A(32,35,37)           120.3295         estimate D2E/DX2                !
 ! A62   A(32,35,39)           119.4908         estimate D2E/DX2                !
 ! A63   A(37,35,39)           120.1792         estimate D2E/DX2                !
 ! A64   A(33,37,35)           119.1986         estimate D2E/DX2                !
 ! A65   A(33,37,40)           120.4345         estimate D2E/DX2                !
 ! A66   A(35,37,40)           120.3661         estimate D2E/DX2                !
 ! A67   L(4,10,6,5,-1)        172.0948         estimate D2E/DX2                !
 ! A68   L(4,10,6,5,-2)        174.38           estimate D2E/DX2                !
 ! D1    D(5,1,3,4)             43.2071         estimate D2E/DX2                !
 ! D2    D(5,1,3,15)           -75.8979         estimate D2E/DX2                !
 ! D3    D(5,1,3,30)           159.9047         estimate D2E/DX2                !
 ! D4    D(11,1,3,4)           -72.1044         estimate D2E/DX2                !
 ! D5    D(11,1,3,15)          168.7907         estimate D2E/DX2                !
 ! D6    D(11,1,3,30)           44.5933         estimate D2E/DX2                !
 ! D7    D(19,1,3,4)           160.5385         estimate D2E/DX2                !
 ! D8    D(19,1,3,15)           41.4336         estimate D2E/DX2                !
 ! D9    D(19,1,3,30)          -82.7639         estimate D2E/DX2                !
 ! D10   D(3,1,5,9)            -53.3666         estimate D2E/DX2                !
 ! D11   D(11,1,5,9)            64.5716         estimate D2E/DX2                !
 ! D12   D(19,1,5,9)          -174.8148         estimate D2E/DX2                !
 ! D13   D(3,1,11,12)          171.1868         estimate D2E/DX2                !
 ! D14   D(3,1,11,13)          -67.3667         estimate D2E/DX2                !
 ! D15   D(3,1,11,14)           52.071          estimate D2E/DX2                !
 ! D16   D(5,1,11,12)           56.3847         estimate D2E/DX2                !
 ! D17   D(5,1,11,13)          177.8313         estimate D2E/DX2                !
 ! D18   D(5,1,11,14)          -62.731          estimate D2E/DX2                !
 ! D19   D(19,1,11,12)         -60.862          estimate D2E/DX2                !
 ! D20   D(19,1,11,13)          60.5846         estimate D2E/DX2                !
 ! D21   D(19,1,11,14)        -179.9777         estimate D2E/DX2                !
 ! D22   D(3,1,19,20)          -93.4214         estimate D2E/DX2                !
 ! D23   D(3,1,19,21)           85.7753         estimate D2E/DX2                !
 ! D24   D(5,1,19,20)           23.164          estimate D2E/DX2                !
 ! D25   D(5,1,19,21)         -157.6393         estimate D2E/DX2                !
 ! D26   D(11,1,19,20)         140.1348         estimate D2E/DX2                !
 ! D27   D(11,1,19,21)         -40.6686         estimate D2E/DX2                !
 ! D28   D(1,3,4,10)           -90.7968         estimate D2E/DX2                !
 ! D29   D(15,3,4,10)           29.1579         estimate D2E/DX2                !
 ! D30   D(30,3,4,10)          149.9317         estimate D2E/DX2                !
 ! D31   D(1,3,15,16)          169.9104         estimate D2E/DX2                !
 ! D32   D(1,3,15,17)          -69.4451         estimate D2E/DX2                !
 ! D33   D(1,3,15,18)           50.2557         estimate D2E/DX2                !
 ! D34   D(4,3,15,16)           53.4507         estimate D2E/DX2                !
 ! D35   D(4,3,15,17)          174.0953         estimate D2E/DX2                !
 ! D36   D(4,3,15,18)          -66.204          estimate D2E/DX2                !
 ! D37   D(30,3,15,16)         -65.4576         estimate D2E/DX2                !
 ! D38   D(30,3,15,17)          55.187          estimate D2E/DX2                !
 ! D39   D(30,3,15,18)         174.8877         estimate D2E/DX2                !
 ! D40   D(1,3,30,31)         -100.1115         estimate D2E/DX2                !
 ! D41   D(1,3,30,32)           79.0537         estimate D2E/DX2                !
 ! D42   D(4,3,30,31)           15.2508         estimate D2E/DX2                !
 ! D43   D(4,3,30,32)         -165.584          estimate D2E/DX2                !
 ! D44   D(15,3,30,31)         135.4668         estimate D2E/DX2                !
 ! D45   D(15,3,30,32)         -45.3679         estimate D2E/DX2                !
 ! D46   D(3,4,6,7)           -133.6785         estimate D2E/DX2                !
 ! D47   D(3,4,6,8)             49.422          estimate D2E/DX2                !
 ! D48   D(7,6,8,2)           -179.7986         estimate D2E/DX2                !
 ! D49   D(10,6,8,2)             0.9477         estimate D2E/DX2                !
 ! D50   D(1,19,20,22)         178.4349         estimate D2E/DX2                !
 ! D51   D(1,19,20,23)          -1.8833         estimate D2E/DX2                !
 ! D52   D(21,19,20,22)         -0.7887         estimate D2E/DX2                !
 ! D53   D(21,19,20,23)        178.8931         estimate D2E/DX2                !
 ! D54   D(1,19,21,24)        -178.2227         estimate D2E/DX2                !
 ! D55   D(1,19,21,25)           1.0431         estimate D2E/DX2                !
 ! D56   D(20,19,21,24)          0.9941         estimate D2E/DX2                !
 ! D57   D(20,19,21,25)       -179.7401         estimate D2E/DX2                !
 ! D58   D(19,20,22,26)          0.1251         estimate D2E/DX2                !
 ! D59   D(19,20,22,27)        179.9618         estimate D2E/DX2                !
 ! D60   D(23,20,22,26)       -179.5559         estimate D2E/DX2                !
 ! D61   D(23,20,22,27)          0.2807         estimate D2E/DX2                !
 ! D62   D(19,21,24,26)         -0.5383         estimate D2E/DX2                !
 ! D63   D(19,21,24,28)        179.7535         estimate D2E/DX2                !
 ! D64   D(25,21,24,26)       -179.8135         estimate D2E/DX2                !
 ! D65   D(25,21,24,28)          0.4783         estimate D2E/DX2                !
 ! D66   D(20,22,26,24)          0.3538         estimate D2E/DX2                !
 ! D67   D(20,22,26,29)        179.9943         estimate D2E/DX2                !
 ! D68   D(27,22,26,24)       -179.4819         estimate D2E/DX2                !
 ! D69   D(27,22,26,29)          0.1585         estimate D2E/DX2                !
 ! D70   D(21,24,26,22)         -0.15           estimate D2E/DX2                !
 ! D71   D(21,24,26,29)       -179.7905         estimate D2E/DX2                !
 ! D72   D(28,24,26,22)        179.5561         estimate D2E/DX2                !
 ! D73   D(28,24,26,29)         -0.0844         estimate D2E/DX2                !
 ! D74   D(3,30,31,33)         178.572          estimate D2E/DX2                !
 ! D75   D(3,30,31,34)          -1.7322         estimate D2E/DX2                !
 ! D76   D(32,30,31,33)         -0.6253         estimate D2E/DX2                !
 ! D77   D(32,30,31,34)        179.0705         estimate D2E/DX2                !
 ! D78   D(3,30,32,35)        -178.4566         estimate D2E/DX2                !
 ! D79   D(3,30,32,36)           0.9491         estimate D2E/DX2                !
 ! D80   D(31,30,32,35)          0.7255         estimate D2E/DX2                !
 ! D81   D(31,30,32,36)       -179.8689         estimate D2E/DX2                !
 ! D82   D(30,31,33,37)          0.1383         estimate D2E/DX2                !
 ! D83   D(30,31,33,38)        179.9941         estimate D2E/DX2                !
 ! D84   D(34,31,33,37)       -179.5532         estimate D2E/DX2                !
 ! D85   D(34,31,33,38)          0.3026         estimate D2E/DX2                !
 ! D86   D(30,32,35,37)         -0.3398         estimate D2E/DX2                !
 ! D87   D(30,32,35,39)        179.9259         estimate D2E/DX2                !
 ! D88   D(36,32,35,37)       -179.7542         estimate D2E/DX2                !
 ! D89   D(36,32,35,39)          0.5115         estimate D2E/DX2                !
 ! D90   D(31,33,37,35)          0.2647         estimate D2E/DX2                !
 ! D91   D(31,33,37,40)        179.9368         estimate D2E/DX2                !
 ! D92   D(38,33,37,35)       -179.5904         estimate D2E/DX2                !
 ! D93   D(38,33,37,40)          0.0817         estimate D2E/DX2                !
 ! D94   D(32,35,37,33)         -0.1651         estimate D2E/DX2                !
 ! D95   D(32,35,37,40)       -179.8375         estimate D2E/DX2                !
 ! D96   D(39,35,37,33)        179.5673         estimate D2E/DX2                !
 ! D97   D(39,35,37,40)         -0.105          estimate D2E/DX2                !
 --------------------------------------------------------------------------------
 Trust Radius=3.00D-01 FncErr=1.00D-07 GrdErr=1.00D-06 EigMax=2.50D+02 EigMin=1.00D-04
 Number of steps in this run=    216 maximum allowed number of steps=    240.
 GradGradGradGradGradGradGradGradGradGradGradGradGradGradGradGradGradGrad

 Leave Link  103 at Tue Jun 11 16:34:14 2019, MaxMem=   104857600 cpu:               1.9 elap:               0.1
 (Enter /project/6004141/group/g16/g16/l202.exe)
                          Input orientation:                          
 ---------------------------------------------------------------------
 Center     Atomic      Atomic             Coordinates (Angstroms)
 Number     Number       Type             X           Y           Z
 ---------------------------------------------------------------------
      1          6           0        0.585878    0.224325   -0.919148
      2          1           0        2.897955    2.344751    0.020138
      3          6           0       -0.291711    0.952514    0.223359
      4          8           0       -0.378839    2.320867   -0.175495
      5          8           0        1.682314    1.116633   -1.204886
      6          7           0        1.862653    3.688819    0.698013
      7          1           0        1.910556    4.604566    1.172835
      8          7           0        3.011277    3.260526    0.500292
      9          1           0        1.206779    1.973495   -1.404020
     10          1           0        0.469920    2.886339    0.273901
     11          6           0       -0.222493    0.087260   -2.217072
     12          1           0        0.436815   -0.261488   -3.015688
     13          1           0       -1.061888   -0.601978   -2.121797
     14          1           0       -0.629366    1.064715   -2.491699
     15          6           0        0.389897    0.850630    1.595727
     16          1           0       -0.133291    1.501032    2.301977
     17          1           0        0.386288   -0.166394    1.987531
     18          1           0        1.432638    1.165841    1.532995
     19          6           0        1.188409   -1.099911   -0.468884
     20          6           0        2.485811   -1.149751    0.064264
     21          6           0        0.465776   -2.299665   -0.556333
     22          6           0        3.035395   -2.352403    0.509733
     23          1           0        3.069966   -0.239882    0.125278
     24          6           0        1.012012   -3.503561   -0.107307
     25          1           0       -0.537028   -2.301846   -0.966115
     26          6           0        2.299684   -3.536468    0.429872
     27          1           0        4.042230   -2.362771    0.917525
     28          1           0        0.428483   -4.416499   -0.183581
     29          1           0        2.726450   -4.473110    0.776196
     30          6           0       -1.716433    0.392168    0.281163
     31          6           0       -2.771291    1.088055   -0.327592
     32          6           0       -2.009715   -0.823449    0.918064
     33          6           0       -4.071714    0.581557   -0.312742
     34          1           0       -2.561578    2.034897   -0.809407
     35          6           0       -3.309562   -1.333631    0.932678
     36          1           0       -1.222798   -1.389741    1.401679
     37          6           0       -4.348123   -0.634512    0.315542
     38          1           0       -4.870642    1.140854   -0.791776
     39          1           0       -3.507938   -2.277693    1.432179
     40          1           0       -5.359783   -1.029462    0.328820
 ---------------------------------------------------------------------
                    Distance matrix (angstroms):
                    1          2          3          4          5
     1  C    0.000000
     2  H    3.274777   0.000000
     3  C    1.614232   3.486200   0.000000
     4  O    2.424703   3.282716   1.427959   0.000000
     5  O    1.442231   2.118193   2.442047   2.599649   0.000000
     6  N    4.030891   1.826988   3.514818   2.767417   3.204635
     7  H    5.031667   2.722211   4.369092   3.503513   4.227449
     8  N    4.137135   1.040208   4.038978   3.582253   3.044676
     9  H    1.918389   2.241904   2.436439   2.035713   1.000000
    10  H    2.919440   2.500613   2.079018   1.114499   2.605488
    11  C    1.535206   4.454051   2.590204   3.030096   2.390067
    12  H    2.157247   4.697439   3.534965   3.924353   2.594126
    13  H    2.200971   5.380656   2.917083   3.577383   3.365263
    14  H    2.157774   4.515508   2.738273   2.646787   2.646214
    15  C    2.599089   3.317414   1.535697   2.426887   3.095890
    16  H    3.538761   3.886786   2.155602   2.621124   3.967653
    17  H    2.939605   4.060167   2.196347   3.383869   3.676597
    18  H    2.759794   2.413653   2.175784   2.744899   2.749682
    19  C    1.522952   3.876517   2.623434   3.774131   2.387197
    20  C    2.542623   3.518999   3.487041   4.506539   2.718979
    21  C    2.552760   5.274316   3.429049   4.712508   3.683976
    22  C    3.831626   4.724600   4.698310   5.828034   4.099385
    23  H    2.734412   2.592483   3.568235   4.306060   2.352668
    24  C    3.838986   6.146200   4.654636   5.988579   4.795850
    25  H    2.764898   5.861968   3.473599   4.692502   4.082706
    26  C    4.347476   5.925753   5.187382   6.469106   4.970405
    27  H    4.691780   4.927010   5.500548   6.532764   4.709574
    28  H    4.701391   7.200993   5.432364   6.785568   5.764608
    29  H    5.433428   6.861798   6.233163   7.530382   6.021639
    30  C    2.601837   5.017299   1.532045   2.391145   3.779507
    31  C    3.516611   5.817263   2.543666   2.695698   4.539280
    32  C    3.348176   5.910075   2.566748   3.707068   4.679948
    33  C    4.710468   7.196940   3.835810   4.084282   5.847313
    34  H    3.632725   5.530882   2.718539   2.290845   4.360072
    35  C    4.585950   7.272997   3.851885   4.813786   5.957499
    36  H    3.356003   5.730244   2.782359   4.119266   4.638509
    37  C    5.158142   7.840212   4.356791   4.972987   6.460989
    38  H    5.534425   7.903143   4.693888   4.684926   6.566009
    39  H    5.343048   8.024731   4.715888   5.789873   6.739012
    40  H    6.203248   8.925852   5.442858   6.024022   7.519914
                    6          7          8          9         10
     6  N    0.000000
     7  H    1.032639   0.000000
     8  N    1.241719   1.862886   0.000000
     9  H    2.791245   3.749402   2.922168   0.000000
    10  H    1.662393   2.415744   2.578714   2.047355   0.000000
    11  C    5.081022   6.037170   5.283082   2.502350   3.810410
    12  H    5.606203   6.587421   5.603084   2.861026   4.553164
    13  H    5.908909   6.840915   6.195560   3.506439   4.500462
    14  H    4.823934   5.693027   5.198834   2.319559   3.489310
    15  C    3.321177   4.072257   3.725481   3.305541   2.428526
    16  H    3.367923   3.883838   4.028672   3.969058   2.529038
    17  H    4.324948   5.074365   4.565767   4.093281   3.501814
    18  H    2.692123   3.490408   2.818915   3.054402   2.339286
    19  C    4.974755   5.979782   4.824475   3.212575   4.118027
    20  C    4.919525   5.888294   4.462822   3.680550   4.516391
    21  C    6.275874   7.262632   6.205784   4.418999   5.252042
    22  C    6.156877   7.078445   5.612989   5.071457   5.837953
    23  H    4.149738   5.090214   3.520928   3.272500   4.068856
    24  C    7.287144   8.257595   7.079485   5.631833   6.424174
    25  H    6.664522   7.633106   6.758757   4.638013   5.428522
    26  C    7.243457   8.184122   6.834504   5.909086   6.680181
    27  H    6.435875   7.290611   5.732226   5.677372   6.381912
    28  H    8.278299   9.242079   8.128667   6.551888   7.317271
    29  H    8.207883   9.122895   7.743796   6.972909   7.713995
    30  C    4.883803   5.629780   5.534143   3.726339   3.316788
    31  C    5.411957   6.044570   6.232424   4.215180   3.755139
    32  C    5.950144   6.700506   6.485657   4.853947   4.508443
    33  C    6.774468   7.360645   7.616210   5.566944   5.126657
    34  H    4.957983   5.525619   5.854416   3.815475   3.329938
    35  C    7.213313   7.910088   7.825998   6.065853   5.703211
    36  H    5.983889   6.767717   6.353336   5.008607   4.735191
    37  C    7.577019   8.206945   8.328639   6.373031   5.967551
    38  H    7.351793   7.863946   8.263601   6.164672   5.718740
    39  H    8.061111   8.763152   8.604676   6.953070   6.620588
    40  H    8.634933   9.236475   9.407871   7.425646   7.022959
                   11         12         13         14         15
    11  C    0.000000
    12  H    1.092749   0.000000
    13  H    1.090280   1.777944   0.000000
    14  H    1.093793   1.780483   1.761184   0.000000
    15  C    3.936393   4.743855   4.247085   4.218030   0.000000
    16  H    4.735875   5.631080   4.985451   4.838987   1.093406
    17  H    4.256012   5.004378   4.378758   4.755069   1.089890
    18  H    4.238608   4.870262   4.765013   4.523301   1.091147
    19  C    2.540902   2.784611   2.836176   3.475873   2.950398
    20  C    3.750947   3.804405   4.202985   4.597949   3.277157
    21  C    2.988173   3.194281   2.768858   4.032869   3.815951
    22  C    4.899108   4.853157   5.174617   5.840870   4.293887
    23  H    4.053876   4.098734   4.717274   4.715464   3.245644
    24  C    4.343858   4.393241   4.096146   5.408197   4.716602
    25  H    2.715079   3.051587   2.121469   3.697251   4.166573
    26  C    5.147727   5.105650   5.140274   6.187552   4.924747
    27  H    5.832342   5.734507   6.195958   6.722669   4.911765
    28  H    4.984245   5.028421   4.530834   6.040709   5.559683
    29  H    6.201040   6.112166   6.142925   7.253147   5.871398
    30  C    2.926774   3.991612   2.681599   3.053326   2.524855
    31  C    3.326875   4.397621   2.999574   3.044954   3.707915
    32  C    3.721912   4.666446   3.191893   4.134853   3.003316
    33  C    4.322882   5.323859   3.705737   4.102567   4.860106
    34  H    3.353525   4.373948   3.305230   2.739489   3.987275
    35  C    4.633557   5.547470   3.862276   4.966072   4.347025
    36  H    4.034538   4.851845   3.614048   4.640572   2.767255
    37  C    4.894478   5.842249   4.091579   4.959549   5.127705
    38  H    4.974617   5.922959   4.394659   4.569897   5.784261
    39  H    5.450155   6.277713   4.628383   5.903786   5.000627
    40  H    5.841266   6.736176   4.965900   5.892177   6.180503
                   16         17         18         19         20
    16  H    0.000000
    17  H    1.774584   0.000000
    18  H    1.776463   1.753939   0.000000
    19  C    4.023614   2.747513   3.033282   0.000000
    20  C    4.346689   3.012299   2.937399   1.403561   0.000000
    21  C    4.793132   3.320905   4.160510   1.403302   2.405823
    22  C    5.301101   3.739023   3.999242   2.436757   1.395298
    23  H    4.246134   3.267341   2.576542   2.152425   1.082969
    24  C    5.671183   3.989556   4.966974   2.437086   2.782434
    25  H    5.030438   3.759879   4.706377   2.160791   3.395079
    26  C    5.899199   4.176695   4.907174   2.824802   2.421721
    27  H    5.854969   4.397146   4.431690   3.414856   2.149863
    28  H    6.442885   4.772725   5.926000   3.414475   3.868549
    29  H    6.796801   5.048910   5.834763   3.910788   3.407267
    30  C    2.796356   2.764981   3.475961   3.350668   4.481452
    31  C    3.747563   4.111416   4.597918   4.526189   5.726993
    32  C    3.292324   2.704868   4.023085   3.496863   4.587505
    33  C    4.815949   5.071929   5.834897   5.524546   6.792694
    34  H    3.982750   4.621521   4.711249   4.899529   6.031701
    35  C    4.472023   4.016773   5.394090   4.717069   5.862960
    36  H    3.217783   2.104509   3.687761   3.065441   3.949690
    37  C    5.125552   5.042750   6.175813   5.611159   6.857935
    38  H    5.669526   6.088412   6.718372   6.468183   7.752230
    39  H    5.140385   4.464414   6.023071   5.201623   6.250478
    40  H    6.132941   6.042644   7.239225   6.596978   7.850975
                   21         22         23         24         25
    21  C    0.000000
    22  C    2.782484   0.000000
    23  H    3.389558   2.147498   0.000000
    24  C    1.396196   2.408315   3.865342   0.000000
    25  H    1.083301   3.865603   4.295723   2.140373   0.000000
    26  C    2.421880   1.396302   3.399057   1.395616   3.394113
    27  H    3.868755   1.086333   2.465687   3.396160   4.951910
    28  H    2.149726   3.396641   4.951460   1.086177   2.452820
    29  H    3.407366   2.159594   4.296733   2.158680   4.289560
    30  C    3.565025   5.492248   4.830466   4.772004   3.194434
    31  C    4.691223   6.801137   6.007395   5.953557   4.109875
    32  C    3.237455   5.287492   5.174188   4.167160   2.811511
    33  C    5.380483   7.732760   7.202098   6.524926   4.608136
    34  H    5.293141   7.232886   6.145124   6.628575   4.788601
    35  C    4.171757   6.440129   6.522772   4.946329   3.497113
    36  H    2.740995   4.455838   4.623764   3.426317   2.628434
    37  C    5.167836   7.583218   7.431015   6.094365   4.352826
    38  H    6.353736   8.740835   8.111762   7.526268   5.537399
    39  H    4.443542   6.608456   7.009243   4.929779   3.818207
    40  H    6.027773   8.500701   8.469093   6.849171   5.153133
                   26         27         28         29         30
    26  C    0.000000
    27  H    2.156812   0.000000
    28  H    2.156890   4.299930   0.000000
    29  H    1.085987   2.490940   2.490990   0.000000
    30  C    5.620097   6.415360   5.285823   6.607208   0.000000
    31  C    6.904691   7.738384   6.368627   7.897472   1.402700
    32  C    5.115635   6.244642   4.479781   5.980921   1.403347
    33  C    7.622619   8.718871   6.726739   8.541105   2.436378
    34  H    7.497185   8.119856   7.138111   8.534139   2.145267
    35  C    6.047226   7.423490   4.972232   6.805458   2.437399
    36  H    4.238010   5.376031   3.794871   5.049253   2.162043
    37  C    7.254499   8.587624   6.112979   8.062048   2.825075
    38  H    8.647736   9.728123   7.702908   9.575538   3.414786
    39  H    6.026409   7.568166   4.762413   6.642120   3.415038
    40  H    8.059946   9.514312   6.725964   8.800342   3.911177
                   31         32         33         34         35
    31  C    0.000000
    32  C    2.405308   0.000000
    33  C    1.395658   2.782223   0.000000
    34  H    1.082883   3.385092   2.153923   0.000000
    35  C    2.782549   1.396460   2.408296   3.865401   0.000000
    36  H    3.395244   1.083424   3.865434   4.290615   2.139555
    37  C    2.422242   2.422165   1.396412   3.403380   1.395791
    38  H    2.150704   3.868713   1.086542   2.476166   3.396143
    39  H    3.868811   2.150305   3.396749   4.951640   1.086327
    40  H    3.408085   3.407727   2.160117   4.303000   2.158835
                   36         37         38         39         40
    36  H    0.000000
    37  C    3.393777   0.000000
    38  H    4.951961   2.156642   0.000000
    39  H    2.451786   2.157043   4.299930   0.000000
    40  H    4.288994   1.086102   2.491037   2.490946   0.000000
 Stoichiometry    C16H20N2O2
 Framework group  C1[X(C16H20N2O2)]
 Deg. of freedom   114
 Full point group                 C1      NOp   1
 Largest Abelian subgroup         C1      NOp   1
 Largest concise Abelian subgroup C1      NOp   1
                         Standard orientation:                         
 ---------------------------------------------------------------------
 Center     Atomic      Atomic             Coordinates (Angstroms)
 Number     Number       Type             X           Y           Z
 ---------------------------------------------------------------------
      1          6           0        0.585878   -0.224325    0.919148
      2          1           0        2.897955   -2.344751   -0.020138
      3          6           0       -0.291711   -0.952514   -0.223359
      4          8           0       -0.378839   -2.320867    0.175495
      5          8           0        1.682314   -1.116633    1.204886
      6          7           0        1.862652   -3.688819   -0.698013
      7          1           0        1.910555   -4.604566   -1.172835
      8          7           0        3.011277   -3.260527   -0.500292
      9          1           0        1.206779   -1.973495    1.404020
     10          1           0        0.469920   -2.886339   -0.273901
     11          6           0       -0.222493   -0.087260    2.217072
     12          1           0        0.436815    0.261488    3.015688
     13          1           0       -1.061888    0.601978    2.121797
     14          1           0       -0.629366   -1.064715    2.491699
     15          6           0        0.389897   -0.850630   -1.595727
     16          1           0       -0.133291   -1.501032   -2.301977
     17          1           0        0.386288    0.166394   -1.987531
     18          1           0        1.432638   -1.165841   -1.532995
     19          6           0        1.188409    1.099911    0.468884
     20          6           0        2.485811    1.149751   -0.064264
     21          6           0        0.465776    2.299665    0.556333
     22          6           0        3.035395    2.352402   -0.509733
     23          1           0        3.069966    0.239881   -0.125278
     24          6           0        1.012013    3.503561    0.107307
     25          1           0       -0.537028    2.301846    0.966115
     26          6           0        2.299685    3.536468   -0.429872
     27          1           0        4.042230    2.362770   -0.917525
     28          1           0        0.428484    4.416499    0.183581
     29          1           0        2.726451    4.473110   -0.776196
     30          6           0       -1.716433   -0.392168   -0.281163
     31          6           0       -2.771291   -1.088055    0.327592
     32          6           0       -2.009715    0.823449   -0.918064
     33          6           0       -4.071714   -0.581556    0.312742
     34          1           0       -2.561578   -2.034897    0.809407
     35          6           0       -3.309562    1.333631   -0.932678
     36          1           0       -1.222798    1.389741   -1.401679
     37          6           0       -4.348123    0.634513   -0.315542
     38          1           0       -4.870642   -1.140853    0.791776
     39          1           0       -3.507938    2.277693   -1.432179
     40          1           0       -5.359783    1.029463   -0.328820
 ---------------------------------------------------------------------
 Rotational constants (GHZ):           0.3884182           0.3191735           0.2057716
 Leave Link  202 at Tue Jun 11 16:34:14 2019, MaxMem=   104857600 cpu:               6.5 elap:               0.2
 (Enter /project/6004141/group/g16/g16/l301.exe)
 Standard basis: 6-31G(d,p) (6D, 7F)
 Ernie: Thresh=  0.10000D-02 Tol=  0.10000D-05 Strict=F.
 There are   400 symmetry adapted cartesian basis functions of A   symmetry.
 There are   400 symmetry adapted basis functions of A   symmetry.
   400 basis functions,   700 primitive gaussians,   400 cartesian basis functions
    73 alpha electrons       73 beta electrons
       nuclear repulsion energy      1598.0371922768 Hartrees.
 IExCor=  402 DFT=T Ex+Corr=B3LYP ExCW=0 ScaHFX=  0.200000
 ScaDFX=  0.800000  0.720000  1.000000  0.810000 ScalE2=  1.000000  1.000000
 IRadAn=      5 IRanWt=     -1 IRanGd=            0 ICorTp=0 IEmpDi=131
 NAtoms=   40 NActive=   40 NUniq=   40 SFac= 1.00D+00 NAtFMM=   60 NAOKFM=F Big=F
 Integral buffers will be    131072 words long.
 Raffenetti 2 integral format.
 Two-electron integral symmetry is turned on.
 R6Disp:  Grimme-D3 Dispersion energy=       -0.0494926504 Hartrees.
 Nuclear repulsion after empirical dispersion term =     1597.9876996264 Hartrees.
 ------------------------------------------------------------------------------
 Polarizable Continuum Model (PCM)
 =================================
 Model                : PCM.
 Atomic radii         : UFF (Universal Force Field).
 Polarization charges : Total charges.
 Charge compensation  : None.
 Solution method      : On-the-fly selection.
 Cavity type          : Scaled VdW (van der Waals Surface) (Alpha=1.100).
 Cavity algorithm     : GePol (No added spheres)
                        Default sphere list used, NSphG=   40.
                        Lebedev-Laikov grids with approx.  5.0 points / Ang**2.
                        Smoothing algorithm: York/Karplus (Gamma=1.0000).
                        Polarization charges: spherical gaussians, with
                                              point-specific exponents (IZeta= 3).
                        Self-potential: point-specific (ISelfS= 7).
                        Self-field    : sphere-specific E.n sum rule (ISelfD= 2).
 1st derivatives      : Analytical E(r).r(x)/FMM algorithm (CHGder, D1EAlg=3).
                        Cavity 1st derivative terms included.
 Solvent              : Acetonitrile, Eps=  35.688000 Eps(inf)=   1.806874
 ------------------------------------------------------------------------------
 GePol: Number of generator spheres                  =      40
 GePol: Total number of spheres                      =      40
 GePol: Number of exposed spheres                    =      40 (100.00%)
 GePol: Number of points                             =    2649
 GePol: Average weight of points                     =       0.13
 GePol: Minimum weight of points                     =   0.56D-10
 GePol: Maximum weight of points                     =    0.20577
 GePol: Number of points with low weight             =     168
 GePol: Fraction of low-weight points (<1% of avg)   =       6.34%
 GePol: Cavity surface area                          =    344.841 Ang**2
 GePol: Cavity volume                                =    396.646 Ang**3
 Leave Link  301 at Tue Jun 11 16:34:15 2019, MaxMem=   104857600 cpu:              11.5 elap:               0.4
 (Enter /project/6004141/group/g16/g16/l302.exe)
 NPDir=0 NMtPBC=     1 NCelOv=     1 NCel=       1 NClECP=     1 NCelD=      1
         NCelK=      1 NCelE2=     1 NClLst=     1 CellRange=     0.0.
 One-electron integrals computed using PRISM.
 One-electron integral symmetry used in STVInt
 PrsmSu:  requested number of processors reduced to:  27 ShMem   1 Linda.
 NBasis=   400 RedAO= T EigKep=  4.41D-04  NBF=   400
 NBsUse=   400 1.00D-06 EigRej= -1.00D+00 NBFU=   400
 Precomputing XC quadrature grid using
 IXCGrd= 4 IRadAn=           5 IRanWt=          -1 IRanGd=           0 AccXCQ= 0.00D+00.
 Generated NRdTot=       0 NPtTot=           0 NUsed=           0 NTot=          32
 NSgBfM=   398   398   398   398   398 MxSgAt=    40 MxSgA2=    40.
 Leave Link  302 at Tue Jun 11 16:34:16 2019, MaxMem=   104857600 cpu:              26.7 elap:               0.7
 (Enter /project/6004141/group/g16/g16/l303.exe)
 DipDrv:  MaxL=1.
 Leave Link  303 at Tue Jun 11 16:34:17 2019, MaxMem=   104857600 cpu:               7.9 elap:               0.3
 (Enter /project/6004141/group/g16/g16/l401.exe)
 ExpMin= 1.61D-01 ExpMax= 5.48D+03 ExpMxC= 8.25D+02 IAcc=3 IRadAn=         5 AccDes= 0.00D+00
 Harris functional with IExCor=  402 and IRadAn=       5 diagonalized for initial guess.
 HarFok:  IExCor=  402 AccDes= 0.00D+00 IRadAn=         5 IDoV= 1 UseB2=F ITyADJ=14
 ICtDFT=  3500011 ScaDFX=  1.000000  1.000000  1.000000  1.000000
 FoFCou: FMM=F IPFlag=           0 FMFlag=      100000 FMFlg1=           0
         NFxFlg=           0 DoJE=T BraDBF=F KetDBF=T FulRan=T
         wScrn=  0.000000 ICntrl=       500 IOpCl=  0 I1Cent=   200000004 NGrid=           0
         NMat0=    1 NMatS0=      1 NMatT0=    0 NMatD0=    1 NMtDS0=    0 NMtDT0=    0
 Petite list used in FoFCou.
 Harris En= -881.739681896294    
 JPrj=0 DoOrth=F DoCkMO=T.
 Mixing orbitals, IMix= 1 IMixAn=  0 NRI=1 NE=   73 Coef=  7.07106781D-01  7.07106781D-01
 Mixing orbitals, IMix= 1 IMixAn=  0 NRI=1 NE=   73 Coef= -7.07106781D-01  7.07106781D-01
 Initial guess <Sx>= 0.0000 <Sy>= 0.0000 <Sz>= 0.0000 <S**2>= 1.0000 S= 0.6180
 Leave Link  401 at Tue Jun 11 16:34:18 2019, MaxMem=   104857600 cpu:              39.5 elap:               1.0
 (Enter /project/6004141/group/g16/g16/l502.exe)
 Integral symmetry usage will be decided dynamically.
 UHF open shell SCF:
 Using DIIS extrapolation, IDIIS=  1040.
 NGot=   104857600 LenX=   104517248 LenY=   104356807
 Requested convergence on RMS density matrix=1.00D-08 within 128 cycles.
 Requested convergence on MAX density matrix=1.00D-06.
 Requested convergence on             energy=1.00D-06.
 No special actions if energy rises.
 Fock matrices will be formed incrementally for  20 cycles.

 Cycle   1  Pass 1  IDiag  1:
 FoFJK:  IHMeth= 1 ICntrl=       0 DoSepK=F KAlg= 0 I1Cent=           0 FoldK=F
 IRaf= 800000000 NMat=       1 IRICut=       1 DoRegI=T DoRafI=F ISym2E= 0 IDoP0=0 IntGTp=1.
 FoFCou: FMM=F IPFlag=           0 FMFlag=      100000 FMFlg1=           0
         NFxFlg=           0 DoJE=F BraDBF=F KetDBF=F FulRan=T
         wScrn=  0.000000 ICntrl=         0 IOpCl=  1 I1Cent=           0 NGrid=           0
         NMat0=    1 NMatS0=      1 NMatT0=    0 NMatD0=    1 NMtDS0=    0 NMtDT0=    0
 Symmetry not used in FoFCou.
 Inv3:  Mode=1 IEnd=    21051603.
 Iteration    1 A*A^-1 deviation from unit magnitude is 3.55D-15 for   2169.
 Iteration    1 A*A^-1 deviation from orthogonality  is 2.94D-15 for   1246    999.
 Iteration    1 A^-1*A deviation from unit magnitude is 3.55D-15 for   2169.
 Iteration    1 A^-1*A deviation from orthogonality  is 3.27D-15 for   2132    100.
 E= -880.790821951465    
 DIIS: error= 4.40D-02 at cycle   1 NSaved=   1.
 NSaved= 1 IEnMin= 1 EnMin= -880.790821951465     IErMin= 1 ErrMin= 4.40D-02
 ErrMax= 4.40D-02  0.00D+00 EMaxC= 1.00D-01 BMatC= 2.65D+00 BMatP= 2.65D+00
 IDIUse=3 WtCom= 5.60D-01 WtEn= 4.40D-01
 Coeff-Com:  0.100D+01
 Coeff-En:   0.100D+01
 Coeff:      0.100D+01
 Gap=     0.019 Goal=   None    Shift=    0.000
 Gap=     0.017 Goal=   None    Shift=    0.000
 GapD=    0.017 DampG=0.250 DampE=0.500 DampFc=0.2500 IDamp=-1.
 Damping current iteration by 2.50D-01
 RMSDP=5.59D-03 MaxDP=2.75D-01              OVMax= 9.59D-01

 Cycle   2  Pass 1  IDiag  1:
 RMSU=  1.38D-03    CP:  9.85D-01
 E= -881.096097422386     Delta-E=       -0.305275470921 Rises=F Damp=T
 DIIS: error= 1.61D-02 at cycle   2 NSaved=   2.
 NSaved= 2 IEnMin= 2 EnMin= -881.096097422386     IErMin= 2 ErrMin= 1.61D-02
 ErrMax= 1.61D-02  0.00D+00 EMaxC= 1.00D-01 BMatC= 5.56D-01 BMatP= 2.65D+00
 IDIUse=3 WtCom= 8.39D-01 WtEn= 1.61D-01
 Coeff-Com: -0.434D+00 0.143D+01
 Coeff-En:   0.000D+00 0.100D+01
 Coeff:     -0.364D+00 0.136D+01
 Gap=     0.002 Goal=   None    Shift=    0.000
 Gap=     0.002 Goal=   None    Shift=    0.000
 RMSDP=2.50D-03 MaxDP=1.12D-01 DE=-3.05D-01 OVMax= 7.65D-01

 Cycle   3  Pass 1  IDiag  1:
 RMSU=  2.35D-03    CP:  9.55D-01  1.52D+00
 E= -881.623255321479     Delta-E=       -0.527157899093 Rises=F Damp=F
 DIIS: error= 2.45D-02 at cycle   3 NSaved=   3.
 NSaved= 3 IEnMin= 3 EnMin= -881.623255321479     IErMin= 2 ErrMin= 1.61D-02
 ErrMax= 2.45D-02  0.00D+00 EMaxC= 1.00D-01 BMatC= 3.81D-01 BMatP= 5.56D-01
 IDIUse=3 WtCom= 7.55D-01 WtEn= 2.45D-01
 Coeff-Com: -0.260D+00 0.772D+00 0.489D+00
 Coeff-En:   0.000D+00 0.000D+00 0.100D+01
 Coeff:     -0.197D+00 0.583D+00 0.614D+00
 Gap=     0.253 Goal=   None    Shift=    0.000
 Gap=     0.253 Goal=   None    Shift=    0.000
 RMSDP=9.39D-04 MaxDP=6.02D-02 DE=-5.27D-01 OVMax= 8.73D-02

 Cycle   4  Pass 1  IDiag  1:
 RMSU=  8.19D-04    CP:  9.61D-01  1.45D+00  8.12D-01
 E= -881.706316421884     Delta-E=       -0.083061100405 Rises=F Damp=F
 DIIS: error= 5.48D-03 at cycle   4 NSaved=   4.
 NSaved= 4 IEnMin= 4 EnMin= -881.706316421884     IErMin= 4 ErrMin= 5.48D-03
 ErrMax= 5.48D-03  0.00D+00 EMaxC= 1.00D-01 BMatC= 3.36D-02 BMatP= 3.81D-01
 IDIUse=3 WtCom= 9.45D-01 WtEn= 5.48D-02
 Coeff-Com: -0.758D-01 0.164D+00 0.245D+00 0.667D+00
 Coeff-En:   0.000D+00 0.000D+00 0.000D+00 0.100D+01
 Coeff:     -0.716D-01 0.155D+00 0.232D+00 0.685D+00
 Gap=     0.159 Goal=   None    Shift=    0.000
 Gap=     0.159 Goal=   None    Shift=    0.000
 RMSDP=2.78D-04 MaxDP=1.72D-02 DE=-8.31D-02 OVMax= 2.10D-02

 Cycle   5  Pass 1  IDiag  1:
 RMSU=  1.75D-04    CP:  9.59D-01  1.49D+00  8.55D-01  7.79D-01
 E= -881.712413235037     Delta-E=       -0.006096813153 Rises=F Damp=F
 DIIS: error= 1.63D-03 at cycle   5 NSaved=   5.
 NSaved= 5 IEnMin= 5 EnMin= -881.712413235037     IErMin= 5 ErrMin= 1.63D-03
 ErrMax= 1.63D-03  0.00D+00 EMaxC= 1.00D-01 BMatC= 7.62D-03 BMatP= 3.36D-02
 IDIUse=3 WtCom= 9.84D-01 WtEn= 1.63D-02
 Coeff-Com: -0.334D-01 0.513D-01 0.952D-01 0.420D+00 0.467D+00
 Coeff-En:   0.000D+00 0.000D+00 0.000D+00 0.136D+00 0.864D+00
 Coeff:     -0.328D-01 0.505D-01 0.937D-01 0.416D+00 0.473D+00
 Gap=     0.155 Goal=   None    Shift=    0.000
 Gap=     0.155 Goal=   None    Shift=    0.000
 RMSDP=1.21D-04 MaxDP=6.85D-03 DE=-6.10D-03 OVMax= 9.59D-03

 Cycle   6  Pass 1  IDiag  1:
 RMSU=  7.38D-05    CP:  9.59D-01  1.50D+00  8.47D-01  8.31D-01  5.29D-01
 E= -881.714016798551     Delta-E=       -0.001603563514 Rises=F Damp=F
 DIIS: error= 7.17D-04 at cycle   6 NSaved=   6.
 NSaved= 6 IEnMin= 6 EnMin= -881.714016798551     IErMin= 6 ErrMin= 7.17D-04
 ErrMax= 7.17D-04  0.00D+00 EMaxC= 1.00D-01 BMatC= 7.47D-04 BMatP= 7.62D-03
 IDIUse=3 WtCom= 9.93D-01 WtEn= 7.17D-03
 Coeff-Com: -0.104D-01 0.110D-01 0.668D-02 0.119D+00 0.277D+00 0.598D+00
 Coeff-En:   0.000D+00 0.000D+00 0.000D+00 0.000D+00 0.161D-01 0.984D+00
 Coeff:     -0.103D-01 0.110D-01 0.663D-02 0.118D+00 0.275D+00 0.600D+00
 Gap=     0.154 Goal=   None    Shift=    0.000
 Gap=     0.154 Goal=   None    Shift=    0.000
 RMSDP=3.28D-05 MaxDP=2.98D-03 DE=-1.60D-03 OVMax= 3.97D-03

 Cycle   7  Pass 1  IDiag  1:
 RMSU=  1.89D-05    CP:  9.59D-01  1.51D+00  8.45D-01  8.42D-01  6.16D-01
                    CP:  7.31D-01
 E= -881.714173122727     Delta-E=       -0.000156324176 Rises=F Damp=F
 DIIS: error= 2.49D-04 at cycle   7 NSaved=   7.
 NSaved= 7 IEnMin= 7 EnMin= -881.714173122727     IErMin= 7 ErrMin= 2.49D-04
 ErrMax= 2.49D-04  0.00D+00 EMaxC= 1.00D-01 BMatC= 8.28D-05 BMatP= 7.47D-04
 IDIUse=3 WtCom= 9.98D-01 WtEn= 2.49D-03
 Coeff-Com: -0.408D-02 0.400D-02-0.502D-02 0.328D-01 0.118D+00 0.341D+00
 Coeff-Com:  0.514D+00
 Coeff-En:   0.000D+00 0.000D+00 0.000D+00 0.000D+00 0.000D+00 0.000D+00
 Coeff-En:   0.100D+01
 Coeff:     -0.407D-02 0.399D-02-0.501D-02 0.328D-01 0.118D+00 0.340D+00
 Coeff:      0.515D+00
 Gap=     0.153 Goal=   None    Shift=    0.000
 Gap=     0.153 Goal=   None    Shift=    0.000
 RMSDP=1.16D-05 MaxDP=1.07D-03 DE=-1.56D-04 OVMax= 1.34D-03

 Cycle   8  Pass 1  IDiag  1:
 RMSU=  9.25D-06    CP:  9.59D-01  1.51D+00  8.44D-01  8.44D-01  6.36D-01
                    CP:  7.38D-01  7.15D-01
 E= -881.714189095497     Delta-E=       -0.000015972770 Rises=F Damp=F
 DIIS: error= 8.83D-05 at cycle   8 NSaved=   8.
 NSaved= 8 IEnMin= 8 EnMin= -881.714189095497     IErMin= 8 ErrMin= 8.83D-05
 ErrMax= 8.83D-05  0.00D+00 EMaxC= 1.00D-01 BMatC= 9.55D-06 BMatP= 8.28D-05
 IDIUse=1 WtCom= 1.00D+00 WtEn= 0.00D+00
 Coeff-Com: -0.621D-03 0.757D-03-0.384D-02-0.293D-02 0.981D-02 0.581D-01
 Coeff-Com:  0.272D+00 0.667D+00
 Coeff:     -0.621D-03 0.757D-03-0.384D-02-0.293D-02 0.981D-02 0.581D-01
 Coeff:      0.272D+00 0.667D+00
 Gap=     0.153 Goal=   None    Shift=    0.000
 Gap=     0.153 Goal=   None    Shift=    0.000
 RMSDP=4.51D-06 MaxDP=3.59D-04 DE=-1.60D-05 OVMax= 4.67D-04

 Cycle   9  Pass 1  IDiag  1:
 RMSU=  2.99D-06    CP:  9.59D-01  1.51D+00  8.44D-01  8.45D-01  6.33D-01
                    CP:  7.60D-01  7.85D-01  8.14D-01
 E= -881.714190914495     Delta-E=       -0.000001818998 Rises=F Damp=F
 DIIS: error= 2.56D-05 at cycle   9 NSaved=   9.
 NSaved= 9 IEnMin= 9 EnMin= -881.714190914495     IErMin= 9 ErrMin= 2.56D-05
 ErrMax= 2.56D-05  0.00D+00 EMaxC= 1.00D-01 BMatC= 1.75D-06 BMatP= 9.55D-06
 IDIUse=1 WtCom= 1.00D+00 WtEn= 0.00D+00
 Coeff-Com: -0.898D-04 0.201D-03-0.181D-02-0.389D-02-0.340D-02 0.732D-02
 Coeff-Com:  0.120D+00 0.403D+00 0.479D+00
 Coeff:     -0.898D-04 0.201D-03-0.181D-02-0.389D-02-0.340D-02 0.732D-02
 Coeff:      0.120D+00 0.403D+00 0.479D+00
 Gap=     0.153 Goal=   None    Shift=    0.000
 Gap=     0.153 Goal=   None    Shift=    0.000
 RMSDP=1.78D-06 MaxDP=9.94D-05 DE=-1.82D-06 OVMax= 1.74D-04

 Cycle  10  Pass 1  IDiag  1:
 RMSU=  1.26D-06    CP:  9.59D-01  1.51D+00  8.44D-01  8.45D-01  6.35D-01
                    CP:  7.54D-01  8.05D-01  8.54D-01  6.82D-01
 E= -881.714191341538     Delta-E=       -0.000000427043 Rises=F Damp=F
 DIIS: error= 5.18D-06 at cycle  10 NSaved=  10.
 NSaved=10 IEnMin=10 EnMin= -881.714191341538     IErMin=10 ErrMin= 5.18D-06
 ErrMax= 5.18D-06  0.00D+00 EMaxC= 1.00D-01 BMatC= 1.03D-07 BMatP= 1.75D-06
 IDIUse=1 WtCom= 1.00D+00 WtEn= 0.00D+00
 Coeff-Com:  0.768D-04-0.720D-04-0.417D-03-0.143D-02-0.260D-02-0.237D-02
 Coeff-Com:  0.239D-01 0.108D+00 0.216D+00 0.658D+00
 Coeff:      0.768D-04-0.720D-04-0.417D-03-0.143D-02-0.260D-02-0.237D-02
 Coeff:      0.239D-01 0.108D+00 0.216D+00 0.658D+00
 Gap=     0.153 Goal=   None    Shift=    0.000
 Gap=     0.153 Goal=   None    Shift=    0.000
 RMSDP=7.96D-07 MaxDP=3.39D-05 DE=-4.27D-07 OVMax= 1.47D-04

 Cycle  11  Pass 1  IDiag  1:
 RMSU=  6.47D-07    CP:  9.59D-01  1.51D+00  8.44D-01  8.45D-01  6.35D-01
                    CP:  7.57D-01  8.08D-01  8.72D-01  7.91D-01  1.04D+00
 E= -881.714191386163     Delta-E=       -0.000000044625 Rises=F Damp=F
 DIIS: error= 4.09D-06 at cycle  11 NSaved=  11.
 NSaved=11 IEnMin=11 EnMin= -881.714191386163     IErMin=11 ErrMin= 4.09D-06
 ErrMax= 4.09D-06  0.00D+00 EMaxC= 1.00D-01 BMatC= 3.50D-08 BMatP= 1.03D-07
 IDIUse=1 WtCom= 1.00D+00 WtEn= 0.00D+00
 Coeff-Com:  0.505D-04-0.716D-04 0.597D-04-0.925D-04-0.599D-03-0.130D-02
 Coeff-Com: -0.376D-02-0.126D-02 0.444D-01 0.374D+00 0.589D+00
 Coeff:      0.505D-04-0.716D-04 0.597D-04-0.925D-04-0.599D-03-0.130D-02
 Coeff:     -0.376D-02-0.126D-02 0.444D-01 0.374D+00 0.589D+00
 Gap=     0.153 Goal=   None    Shift=    0.000
 Gap=     0.153 Goal=   None    Shift=    0.000
 RMSDP=4.98D-07 MaxDP=2.63D-05 DE=-4.46D-08 OVMax= 1.14D-04

 Cycle  12  Pass 1  IDiag  1:
 RMSU=  3.09D-07    CP:  9.59D-01  1.51D+00  8.44D-01  8.45D-01  6.35D-01
                    CP:  7.56D-01  8.10D-01  8.77D-01  8.40D-01  1.30D+00
                    CP:  1.14D+00
 E= -881.714191409491     Delta-E=       -0.000000023328 Rises=F Damp=F
 DIIS: error= 3.21D-06 at cycle  12 NSaved=  12.
 NSaved=12 IEnMin=12 EnMin= -881.714191409491     IErMin=12 ErrMin= 3.21D-06
 ErrMax= 3.21D-06  0.00D+00 EMaxC= 1.00D-01 BMatC= 8.03D-09 BMatP= 3.50D-08
 IDIUse=1 WtCom= 1.00D+00 WtEn= 0.00D+00
 Coeff-Com: -0.158D-04 0.949D-05 0.201D-03 0.565D-03 0.101D-02 0.952D-03
 Coeff-Com: -0.103D-01-0.450D-01-0.838D-01-0.217D+00 0.918D-01 0.126D+01
 Coeff:     -0.158D-04 0.949D-05 0.201D-03 0.565D-03 0.101D-02 0.952D-03
 Coeff:     -0.103D-01-0.450D-01-0.838D-01-0.217D+00 0.918D-01 0.126D+01
 Gap=     0.153 Goal=   None    Shift=    0.000
 Gap=     0.153 Goal=   None    Shift=    0.000
 RMSDP=7.66D-07 MaxDP=4.75D-05 DE=-2.33D-08 OVMax= 2.03D-04

 Cycle  13  Pass 1  IDiag  1:
 RMSU=  1.68D-07    CP:  9.59D-01  1.51D+00  8.44D-01  8.45D-01  6.35D-01
                    CP:  7.57D-01  8.13D-01  8.87D-01  9.25D-01  1.66D+00
                    CP:  1.86D+00  1.75D+00
 E= -881.714191430608     Delta-E=       -0.000000021117 Rises=F Damp=F
 DIIS: error= 1.66D-06 at cycle  13 NSaved=  13.
 NSaved=13 IEnMin=13 EnMin= -881.714191430608     IErMin=13 ErrMin= 1.66D-06
 ErrMax= 1.66D-06  0.00D+00 EMaxC= 1.00D-01 BMatC= 4.05D-09 BMatP= 8.03D-09
 IDIUse=1 WtCom= 1.00D+00 WtEn= 0.00D+00
 Coeff-Com: -0.271D-04 0.334D-04 0.927D-04 0.328D-03 0.694D-03 0.606D-03
 Coeff-Com: -0.531D-02-0.267D-01-0.644D-01-0.257D+00-0.165D+00 0.741D+00
 Coeff-Com:  0.776D+00
 Coeff:     -0.271D-04 0.334D-04 0.927D-04 0.328D-03 0.694D-03 0.606D-03
 Coeff:     -0.531D-02-0.267D-01-0.644D-01-0.257D+00-0.165D+00 0.741D+00
 Coeff:      0.776D+00
 Gap=     0.153 Goal=   None    Shift=    0.000
 Gap=     0.153 Goal=   None    Shift=    0.000
 RMSDP=4.69D-07 MaxDP=2.92D-05 DE=-2.11D-08 OVMax= 1.25D-04

 Cycle  14  Pass 1  IDiag  1:
 RMSU=  9.73D-08    CP:  9.59D-01  1.51D+00  8.44D-01  8.45D-01  6.35D-01
                    CP:  7.57D-01  8.15D-01  8.93D-01  9.76D-01  1.88D+00
                    CP:  2.26D+00  2.40D+00  1.12D+00
 E= -881.714191437454     Delta-E=       -0.000000006846 Rises=F Damp=F
 DIIS: error= 7.26D-07 at cycle  14 NSaved=  14.
 NSaved=14 IEnMin=14 EnMin= -881.714191437454     IErMin=14 ErrMin= 7.26D-07
 ErrMax= 7.26D-07  0.00D+00 EMaxC= 1.00D-01 BMatC= 9.63D-10 BMatP= 4.05D-09
 IDIUse=1 WtCom= 1.00D+00 WtEn= 0.00D+00
 Coeff-Com: -0.977D-05 0.161D-04-0.290D-04-0.543D-04-0.119D-03-0.438D-03
 Coeff-Com:  0.486D-03 0.267D-02 0.113D-02-0.311D-01-0.960D-01-0.120D+00
 Coeff-Com:  0.306D+00 0.938D+00
 Coeff:     -0.977D-05 0.161D-04-0.290D-04-0.543D-04-0.119D-03-0.438D-03
 Coeff:      0.486D-03 0.267D-02 0.113D-02-0.311D-01-0.960D-01-0.120D+00
 Coeff:      0.306D+00 0.938D+00
 Gap=     0.153 Goal=   None    Shift=    0.000
 Gap=     0.153 Goal=   None    Shift=    0.000
 RMSDP=2.67D-07 MaxDP=1.69D-05 DE=-6.85D-09 OVMax= 7.12D-05

 Cycle  15  Pass 1  IDiag  1:
 RMSU=  5.14D-08    CP:  9.59D-01  1.51D+00  8.44D-01  8.45D-01  6.35D-01
                    CP:  7.57D-01  8.17D-01  8.98D-01  1.00D+00  1.99D+00
                    CP:  2.50D+00  2.73D+00  1.50D+00  1.16D+00
 E= -881.714191439055     Delta-E=       -0.000000001601 Rises=F Damp=F
 DIIS: error= 2.52D-07 at cycle  15 NSaved=  15.
 NSaved=15 IEnMin=15 EnMin= -881.714191439055     IErMin=15 ErrMin= 2.52D-07
 ErrMax= 2.52D-07  0.00D+00 EMaxC= 1.00D-01 BMatC= 2.35D-10 BMatP= 9.63D-10
 IDIUse=1 WtCom= 1.00D+00 WtEn= 0.00D+00
 Coeff-Com: -0.413D-07 0.209D-05-0.316D-04-0.833D-04-0.186D-03-0.350D-03
 Coeff-Com:  0.106D-02 0.573D-02 0.117D-01 0.312D-01-0.159D-01-0.191D+00
 Coeff-Com:  0.792D-04 0.458D+00 0.699D+00
 Coeff:     -0.413D-07 0.209D-05-0.316D-04-0.833D-04-0.186D-03-0.350D-03
 Coeff:      0.106D-02 0.573D-02 0.117D-01 0.312D-01-0.159D-01-0.191D+00
 Coeff:      0.792D-04 0.458D+00 0.699D+00
 Gap=     0.153 Goal=   None    Shift=    0.000
 Gap=     0.153 Goal=   None    Shift=    0.000
 RMSDP=7.95D-08 MaxDP=4.83D-06 DE=-1.60D-09 OVMax= 2.01D-05

 Cycle  16  Pass 1  IDiag  1:
 RMSU=  2.50D-08    CP:  9.59D-01  1.51D+00  8.44D-01  8.45D-01  6.35D-01
                    CP:  7.57D-01  8.17D-01  8.99D-01  1.01D+00  2.02D+00
                    CP:  2.56D+00  2.82D+00  1.59D+00  1.41D+00  9.29D-01
 E= -881.714191439248     Delta-E=       -0.000000000194 Rises=F Damp=F
 DIIS: error= 1.24D-07 at cycle  16 NSaved=  16.
 NSaved=16 IEnMin=16 EnMin= -881.714191439248     IErMin=16 ErrMin= 1.24D-07
 ErrMax= 1.24D-07  0.00D+00 EMaxC= 1.00D-01 BMatC= 6.71D-11 BMatP= 2.35D-10
 IDIUse=1 WtCom= 1.00D+00 WtEn= 0.00D+00
 Coeff-Com:  0.284D-05-0.395D-05-0.785D-05-0.215D-04-0.466D-04-0.873D-05
 Coeff-Com:  0.448D-03 0.219D-02 0.570D-02 0.254D-01 0.205D-01-0.667D-01
 Coeff-Com: -0.922D-01-0.345D-01 0.399D+00 0.740D+00
 Coeff:      0.284D-05-0.395D-05-0.785D-05-0.215D-04-0.466D-04-0.873D-05
 Coeff:      0.448D-03 0.219D-02 0.570D-02 0.254D-01 0.205D-01-0.667D-01
 Coeff:     -0.922D-01-0.345D-01 0.399D+00 0.740D+00
 Gap=     0.153 Goal=   None    Shift=    0.000
 Gap=     0.153 Goal=   None    Shift=    0.000
 RMSDP=3.50D-08 MaxDP=2.09D-06 DE=-1.94D-10 OVMax= 8.62D-06

 Cycle  17  Pass 1  IDiag  1:
 RMSU=  9.68D-09    CP:  9.59D-01  1.51D+00  8.44D-01  8.45D-01  6.35D-01
                    CP:  7.57D-01  8.17D-01  8.99D-01  1.02D+00  2.04D+00
                    CP:  2.58D+00  2.86D+00  1.65D+00  1.49D+00  1.16D+00
                    CP:  9.10D-01
 E= -881.714191439284     Delta-E=       -0.000000000036 Rises=F Damp=F
 DIIS: error= 7.66D-08 at cycle  17 NSaved=  17.
 NSaved=17 IEnMin=17 EnMin= -881.714191439284     IErMin=17 ErrMin= 7.66D-08
 ErrMax= 7.66D-08  0.00D+00 EMaxC= 1.00D-01 BMatC= 7.13D-12 BMatP= 6.71D-11
 IDIUse=1 WtCom= 1.00D+00 WtEn= 0.00D+00
 Coeff-Com:  0.102D-05-0.166D-05 0.147D-05 0.391D-05 0.142D-04 0.698D-04
 Coeff-Com:  0.921D-04 0.171D-03 0.496D-03 0.396D-02 0.779D-02 0.319D-03
 Coeff-Com: -0.270D-01-0.648D-01 0.422D-01 0.244D+00 0.792D+00
 Coeff:      0.102D-05-0.166D-05 0.147D-05 0.391D-05 0.142D-04 0.698D-04
 Coeff:      0.921D-04 0.171D-03 0.496D-03 0.396D-02 0.779D-02 0.319D-03
 Coeff:     -0.270D-01-0.648D-01 0.422D-01 0.244D+00 0.792D+00
 Gap=     0.153 Goal=   None    Shift=    0.000
 Gap=     0.153 Goal=   None    Shift=    0.000
 RMSDP=8.43D-09 MaxDP=4.34D-07 DE=-3.62D-11 OVMax= 1.67D-06

 Error on total polarization charges =  0.01026
 SCF Done:  E(UB3LYP) =  -881.714191439     A.U. after   17 cycles
            NFock= 17  Conv=0.84D-08     -V/T= 2.0097
 <Sx>= 0.0000 <Sy>= 0.0000 <Sz>= 0.0000 <S**2>= 0.0000 S= 0.0000
 <L.S>=  0.00000000000    
 KE= 8.732247647310D+02 PE=-5.246470717122D+03 EE= 1.893544061326D+03
 Annihilation of the first spin contaminant:
 S**2 before annihilation     0.0000,   after    -0.0000
 Leave Link  502 at Tue Jun 11 16:35:02 2019, MaxMem=   104857600 cpu:            1712.2 elap:              44.0
 (Enter /project/6004141/group/g16/g16/l601.exe)
 Copying SCF densities to generalized density rwf, IOpCl= 1 IROHF=0.

 **********************************************************************

            Population analysis using the SCF density.

 **********************************************************************

 Orbital symmetries:
 Alpha Orbitals:
       Occupied  (A) (A) (A) (A) (A) (A) (A) (A) (A) (A) (A) (A)
                 (A) (A) (A) (A) (A) (A) (A) (A) (A) (A) (A) (A)
                 (A) (A) (A) (A) (A) (A) (A) (A) (A) (A) (A) (A)
                 (A) (A) (A) (A) (A) (A) (A) (A) (A) (A) (A) (A)
                 (A) (A) (A) (A) (A) (A) (A) (A) (A) (A) (A) (A)
                 (A) (A) (A) (A) (A) (A) (A) (A) (A) (A) (A) (A)
                 (A)
       Virtual   (A) (A) (A) (A) (A) (A) (A) (A) (A) (A) (A) (A)
                 (A) (A) (A) (A) (A) (A) (A) (A) (A) (A) (A) (A)
                 (A) (A) (A) (A) (A) (A) (A) (A) (A) (A) (A) (A)
                 (A) (A) (A) (A) (A) (A) (A) (A) (A) (A) (A) (A)
                 (A) (A) (A) (A) (A) (A) (A) (A) (A) (A) (A) (A)
                 (A) (A) (A) (A) (A) (A) (A) (A) (A) (A) (A) (A)
                 (A) (A) (A) (A) (A) (A) (A) (A) (A) (A) (A) (A)
                 (A) (A) (A) (A) (A) (A) (A) (A) (A) (A) (A) (A)
                 (A) (A) (A) (A) (A) (A) (A) (A) (A) (A) (A) (A)
                 (A) (A) (A) (A) (A) (A) (A) (A) (A) (A) (A) (A)
                 (A) (A) (A) (A) (A) (A) (A) (A) (A) (A) (A) (A)
                 (A) (A) (A) (A) (A) (A) (A) (A) (A) (A) (A) (A)
                 (A) (A) (A) (A) (A) (A) (A) (A) (A) (A) (A) (A)
                 (A) (A) (A) (A) (A) (A) (A) (A) (A) (A) (A) (A)
                 (A) (A) (A) (A) (A) (A) (A) (A) (A) (A) (A) (A)
                 (A) (A) (A) (A) (A) (A) (A) (A) (A) (A) (A) (A)
                 (A) (A) (A) (A) (A) (A) (A) (A) (A) (A) (A) (A)
                 (A) (A) (A) (A) (A) (A) (A) (A) (A) (A) (A) (A)
                 (A) (A) (A) (A) (A) (A) (A) (A) (A) (A) (A) (A)
                 (A) (A) (A) (A) (A) (A) (A) (A) (A) (A) (A) (A)
                 (A) (A) (A) (A) (A) (A) (A) (A) (A) (A) (A) (A)
                 (A) (A) (A) (A) (A) (A) (A) (A) (A) (A) (A) (A)
                 (A) (A) (A) (A) (A) (A) (A) (A) (A) (A) (A) (A)
                 (A) (A) (A) (A) (A) (A) (A) (A) (A) (A) (A) (A)
                 (A) (A) (A) (A) (A) (A) (A) (A) (A) (A) (A) (A)
                 (A) (A) (A) (A) (A) (A) (A) (A) (A) (A) (A) (A)
                 (A) (A) (A) (A) (A) (A) (A) (A) (A) (A) (A) (A)
                 (A) (A) (A)
 Beta  Orbitals:
       Occupied  (A) (A) (A) (A) (A) (A) (A) (A) (A) (A) (A) (A)
                 (A) (A) (A) (A) (A) (A) (A) (A) (A) (A) (A) (A)
                 (A) (A) (A) (A) (A) (A) (A) (A) (A) (A) (A) (A)
                 (A) (A) (A) (A) (A) (A) (A) (A) (A) (A) (A) (A)
                 (A) (A) (A) (A) (A) (A) (A) (A) (A) (A) (A) (A)
                 (A) (A) (A) (A) (A) (A) (A) (A) (A) (A) (A) (A)
                 (A)
       Virtual   (A) (A) (A) (A) (A) (A) (A) (A) (A) (A) (A) (A)
                 (A) (A) (A) (A) (A) (A) (A) (A) (A) (A) (A) (A)
                 (A) (A) (A) (A) (A) (A) (A) (A) (A) (A) (A) (A)
                 (A) (A) (A) (A) (A) (A) (A) (A) (A) (A) (A) (A)
                 (A) (A) (A) (A) (A) (A) (A) (A) (A) (A) (A) (A)
                 (A) (A) (A) (A) (A) (A) (A) (A) (A) (A) (A) (A)
                 (A) (A) (A) (A) (A) (A) (A) (A) (A) (A) (A) (A)
                 (A) (A) (A) (A) (A) (A) (A) (A) (A) (A) (A) (A)
                 (A) (A) (A) (A) (A) (A) (A) (A) (A) (A) (A) (A)
                 (A) (A) (A) (A) (A) (A) (A) (A) (A) (A) (A) (A)
                 (A) (A) (A) (A) (A) (A) (A) (A) (A) (A) (A) (A)
                 (A) (A) (A) (A) (A) (A) (A) (A) (A) (A) (A) (A)
                 (A) (A) (A) (A) (A) (A) (A) (A) (A) (A) (A) (A)
                 (A) (A) (A) (A) (A) (A) (A) (A) (A) (A) (A) (A)
                 (A) (A) (A) (A) (A) (A) (A) (A) (A) (A) (A) (A)
                 (A) (A) (A) (A) (A) (A) (A) (A) (A) (A) (A) (A)
                 (A) (A) (A) (A) (A) (A) (A) (A) (A) (A) (A) (A)
                 (A) (A) (A) (A) (A) (A) (A) (A) (A) (A) (A) (A)
                 (A) (A) (A) (A) (A) (A) (A) (A) (A) (A) (A) (A)
                 (A) (A) (A) (A) (A) (A) (A) (A) (A) (A) (A) (A)
                 (A) (A) (A) (A) (A) (A) (A) (A) (A) (A) (A) (A)
                 (A) (A) (A) (A) (A) (A) (A) (A) (A) (A) (A) (A)
                 (A) (A) (A) (A) (A) (A) (A) (A) (A) (A) (A) (A)
                 (A) (A) (A) (A) (A) (A) (A) (A) (A) (A) (A) (A)
                 (A) (A) (A) (A) (A) (A) (A) (A) (A) (A) (A) (A)
                 (A) (A) (A) (A) (A) (A) (A) (A) (A) (A) (A) (A)
                 (A) (A) (A) (A) (A) (A) (A) (A) (A) (A) (A) (A)
                 (A) (A) (A)
 The electronic state is 1-A.
 Alpha  occ. eigenvalues --  -19.15358 -19.13151 -14.42367 -14.41192 -10.24748
 Alpha  occ. eigenvalues --  -10.24527 -10.19609 -10.19182 -10.18941 -10.18893
 Alpha  occ. eigenvalues --  -10.18834 -10.18789 -10.18769 -10.18691 -10.18638
 Alpha  occ. eigenvalues --  -10.18609 -10.18560 -10.18182 -10.17284 -10.17111
 Alpha  occ. eigenvalues --   -1.05741  -1.02906  -0.98144  -0.85510  -0.84874
 Alpha  occ. eigenvalues --   -0.78750  -0.75460  -0.74314  -0.74017  -0.72105
 Alpha  occ. eigenvalues --   -0.71794  -0.71740  -0.64064  -0.62158  -0.60335
 Alpha  occ. eigenvalues --   -0.59556  -0.57973  -0.55350  -0.52317  -0.51819
 Alpha  occ. eigenvalues --   -0.50339  -0.50133  -0.48348  -0.46784  -0.45742
 Alpha  occ. eigenvalues --   -0.44719  -0.44303  -0.43990  -0.43550  -0.42188
 Alpha  occ. eigenvalues --   -0.41929  -0.41590  -0.41354  -0.41136  -0.40022
 Alpha  occ. eigenvalues --   -0.37818  -0.37653  -0.36842  -0.36189  -0.35963
 Alpha  occ. eigenvalues --   -0.35311  -0.34291  -0.33759  -0.33589  -0.32596
 Alpha  occ. eigenvalues --   -0.30793  -0.28924  -0.27209  -0.25997  -0.25195
 Alpha  occ. eigenvalues --   -0.24573  -0.24229  -0.23166
 Alpha virt. eigenvalues --   -0.07859  -0.00670  -0.00559  -0.00019   0.00631
 Alpha virt. eigenvalues --    0.07619   0.09052   0.10186   0.10990   0.11760
 Alpha virt. eigenvalues --    0.13145   0.13784   0.13924   0.14631   0.14929
 Alpha virt. eigenvalues --    0.15371   0.16146   0.16326   0.16784   0.17375
 Alpha virt. eigenvalues --    0.18255   0.18378   0.20001   0.20747   0.21540
 Alpha virt. eigenvalues --    0.22099   0.23245   0.23747   0.24332   0.26208
 Alpha virt. eigenvalues --    0.26245   0.26963   0.27823   0.30284   0.30634
 Alpha virt. eigenvalues --    0.31114   0.32905   0.33253   0.34259   0.34922
 Alpha virt. eigenvalues --    0.35121   0.36808   0.38177   0.45657   0.47682
 Alpha virt. eigenvalues --    0.49273   0.49831   0.52263   0.52973   0.53606
 Alpha virt. eigenvalues --    0.54182   0.54461   0.54751   0.55138   0.55814
 Alpha virt. eigenvalues --    0.56690   0.56867   0.58081   0.58506   0.59532
 Alpha virt. eigenvalues --    0.59736   0.60643   0.60743   0.61013   0.61129
 Alpha virt. eigenvalues --    0.61281   0.62150   0.62695   0.63067   0.63381
 Alpha virt. eigenvalues --    0.64229   0.65511   0.66025   0.66436   0.67649
 Alpha virt. eigenvalues --    0.68825   0.70121   0.70863   0.71679   0.73465
 Alpha virt. eigenvalues --    0.74137   0.75451   0.76320   0.78779   0.79149
 Alpha virt. eigenvalues --    0.80445   0.81235   0.81742   0.82360   0.82701
 Alpha virt. eigenvalues --    0.82737   0.83077   0.83290   0.84770   0.85352
 Alpha virt. eigenvalues --    0.85986   0.86432   0.86871   0.86957   0.89090
 Alpha virt. eigenvalues --    0.89661   0.90332   0.91307   0.92811   0.93138
 Alpha virt. eigenvalues --    0.94198   0.94791   0.95753   0.97147   0.97830
 Alpha virt. eigenvalues --    0.98141   0.99937   1.00270   1.01151   1.02243
 Alpha virt. eigenvalues --    1.04190   1.04482   1.05495   1.09340   1.09911
 Alpha virt. eigenvalues --    1.11271   1.11781   1.12164   1.14125   1.15277
 Alpha virt. eigenvalues --    1.16765   1.17277   1.18312   1.18958   1.22550
 Alpha virt. eigenvalues --    1.23389   1.25493   1.26539   1.27570   1.28717
 Alpha virt. eigenvalues --    1.30684   1.33815   1.34568   1.34758   1.37650
 Alpha virt. eigenvalues --    1.39447   1.39659   1.40549   1.41316   1.41350
 Alpha virt. eigenvalues --    1.41917   1.42265   1.42410   1.42860   1.42948
 Alpha virt. eigenvalues --    1.45048   1.45932   1.47527   1.48686   1.50155
 Alpha virt. eigenvalues --    1.54569   1.56362   1.57577   1.59960   1.63011
 Alpha virt. eigenvalues --    1.64205   1.66203   1.68018   1.71695   1.73885
 Alpha virt. eigenvalues --    1.75991   1.76997   1.78356   1.79130   1.79565
 Alpha virt. eigenvalues --    1.81903   1.82660   1.84905   1.85489   1.87237
 Alpha virt. eigenvalues --    1.87391   1.88676   1.89660   1.90515   1.91743
 Alpha virt. eigenvalues --    1.93010   1.93485   1.94534   1.94694   1.96575
 Alpha virt. eigenvalues --    1.96963   1.97892   1.98378   1.98976   2.00299
 Alpha virt. eigenvalues --    2.00902   2.01256   2.03501   2.04244   2.05368
 Alpha virt. eigenvalues --    2.05979   2.06724   2.08276   2.09087   2.10016
 Alpha virt. eigenvalues --    2.11033   2.12031   2.12254   2.13986   2.15100
 Alpha virt. eigenvalues --    2.15865   2.16582   2.17873   2.21790   2.23509
 Alpha virt. eigenvalues --    2.24542   2.26355   2.26793   2.27728   2.29172
[...]
    20  C(13)              0.00000       0.00005       0.00002       0.00002
    21  C(13)              0.00000       0.00004       0.00002       0.00001
    22  C(13)             -0.00000      -0.00005      -0.00002      -0.00002
    23  H(1)              -0.00000      -0.00003      -0.00001      -0.00001
    24  C(13)             -0.00000      -0.00005      -0.00002      -0.00002
    25  H(1)              -0.00000      -0.00002      -0.00001      -0.00001
    26  C(13)              0.00000       0.00004       0.00002       0.00002
    27  H(1)               0.00000       0.00002       0.00001       0.00001
    28  H(1)               0.00000       0.00003       0.00001       0.00001
    29  H(1)              -0.00000      -0.00002      -0.00001      -0.00001
    30  C(13)              0.00000       0.00003       0.00001       0.00001
    31  C(13)              0.00000       0.00007       0.00002       0.00002
    32  C(13)             -0.00000      -0.00008      -0.00003      -0.00003
    33  C(13)             -0.00000      -0.00003      -0.00001      -0.00001
    34  H(1)              -0.00000      -0.00008      -0.00003      -0.00003
    35  C(13)              0.00000       0.00003       0.00001       0.00001
    36  H(1)               0.00000       0.00008       0.00003       0.00003
    37  C(13)             -0.00000      -0.00001      -0.00000      -0.00000
    38  H(1)               0.00000       0.00002       0.00001       0.00001
    39  H(1)              -0.00000      -0.00001      -0.00000      -0.00000
    40  H(1)               0.00000       0.00001       0.00000       0.00000
 --------------------------------------------------------
       Center         ----  Spin Dipole Couplings  ----
                      3XX-RR        3YY-RR        3ZZ-RR
 --------------------------------------------------------
     1   Atom        0.000000      0.000000     -0.000000
     2   Atom       -0.000000      0.000000     -0.000000
     3   Atom       -0.000000      0.000000      0.000000
     4   Atom       -0.000000      0.000000      0.000000
     5   Atom       -0.000000     -0.000000      0.000000
     6   Atom       -0.000001     -0.000001      0.000001
     7   Atom        0.000000      0.000000     -0.000000
     8   Atom       -0.000001     -0.000001      0.000002
     9   Atom       -0.000000      0.000000     -0.000000
    10   Atom        0.000000      0.000000     -0.000000
    11   Atom       -0.000000      0.000000     -0.000000
    12   Atom        0.000000      0.000000     -0.000000
    13   Atom        0.000000      0.000000     -0.000000
    14   Atom       -0.000000      0.000000     -0.000000
    15   Atom        0.000000      0.000000     -0.000000
    16   Atom       -0.000000     -0.000000      0.000000
    17   Atom       -0.000000      0.000000     -0.000000
    18   Atom        0.000000     -0.000000     -0.000000
    19   Atom        0.000000      0.000000     -0.000000
    20   Atom       -0.000000     -0.000000      0.000000
    21   Atom       -0.000000     -0.000000      0.000000
    22   Atom        0.000000      0.000000     -0.000000
    23   Atom        0.000000      0.000000     -0.000000
    24   Atom        0.000000      0.000000     -0.000000
    25   Atom        0.000000     -0.000000      0.000000
    26   Atom       -0.000000     -0.000000      0.000000
    27   Atom       -0.000000      0.000000     -0.000000
    28   Atom       -0.000000     -0.000000      0.000000
    29   Atom       -0.000000      0.000000      0.000000
    30   Atom       -0.000000     -0.000000      0.000000
    31   Atom       -0.000000     -0.000000      0.000000
    32   Atom        0.000000     -0.000000     -0.000000
    33   Atom       -0.000000      0.000000      0.000000
    34   Atom       -0.000000      0.000000     -0.000000
    35   Atom       -0.000000     -0.000000      0.000000
    36   Atom       -0.000000     -0.000000      0.000000
    37   Atom        0.000000      0.000000     -0.000000
    38   Atom        0.000000     -0.000000     -0.000000
    39   Atom       -0.000000      0.000000      0.000000
    40   Atom       -0.000000      0.000000      0.000000
 --------------------------------------------------------
                        XY            XZ            YZ
 --------------------------------------------------------
     1   Atom        0.000000      0.000000      0.000000
     2   Atom       -0.000000     -0.000000     -0.000000
     3   Atom        0.000000     -0.000000     -0.000000
     4   Atom       -0.000000     -0.000000     -0.000000
     5   Atom        0.000000      0.000000     -0.000000
     6   Atom        0.000001     -0.000002      0.000001
     7   Atom        0.000000     -0.000000     -0.000000
     8   Atom        0.000001     -0.000003      0.000001
     9   Atom       -0.000000     -0.000000      0.000000
    10   Atom       -0.000000      0.000000     -0.000000
    11   Atom       -0.000000      0.000000      0.000000
    12   Atom        0.000000      0.000000      0.000000
    13   Atom        0.000000      0.000000      0.000000
    14   Atom        0.000000      0.000000     -0.000000
    15   Atom        0.000000      0.000000     -0.000000
    16   Atom        0.000000      0.000000      0.000000
    17   Atom       -0.000000      0.000000     -0.000000
    18   Atom       -0.000000     -0.000000      0.000000
    19   Atom       -0.000000     -0.000000     -0.000000
    20   Atom        0.000000      0.000000      0.000000
    21   Atom        0.000000      0.000000      0.000000
    22   Atom       -0.000000     -0.000000     -0.000000
    23   Atom       -0.000000      0.000000      0.000000
    24   Atom       -0.000000     -0.000000     -0.000000
    25   Atom        0.000000     -0.000000     -0.000000
    26   Atom        0.000000      0.000000      0.000000
    27   Atom       -0.000000      0.000000     -0.000000
    28   Atom        0.000000     -0.000000     -0.000000
    29   Atom        0.000000      0.000000     -0.000000
    30   Atom        0.000000      0.000000      0.000000
    31   Atom       -0.000000      0.000000      0.000000
    32   Atom       -0.000000      0.000000     -0.000000
    33   Atom       -0.000000      0.000000     -0.000000
    34   Atom       -0.000000      0.000000     -0.000000
    35   Atom        0.000000      0.000000      0.000000
    36   Atom       -0.000000      0.000000      0.000000
    37   Atom       -0.000000     -0.000000     -0.000000
    38   Atom       -0.000000      0.000000      0.000000
    39   Atom        0.000000      0.000000     -0.000000
    40   Atom        0.000000     -0.000000     -0.000000
 --------------------------------------------------------


 ---------------------------------------------------------------------------------
              Anisotropic Spin Dipole Couplings in Principal Axis System
 ---------------------------------------------------------------------------------

       Atom             a.u.   MegaHertz   Gauss  10(-4) cm-1        Axes

              Baa    -0.0000    -0.000    -0.000    -0.000 -0.5342  0.2575  0.8052
     1 C(13)  Bbb    -0.0000    -0.000    -0.000    -0.000 -0.4185  0.7471 -0.5165
              Bcc     0.0000     0.000     0.000     0.000  0.7345  0.6129  0.2913
 
              Baa    -0.0000    -0.000    -0.000    -0.000  0.5042  0.2708  0.8200
     2 H(1)   Bbb    -0.0000    -0.000    -0.000    -0.000  0.8633 -0.1340 -0.4866
              Bcc     0.0000     0.000     0.000     0.000 -0.0219  0.9533 -0.3013
 
              Baa    -0.0000    -0.000    -0.000    -0.000  0.9363 -0.1807  0.3010
     3 C(13)  Bbb     0.0000     0.000     0.000     0.000 -0.0037  0.8523  0.5231
              Bcc     0.0000     0.000     0.000     0.000 -0.3511 -0.4909  0.7974
 
              Baa    -0.0000     0.000     0.000     0.000  0.9437  0.3258  0.0579
     4 O(17)  Bbb     0.0000    -0.000    -0.000    -0.000 -0.1200  0.1738  0.9774
              Bcc     0.0000    -0.000    -0.000    -0.000 -0.3084  0.9293 -0.2031
 
              Baa    -0.0000     0.000     0.000     0.000 -0.4760  0.8663  0.1518
     5 O(17)  Bbb     0.0000    -0.000    -0.000    -0.000  0.8442  0.4984 -0.1974
              Bcc     0.0000    -0.000    -0.000    -0.000  0.2466 -0.0342  0.9685
 
              Baa    -0.0000    -0.000    -0.000    -0.000  0.7393 -0.4528  0.4984
     6 N(14)  Bbb     0.0000     0.000     0.000     0.000  0.3413  0.8900  0.3024
              Bcc     0.0000     0.000     0.000     0.000 -0.5805 -0.0535  0.8125
 
              Baa    -0.0000    -0.000    -0.000    -0.000  0.2323  0.4497  0.8625
     7 H(1)   Bbb     0.0000     0.000     0.000     0.000  0.9245 -0.3775 -0.0522
              Bcc     0.0000     0.000     0.000     0.000  0.3021  0.8095 -0.5034
 
              Baa    -0.0000    -0.000    -0.000    -0.000  0.7622 -0.4591  0.4564
     8 N(14)  Bbb    -0.0000    -0.000    -0.000    -0.000  0.3690  0.8874  0.2765
              Bcc     0.0000     0.000     0.000     0.000 -0.5319 -0.0423  0.8457
 
              Baa    -0.0000    -0.000    -0.000    -0.000  0.1642 -0.4546  0.8754
     9 H(1)   Bbb    -0.0000    -0.000    -0.000    -0.000  0.9421  0.3353 -0.0026
              Bcc     0.0000     0.000     0.000     0.000 -0.2923  0.8252  0.4834
 
              Baa    -0.0000    -0.000    -0.000    -0.000 -0.5917  0.1303  0.7955
    10 H(1)   Bbb     0.0000     0.000     0.000     0.000  0.4598  0.8651  0.2004
              Bcc     0.0000     0.000     0.000     0.000  0.6621 -0.4844  0.5718
 
              Baa    -0.0000    -0.000    -0.000    -0.000 -0.6349 -0.2480  0.7317
    11 C(13)  Bbb     0.0000     0.000     0.000     0.000  0.1261  0.9011  0.4148
              Bcc     0.0000     0.000     0.000     0.000  0.7622 -0.3557  0.5408
 
              Baa    -0.0000    -0.000    -0.000    -0.000 -0.4918 -0.2949  0.8193
    12 H(1)   Bbb     0.0000     0.000     0.000     0.000 -0.5588  0.8285 -0.0372
              Bcc     0.0000     0.000     0.000     0.000  0.6678  0.4761  0.5722
 
              Baa    -0.0000    -0.000    -0.000    -0.000 -0.2247 -0.3791  0.8977
    13 H(1)   Bbb     0.0000     0.000     0.000     0.000  0.8956 -0.4433  0.0370
              Bcc     0.0000     0.000     0.000     0.000  0.3839  0.8123  0.4391
 
              Baa    -0.0000    -0.000    -0.000    -0.000 -0.5182  0.3111  0.7967
    14 H(1)   Bbb     0.0000     0.000     0.000     0.000  0.7877  0.5366  0.3028
              Bcc     0.0000     0.000     0.000     0.000 -0.3332  0.7844 -0.5231
 
              Baa    -0.0000    -0.000    -0.000    -0.000 -0.3918  0.2688  0.8799
    15 C(13)  Bbb     0.0000     0.000     0.000     0.000 -0.5151  0.7283 -0.4519
              Bcc     0.0000     0.000     0.000     0.000  0.7623  0.6303  0.1469
 
              Baa    -0.0000    -0.000    -0.000    -0.000 -0.6292  0.7066 -0.3237
    16 H(1)   Bbb    -0.0000    -0.000    -0.000    -0.000 -0.6736 -0.2880  0.6807
              Bcc     0.0000     0.000     0.000     0.000  0.3878  0.6464  0.6572
 
              Baa    -0.0000    -0.000    -0.000    -0.000 -0.3847  0.3142  0.8679
    17 H(1)   Bbb    -0.0000    -0.000    -0.000    -0.000  0.9214  0.1860  0.3411
              Bcc     0.0000     0.000     0.000     0.000 -0.0543  0.9310 -0.3611
 
              Baa    -0.0000    -0.000    -0.000    -0.000  0.0132  0.9472 -0.3203
    18 H(1)   Bbb    -0.0000    -0.000    -0.000    -0.000  0.0925  0.3178  0.9436
              Bcc     0.0000     0.000     0.000     0.000  0.9956 -0.0421 -0.0834
 
              Baa    -0.0000    -0.000    -0.000    -0.000  0.3884  0.1812  0.9035
    19 C(13)  Bbb     0.0000     0.000     0.000     0.000  0.3619  0.8717 -0.3304
              Bcc     0.0000     0.000     0.000     0.000  0.8475 -0.4553 -0.2730
 
              Baa    -0.0000    -0.000    -0.000    -0.000  0.6403  0.6533 -0.4040
    20 C(13)  Bbb    -0.0000    -0.000    -0.000    -0.000 -0.6601  0.7369  0.1456
              Bcc     0.0000     0.000     0.000     0.000  0.3929  0.1735  0.9031
 
              Baa    -0.0000    -0.000    -0.000    -0.000 -0.3039  0.9494 -0.0791
    21 C(13)  Bbb    -0.0000    -0.000    -0.000    -0.000  0.8705  0.2430 -0.4280
              Bcc     0.0000     0.000     0.000     0.000  0.3871  0.1989  0.9003
 
              Baa    -0.0000    -0.000    -0.000    -0.000  0.3833  0.2132  0.8987
    22 C(13)  Bbb     0.0000     0.000     0.000     0.000  0.8845  0.1956 -0.4236
              Bcc     0.0000     0.000     0.000     0.000 -0.2661  0.9572 -0.1136
 
              Baa    -0.0000    -0.000    -0.000    -0.000  0.6263  0.6713 -0.3964
    23 H(1)   Bbb    -0.0000    -0.000    -0.000    -0.000  0.4549  0.0982  0.8851
              Bcc     0.0000     0.000     0.000     0.000 -0.6331  0.7347  0.2439
 
              Baa    -0.0000    -0.000    -0.000    -0.000  0.3911  0.2047  0.8973
    24 C(13)  Bbb     0.0000     0.000     0.000     0.000 -0.6911  0.7092  0.1394
              Bcc     0.0000     0.000     0.000     0.000  0.6078  0.6746 -0.4188
 
              Baa    -0.0000    -0.000    -0.000    -0.000 -0.2193  0.9726 -0.0771
    25 H(1)   Bbb    -0.0000    -0.000    -0.000    -0.000  0.4092  0.1634  0.8977
              Bcc     0.0000     0.000     0.000     0.000  0.8857  0.1653 -0.4338
 
              Baa    -0.0000    -0.000    -0.000    -0.000  0.9016 -0.2881 -0.3226
    26 C(13)  Bbb    -0.0000    -0.000    -0.000    -0.000  0.1924  0.9352 -0.2974
              Bcc     0.0000     0.000     0.000     0.000  0.3873  0.2061  0.8986
 
              Baa    -0.0000    -0.000    -0.000    -0.000  0.8940  0.1876 -0.4069
    27 H(1)   Bbb     0.0000     0.000     0.000     0.000  0.3689  0.2072  0.9061
              Bcc     0.0000     0.000     0.000     0.000 -0.2543  0.9601 -0.1160
 
              Baa    -0.0000    -0.000    -0.000    -0.000 -0.6724  0.7274  0.1369
    28 H(1)   Bbb     0.0000     0.000     0.000     0.000  0.4031  0.2048  0.8920
              Bcc     0.0000     0.000     0.000     0.000  0.6208  0.6549 -0.4309
 
              Baa    -0.0000    -0.000    -0.000    -0.000  0.8990 -0.3014 -0.3176
    29 H(1)   Bbb     0.0000     0.000     0.000     0.000  0.3868  0.2068  0.8987
              Bcc     0.0000     0.000     0.000     0.000  0.2051  0.9308 -0.3025
 
              Baa    -0.0000    -0.000    -0.000    -0.000  0.6174  0.6725 -0.4081
    30 C(13)  Bbb    -0.0000    -0.000    -0.000    -0.000  0.7485 -0.6618  0.0421
              Bcc     0.0000     0.000     0.000     0.000  0.2418  0.3315  0.9119
 
              Baa    -0.0000    -0.000    -0.000    -0.000  0.9123  0.2880 -0.2910
    31 C(13)  Bbb    -0.0000    -0.000    -0.000    -0.000 -0.3629  0.8980 -0.2489
              Bcc     0.0000     0.000     0.000     0.000  0.1896  0.3327  0.9238
 
              Baa    -0.0000    -0.000    -0.000    -0.000  0.0402  0.6051  0.7951
    32 C(13)  Bbb     0.0000     0.000     0.000     0.000  0.6682  0.5754 -0.4716
              Bcc     0.0000     0.000     0.000     0.000  0.7429 -0.5502  0.3812
 
              Baa    -0.0000    -0.000    -0.000    -0.000  0.6944 -0.4664 -0.5480
    33 C(13)  Bbb    -0.0000    -0.000    -0.000    -0.000  0.7021  0.6061  0.3738
              Bcc     0.0000     0.000     0.000     0.000  0.1579 -0.6443  0.7483
 
              Baa    -0.0000    -0.000    -0.000    -0.000  0.9471  0.1988 -0.2519
    34 H(1)   Bbb    -0.0000    -0.000    -0.000    -0.000  0.1495  0.4210  0.8946
              Bcc     0.0000     0.000     0.000     0.000 -0.2839  0.8850 -0.3690
 
              Baa    -0.0000    -0.000    -0.000    -0.000  0.1827  0.8461 -0.5007
    35 C(13)  Bbb    -0.0000    -0.000    -0.000    -0.000  0.9410 -0.2981 -0.1603
              Bcc     0.0000     0.000     0.000     0.000  0.2849  0.4419  0.8506
 
              Baa    -0.0000    -0.000    -0.000    -0.000  0.6545  0.6045 -0.4541
    36 H(1)   Bbb     0.0000     0.000     0.000     0.000  0.0056  0.5967  0.8024
              Bcc     0.0000     0.000     0.000     0.000  0.7560 -0.5278  0.3872
 
              Baa    -0.0000    -0.000    -0.000    -0.000  0.1092  0.5192  0.8477
    37 C(13)  Bbb     0.0000     0.000     0.000     0.000  0.9403  0.2226 -0.2575
              Bcc     0.0000     0.000     0.000     0.000 -0.3224  0.8252 -0.4639
 
              Baa    -0.0000    -0.000    -0.000    -0.000  0.3908  0.6995 -0.5983
    38 H(1)   Bbb     0.0000     0.000     0.000     0.000 -0.0892  0.6758  0.7317
              Bcc     0.0000     0.000     0.000     0.000  0.9162 -0.2326  0.3265
 
              Baa    -0.0000    -0.000    -0.000    -0.000  0.9827 -0.0358 -0.1817
    39 H(1)   Bbb     0.0000     0.000     0.000     0.000  0.1813  0.3868  0.9042
              Bcc     0.0000     0.000     0.000     0.000 -0.0379  0.9215 -0.3866
 
              Baa    -0.0000    -0.000    -0.000    -0.000  0.9600 -0.2785  0.0277
    40 H(1)   Bbb     0.0000     0.000     0.000     0.000  0.1274  0.5231  0.8427
              Bcc     0.0000     0.000     0.000     0.000  0.2492  0.8055 -0.5377
 

 ---------------------------------------------------------------------------------

 No NMR shielding tensors so no spin-rotation constants.
 Leave Link  601 at Tue Jun 11 16:53:05 2019, MaxMem=   104857600 cpu:              12.6 elap:               0.4
 (Enter /project/6004141/group/g16/g16/l9999.exe)
 1\1\GINC-BLG9232\FOpt\UB3LYP\6-31G(d,p)\C16H20N2O2\RZK\11-Jun-2019\0\\
 #p opt ub3lyp/6-31g(d,p) scrf=(iefpcm,solvent=acetonitrile) guess=(mix
 ,always) empiricaldispersion=gd3\\Title Card Required\\0,1\C,0.5960262
 474,0.2623195823,-0.890978884\H,2.9902227711,2.3673288344,0.0886334292
 \C,-0.301332847,0.9638696166,0.2399860641\O,-0.4391144668,2.3315434798
 ,-0.1615288344\O,1.7294159439,1.1278458842,-1.1125196751\N,1.943723002
 7,3.7798866857,0.5797994802\H,2.0034759591,4.7357855734,0.9701573123\N
 ,3.0964725277,3.3216452399,0.4860548635\H,1.3441605553,1.9581303405,-1
 .4312536024\H,0.3286225885,2.8383508113,0.1808295242\C,-0.17115775,0.1
 796641949,-2.2175710345\H,0.5039189904,-0.1706526568,-3.0020002338\H,-
 1.0318472803,-0.4872138363,-2.1650688265\H,-0.5419889825,1.1741303443,
 -2.4814848161\C,0.3832280224,0.9084601741,1.6129256203\H,-0.1809952736
 ,1.5263279159,2.316414929\H,0.4425243702,-0.1059959529,2.006572404\H,1
 .4023864487,1.2925145303,1.5467876077\C,1.1559954406,-1.0882245546,-0.
 4591901855\C,2.4268459055,-1.1765575422,0.1299808797\C,0.4194278411,-2
 .2714292898,-0.6193371963\C,2.938110535,-2.4025673002,0.5567307265\H,3
 .0198147085,-0.2784575459,0.2507136142\C,0.9277145523,-3.4989442452,-0
 .1899238649\H,-0.5652590693,-2.2430061159,-1.0699458937\C,2.1895652464
 ,-3.57111956,0.4016183413\H,3.924922796,-2.4433059485,1.0090259164\H,0
 .3346341146,-4.3990090979,-0.3234125808\H,2.5866389787,-4.5260288924,0
 .733028742\C,-1.7074628502,0.363427052,0.3010600551\C,-2.7799975358,1.
 0106863129,-0.3303988832\C,-1.964894001,-0.8442894018,0.9670686629\C,-
 4.0639469586,0.4642517996,-0.3072829339\H,-2.6001132981,1.9506455905,-
 0.8369675852\C,-3.2483220913,-1.393941035,0.9898840756\H,-1.1623959781
 ,-1.3733369357,1.4667657564\C,-4.30507397,-0.7431828823,0.3514240523\H
 ,-4.8775314708,0.9858595171,-0.8036492968\H,-3.419380751,-2.3308996837
 ,1.5121570107\H,-5.3040399714,-1.1688820027,0.3711142596\\Version=ES64
 L-G16RevA.03\State=1-A\HF=-881.7240024\S2=0.\S2-1=0.\S2A=0.\RMSD=4.661
 e-09\RMSF=1.285e-05\Dipole=0.114164,0.2700916,0.2947191\Quadrupole=-4.
 0294419,8.1374782,-4.1080363,3.5010045,3.5466083,-1.1864528\PG=C01 [X(
 C16H20N2O2)]\\@


 GOOD SENSE ABOUT TRIVIALITIES IS BETTER THAN NONSENSE
 ABOUT THINGS THAT MATTER

                                       -- MAX BEERBOHM
 Job cpu time:       0 days 12 hours  6 minutes 43.5 seconds.
 Elapsed time:       0 days  0 hours 18 minutes 45.7 seconds.
 File lengths (MBytes):  RWF=    408 Int=      0 D2E=      0 Chk=     21 Scr=      2
 Normal termination of Gaussian 16 at Tue Jun 11 16:53:06 2019.
