 Entering Gaussian System, Link 0=g16
 Initial command:
 /opt/software/gaussian/g16.b01/l1.exe "/localscratch/rzk.14874533.0/Gau-3355.inp" -scrdir="/localscratch/rzk.14874533.0/"
 Entering Link 1 = /opt/software/gaussian/g16.b01/l1.exe PID=      3361.
  
 Copyright (c) 1988-2017, Gaussian, Inc.  All Rights Reserved.
  
 This is part of the Gaussian(R) 16 program.  It is based on
 the Gaussian(R) 09 system (copyright 2009, Gaussian, Inc.),
 the Gaussian(R) 03 system (copyright 2003, Gaussian, Inc.),
 the Gaussian(R) 98 system (copyright 1998, Gaussian, Inc.),
 the Gaussian(R) 94 system (copyright 1995, Gaussian, Inc.),
 the Gaussian 92(TM) system (copyright 1992, Gaussian, Inc.),
 the Gaussian 90(TM) system (copyright 1990, Gaussian, Inc.),
 the Gaussian 88(TM) system (copyright 1988, Gaussian, Inc.),
 the Gaussian 86(TM) system (copyright 1986, Carnegie Mellon
 University), and the Gaussian 82(TM) system (copyright 1983,
 Carnegie Mellon University). Gaussian is a federally registered
 trademark of Gaussian, Inc.
  
 This software contains proprietary and confidential information,
 including trade secrets, belonging to Gaussian, Inc.
  
 This software is provided under written license and may be
 used, copied, transmitted, or stored only in accord with that
 written license.
  
 The following legend is applicable only to US Government
 contracts under FAR:
  
                    RESTRICTED RIGHTS LEGEND
  
 Use, reproduction and disclosure by the US Government is
 subject to restrictions as set forth in subparagraphs (a)
 and (c) of the Commercial Computer Software - Restricted
 Rights clause in FAR 52.227-19.
  
 Gaussian, Inc.
 340 Quinnipiac St., Bldg. 40, Wallingford CT 06492
  
  
 ---------------------------------------------------------------
 Warning -- This program may not be used in any manner that
 competes with the business of Gaussian, Inc. or will provide
 assistance to any competitor of Gaussian, Inc.  The licensee
 of this program is prohibited from giving any competitor of
 Gaussian, Inc. access to this program.  By using this program,
 the user acknowledges that Gaussian, Inc. is engaged in the
 business of creating and licensing software in the field of
 computational chemistry and represents and warrants to the
 licensee that it is not a competitor of Gaussian, Inc. and that
 it will not use this program in any manner prohibited above.
 ---------------------------------------------------------------
  

 Cite this work as:
 Gaussian 16, Revision B.01,
 M. J. Frisch, G. W. Trucks, H. B. Schlegel, G. E. Scuseria, 
 M. A. Robb, J. R. Cheeseman, G. Scalmani, V. Barone, 
 G. A. Petersson, H. Nakatsuji, X. Li, M. Caricato, A. V. Marenich, 
 J. Bloino, B. G. Janesko, R. Gomperts, B. Mennucci, H. P. Hratchian, 
 J. V. Ortiz, A. F. Izmaylov, J. L. Sonnenberg, D. Williams-Young, 
 F. Ding, F. Lipparini, F. Egidi, J. Goings, B. Peng, A. Petrone, 
 T. Henderson, D. Ranasinghe, V. G. Zakrzewski, J. Gao, N. Rega, 
 G. Zheng, W. Liang, M. Hada, M. Ehara, K. Toyota, R. Fukuda, 
 J. Hasegawa, M. Ishida, T. Nakajima, Y. Honda, O. Kitao, H. Nakai, 
 T. Vreven, K. Throssell, J. A. Montgomery, Jr., J. E. Peralta, 
 F. Ogliaro, M. J. Bearpark, J. J. Heyd, E. N. Brothers, K. N. Kudin, 
 V. N. Staroverov, T. A. Keith, R. Kobayashi, J. Normand, 
 K. Raghavachari, A. P. Rendell, J. C. Burant, S. S. Iyengar, 
 J. Tomasi, M. Cossi, J. M. Millam, M. Klene, C. Adamo, R. Cammi, 
 J. W. Ochterski, R. L. Martin, K. Morokuma, O. Farkas, 
 J. B. Foresman, and D. J. Fox, Gaussian, Inc., Wallingford CT, 2016.
 
 ******************************************
 Gaussian 16:  ES64L-G16RevB.01 20-Dec-2017
                17-May-2019 
 ******************************************
 %NProcShared=32
 Will use up to   32 processors via shared memory.
 %chk=AAB.chk
 ----------------------------------------------------------------------
 #p opt ub3lyp/6-31g(d,p) scrf=(iefpcm,solvent=acetonitrile) guess=(mix
 ,always) empiricaldispersion=gd3
 ----------------------------------------------------------------------
 1/18=20,19=15,26=3,38=1/1,3;
 2/9=110,12=2,17=6,18=5,40=1/2;
 3/5=1,6=6,7=101,11=2,25=1,30=1,70=2201,71=1,72=2,74=-5,116=2,124=31/1,2,3;
 4/13=-1/1;
 5/5=2,38=5,53=2/2;
 6/7=2,8=2,9=2,10=2,28=1/1;
 7//1,2,3,16;
 1/18=20,19=15,26=3/3(2);
 2/9=110/2;
 99//99;
 2/9=110/2;
 3/5=1,6=6,7=101,11=2,25=1,30=1,70=2205,71=1,72=2,74=-5,116=2,124=31/1,2,3;
 4/13=-1/1;
 5/5=2,38=5,53=2/2;
 7//1,2,3,16;
 1/18=20,19=15,26=3/3(-5);
 2/9=110/2;
 6/7=2,8=2,9=2,10=2,19=2,28=1/1;
 99/9=1/99;
 Leave Link    1 at Fri May 17 06:33:09 2019, MaxMem=           0 cpu:               2.2 elap:               0.1
 (Enter /opt/software/gaussian/g16.b01/l101.exe)
 -------------------
 Title Card Required
 -------------------
 Symbolic Z-matrix:
 Charge =  0 Multiplicity = 1
 C                     0.77644  -0.6179   -0.48127 
 H                     5.49966  -0.57888  -0.94613 
 C                     0.72956   0.63279   0.59593 
 O                     1.87056   1.45519   0.35898 
 O                     1.91659  -1.41277  -0.15735 
 N                     4.57488   0.41256   0.40109 
 H                     2.67897   0.9752    0.61647 
 N                     4.56001  -0.36573  -0.56252 
 H                     2.7174   -1.01935  -0.55051 
 H                     5.52535   0.73011   0.66821 
 C                     0.93806  -0.07433  -1.90497 
 H                     1.02429  -0.90989  -2.60484 
 H                     0.10158   0.55559  -2.20974 
 H                     1.84361   0.53462  -1.95572 
 C                     0.80523   0.08447   2.02582 
 H                     0.80985   0.917     2.7343 
 H                    -0.02666  -0.57947   2.26584 
 H                     1.72729  -0.49003   2.13838 
 C                    -0.4473   -1.51833  -0.33961 
 C                    -0.39004  -2.66914   0.46137 
 C                    -1.65981  -1.2219   -0.98041 
 C                    -1.5072   -3.48997   0.62423 
 H                     0.54183  -2.91916   0.95353 
 C                    -2.77761  -2.04304  -0.82302 
 H                    -1.7451   -0.3363   -1.59902 
 C                    -2.70833  -3.18109  -0.0176 
 H                    -1.43627  -4.37458   1.25113 
 H                    -3.70382  -1.78906  -1.33071 
 H                    -3.57783  -3.82022   0.10576 
 C                    -0.494     1.51535   0.37303 
 C                    -0.4124    2.6382   -0.46509 
 C                    -1.73035   1.22864   0.97081 
 C                    -1.52951   3.43904  -0.70737 
 H                     0.53803   2.88093  -0.92429 
 C                    -2.84867   2.02964   0.73348 
 H                    -1.83369   0.36534   1.61754 
 C                    -2.75526   3.13834  -0.10945 
 H                    -1.43969   4.30164  -1.36189 
 H                    -3.7941    1.783     1.20827 
 H                    -3.62506   3.76182  -0.29505 
 
 Add virtual bond connecting atoms H7         and N6         Dist= 3.76D+00.
 Add virtual bond connecting atoms H9         and N8         Dist= 3.69D+00.
 ITRead=  0  0  0  0  0  0  0  0  0  0  0  0  0  0  0  0  0  0  0  0
 ITRead=  0  0  0  0  0  0  0  0  0  0  0  0  0  0  0  0  0  0  0  0
 MicOpt= -1 -1 -1 -1 -1 -1 -1 -1 -1 -1 -1 -1 -1 -1 -1 -1 -1 -1 -1 -1
 MicOpt= -1 -1 -1 -1 -1 -1 -1 -1 -1 -1 -1 -1 -1 -1 -1 -1 -1 -1 -1 -1
 NAtoms=     40 NQM=       40 NQMF=       0 NMMI=      0 NMMIF=      0
                NMic=       0 NMicF=      0.
                    Isotopes and Nuclear Properties:
 (Nuclear quadrupole moments (NQMom) in fm**2, nuclear magnetic moments (NMagM)
  in nuclear magnetons)

  Atom         1           2           3           4           5           6           7           8           9          10
 IAtWgt=          12           1          12          16          16          14           1          14           1           1
 AtmWgt=  12.0000000   1.0078250  12.0000000  15.9949146  15.9949146  14.0030740   1.0078250  14.0030740   1.0078250   1.0078250
 NucSpn=           0           1           0           0           0           2           1           2           1           1
 AtZEff=  -0.0000000  -0.0000000  -0.0000000  -0.0000000  -0.0000000  -0.0000000  -0.0000000  -0.0000000  -0.0000000  -0.0000000
 NQMom=    0.0000000   0.0000000   0.0000000   0.0000000   0.0000000   2.0440000   0.0000000   2.0440000   0.0000000   0.0000000
 NMagM=    0.0000000   2.7928460   0.0000000   0.0000000   0.0000000   0.4037610   2.7928460   0.4037610   2.7928460   2.7928460
 AtZNuc=   6.0000000   1.0000000   6.0000000   8.0000000   8.0000000   7.0000000   1.0000000   7.0000000   1.0000000   1.0000000

  Atom        11          12          13          14          15          16          17          18          19          20
 IAtWgt=          12           1           1           1          12           1           1           1          12          12
 AtmWgt=  12.0000000   1.0078250   1.0078250   1.0078250  12.0000000   1.0078250   1.0078250   1.0078250  12.0000000  12.0000000
 NucSpn=           0           1           1           1           0           1           1           1           0           0
 AtZEff=  -0.0000000  -0.0000000  -0.0000000  -0.0000000  -0.0000000  -0.0000000  -0.0000000  -0.0000000  -0.0000000  -0.0000000
 NQMom=    0.0000000   0.0000000   0.0000000   0.0000000   0.0000000   0.0000000   0.0000000   0.0000000   0.0000000   0.0000000
 NMagM=    0.0000000   2.7928460   2.7928460   2.7928460   0.0000000   2.7928460   2.7928460   2.7928460   0.0000000   0.0000000
 AtZNuc=   6.0000000   1.0000000   1.0000000   1.0000000   6.0000000   1.0000000   1.0000000   1.0000000   6.0000000   6.0000000

  Atom        21          22          23          24          25          26          27          28          29          30
 IAtWgt=          12          12           1          12           1          12           1           1           1          12
 AtmWgt=  12.0000000  12.0000000   1.0078250  12.0000000   1.0078250  12.0000000   1.0078250   1.0078250   1.0078250  12.0000000
 NucSpn=           0           0           1           0           1           0           1           1           1           0
 AtZEff=  -0.0000000  -0.0000000  -0.0000000  -0.0000000  -0.0000000  -0.0000000  -0.0000000  -0.0000000  -0.0000000  -0.0000000
 NQMom=    0.0000000   0.0000000   0.0000000   0.0000000   0.0000000   0.0000000   0.0000000   0.0000000   0.0000000   0.0000000
 NMagM=    0.0000000   0.0000000   2.7928460   0.0000000   2.7928460   0.0000000   2.7928460   2.7928460   2.7928460   0.0000000
 AtZNuc=   6.0000000   6.0000000   1.0000000   6.0000000   1.0000000   6.0000000   1.0000000   1.0000000   1.0000000   6.0000000

  Atom        31          32          33          34          35          36          37          38          39          40
 IAtWgt=          12          12          12           1          12           1          12           1           1           1
 AtmWgt=  12.0000000  12.0000000  12.0000000   1.0078250  12.0000000   1.0078250  12.0000000   1.0078250   1.0078250   1.0078250
 NucSpn=           0           0           0           1           0           1           0           1           1           1
 AtZEff=  -0.0000000  -0.0000000  -0.0000000  -0.0000000  -0.0000000  -0.0000000  -0.0000000  -0.0000000  -0.0000000  -0.0000000
 NQMom=    0.0000000   0.0000000   0.0000000   0.0000000   0.0000000   0.0000000   0.0000000   0.0000000   0.0000000   0.0000000
 NMagM=    0.0000000   0.0000000   0.0000000   2.7928460   0.0000000   2.7928460   0.0000000   2.7928460   2.7928460   2.7928460
 AtZNuc=   6.0000000   6.0000000   6.0000000   1.0000000   6.0000000   1.0000000   6.0000000   1.0000000   1.0000000   1.0000000
 Leave Link  101 at Fri May 17 06:33:09 2019, MaxMem=   104857600 cpu:               4.5 elap:               0.2
 (Enter /opt/software/gaussian/g16.b01/l103.exe)

 GradGradGradGradGradGradGradGradGradGradGradGradGradGradGradGradGradGrad
 Berny optimization.
 Initialization pass.
                           ----------------------------
                           !    Initial Parameters    !
                           ! (Angstroms and Degrees)  !
 --------------------------                            --------------------------
 ! Name  Definition              Value          Derivative Info.                !
 --------------------------------------------------------------------------------
 ! R1    R(1,3)                  1.6513         estimate D2E/DX2                !
 ! R2    R(1,5)                  1.4271         estimate D2E/DX2                !
 ! R3    R(1,11)                 1.5325         estimate D2E/DX2                !
 ! R4    R(1,19)                 1.5259         estimate D2E/DX2                !
 ! R5    R(2,8)                  1.0371         estimate D2E/DX2                !
 ! R6    R(3,4)                  1.4263         estimate D2E/DX2                !
 ! R7    R(3,15)                 1.5333         estimate D2E/DX2                !
 ! R8    R(3,30)                 1.525          estimate D2E/DX2                !
 ! R9    R(4,7)                  0.9748         estimate D2E/DX2                !
 ! R10   R(5,9)                  0.975          estimate D2E/DX2                !
 ! R11   R(6,7)                  1.9893         estimate D2E/DX2                !
 ! R12   R(6,8)                  1.2388         estimate D2E/DX2                !
 ! R13   R(6,10)                 1.0371         estimate D2E/DX2                !
 ! R14   R(8,9)                  1.9551         estimate D2E/DX2                !
 ! R15   R(11,12)                1.0934         estimate D2E/DX2                !
 ! R16   R(11,13)                1.0906         estimate D2E/DX2                !
 ! R17   R(11,14)                1.0924         estimate D2E/DX2                !
 ! R18   R(15,16)                1.0932         estimate D2E/DX2                !
 ! R19   R(15,17)                1.0911         estimate D2E/DX2                !
 ! R20   R(15,18)                1.0922         estimate D2E/DX2                !
 ! R21   R(19,20)                1.4033         estimate D2E/DX2                !
 ! R22   R(19,21)                1.4031         estimate D2E/DX2                !
 ! R23   R(20,22)                1.3958         estimate D2E/DX2                !
 ! R24   R(20,23)                1.0831         estimate D2E/DX2                !
 ! R25   R(21,24)                1.3959         estimate D2E/DX2                !
 ! R26   R(21,25)                1.0836         estimate D2E/DX2                !
 ! R27   R(22,26)                1.3965         estimate D2E/DX2                !
 ! R28   R(22,27)                1.0865         estimate D2E/DX2                !
 ! R29   R(24,26)                1.3959         estimate D2E/DX2                !
 ! R30   R(24,28)                1.0863         estimate D2E/DX2                !
 ! R31   R(26,29)                1.0862         estimate D2E/DX2                !
 ! R32   R(30,31)                1.4035         estimate D2E/DX2                !
 ! R33   R(30,32)                1.4029         estimate D2E/DX2                !
 ! R34   R(31,33)                1.3957         estimate D2E/DX2                !
 ! R35   R(31,34)                1.0831         estimate D2E/DX2                !
 ! R36   R(32,35)                1.3959         estimate D2E/DX2                !
 ! R37   R(32,36)                1.0836         estimate D2E/DX2                !
 ! R38   R(33,37)                1.3966         estimate D2E/DX2                !
 ! R39   R(33,38)                1.0865         estimate D2E/DX2                !
 ! R40   R(35,37)                1.3959         estimate D2E/DX2                !
 ! R41   R(35,39)                1.0863         estimate D2E/DX2                !
 ! R42   R(37,40)                1.0862         estimate D2E/DX2                !
 ! A1    A(3,1,5)              107.2456         estimate D2E/DX2                !
 ! A2    A(3,1,11)             109.9001         estimate D2E/DX2                !
 ! A3    A(3,1,19)             111.3217         estimate D2E/DX2                !
 ! A4    A(5,1,11)             108.915          estimate D2E/DX2                !
 ! A5    A(5,1,19)             106.9161         estimate D2E/DX2                !
 ! A6    A(11,1,19)            112.3417         estimate D2E/DX2                !
 ! A7    A(1,3,4)              107.7957         estimate D2E/DX2                !
 ! A8    A(1,3,15)             109.6391         estimate D2E/DX2                !
 ! A9    A(1,3,30)             111.4539         estimate D2E/DX2                !
 ! A10   A(4,3,15)             108.7622         estimate D2E/DX2                !
 ! A11   A(4,3,30)             106.4912         estimate D2E/DX2                !
 ! A12   A(15,3,30)            112.5105         estimate D2E/DX2                !
 ! A13   A(3,4,7)              109.6111         estimate D2E/DX2                !
 ! A14   A(1,5,9)              109.8713         estimate D2E/DX2                !
 ! A15   A(7,6,8)              104.5058         estimate D2E/DX2                !
 ! A16   A(7,6,10)             139.3712         estimate D2E/DX2                !
 ! A17   A(8,6,10)             113.8115         estimate D2E/DX2                !
 ! A18   A(4,7,6)              154.2955         estimate D2E/DX2                !
 ! A19   A(2,8,6)              113.9535         estimate D2E/DX2                !
 ! A20   A(2,8,9)              141.9496         estimate D2E/DX2                !
 ! A21   A(6,8,9)              102.5078         estimate D2E/DX2                !
 ! A22   A(5,9,8)              155.7039         estimate D2E/DX2                !
 ! A23   A(1,11,12)            109.3859         estimate D2E/DX2                !
 ! A24   A(1,11,13)            112.5567         estimate D2E/DX2                !
 ! A25   A(1,11,14)            109.1649         estimate D2E/DX2                !
 ! A26   A(12,11,13)           108.8456         estimate D2E/DX2                !
 ! A27   A(12,11,14)           109.3227         estimate D2E/DX2                !
 ! A28   A(13,11,14)           107.508          estimate D2E/DX2                !
 ! A29   A(3,15,16)            109.4052         estimate D2E/DX2                !
 ! A30   A(3,15,17)            112.6521         estimate D2E/DX2                !
 ! A31   A(3,15,18)            109.0181         estimate D2E/DX2                !
 ! A32   A(16,15,17)           108.9101         estimate D2E/DX2                !
 ! A33   A(16,15,18)           109.2819         estimate D2E/DX2                !
 ! A34   A(17,15,18)           107.5127         estimate D2E/DX2                !
 ! A35   A(1,19,20)            120.278          estimate D2E/DX2                !
 ! A36   A(1,19,21)            121.7342         estimate D2E/DX2                !
 ! A37   A(20,19,21)           117.9821         estimate D2E/DX2                !
 ! A38   A(19,20,22)           121.0777         estimate D2E/DX2                !
 ! A39   A(19,20,23)           118.9323         estimate D2E/DX2                !
 ! A40   A(22,20,23)           119.9894         estimate D2E/DX2                !
 ! A41   A(19,21,24)           121.0802         estimate D2E/DX2                !
 ! A42   A(19,21,25)           120.092          estimate D2E/DX2                !
 ! A43   A(24,21,25)           118.8224         estimate D2E/DX2                !
 ! A44   A(20,22,26)           120.312          estimate D2E/DX2                !
 ! A45   A(20,22,27)           119.5936         estimate D2E/DX2                !
 ! A46   A(26,22,27)           120.0939         estimate D2E/DX2                !
 ! A47   A(21,24,26)           120.3238         estimate D2E/DX2                !
 ! A48   A(21,24,28)           119.5063         estimate D2E/DX2                !
 ! A49   A(26,24,28)           120.1698         estimate D2E/DX2                !
 ! A50   A(22,26,24)           119.2228         estimate D2E/DX2                !
 ! A51   A(22,26,29)           120.411          estimate D2E/DX2                !
 ! A52   A(24,26,29)           120.366          estimate D2E/DX2                !
 ! A53   A(3,30,31)            120.2394         estimate D2E/DX2                !
 ! A54   A(3,30,32)            121.7709         estimate D2E/DX2                !
 ! A55   A(31,30,32)           117.9819         estimate D2E/DX2                !
 ! A56   A(30,31,33)           121.0754         estimate D2E/DX2                !
 ! A57   A(30,31,34)           118.9134         estimate D2E/DX2                !
 ! A58   A(33,31,34)           120.0109         estimate D2E/DX2                !
 ! A59   A(30,32,35)           121.0852         estimate D2E/DX2                !
 ! A60   A(30,32,36)           120.0779         estimate D2E/DX2                !
 ! A61   A(35,32,36)           118.8308         estimate D2E/DX2                !
 ! A62   A(31,33,37)           120.3072         estimate D2E/DX2                !
 ! A63   A(31,33,38)           119.5998         estimate D2E/DX2                !
 ! A64   A(37,33,38)           120.0925         estimate D2E/DX2                !
 ! A65   A(32,35,37)           120.3197         estimate D2E/DX2                !
 ! A66   A(32,35,39)           119.5143         estimate D2E/DX2                !
 ! A67   A(37,35,39)           120.1658         estimate D2E/DX2                !
 ! A68   A(33,37,35)           119.2281         estimate D2E/DX2                !
 ! A69   A(33,37,40)           120.4056         estimate D2E/DX2                !
 ! A70   A(35,37,40)           120.3659         estimate D2E/DX2                !
 ! D1    D(5,1,3,4)             65.9314         estimate D2E/DX2                !
 ! D2    D(5,1,3,15)           -52.3117         estimate D2E/DX2                !
 ! D3    D(5,1,3,30)          -177.5514         estimate D2E/DX2                !
 ! D4    D(11,1,3,4)           -52.3208         estimate D2E/DX2                !
 ! D5    D(11,1,3,15)         -170.5638         estimate D2E/DX2                !
 ! D6    D(11,1,3,30)           64.1965         estimate D2E/DX2                !
 ! D7    D(19,1,3,4)          -177.4392         estimate D2E/DX2                !
 ! D8    D(19,1,3,15)           64.3178         estimate D2E/DX2                !
 ! D9    D(19,1,3,30)          -60.922          estimate D2E/DX2                !
 ! D10   D(3,1,5,9)            -82.3209         estimate D2E/DX2                !
 ! D11   D(11,1,5,9)            36.5686         estimate D2E/DX2                !
 ! D12   D(19,1,5,9)           158.1841         estimate D2E/DX2                !
 ! D13   D(3,1,11,12)          176.8603         estimate D2E/DX2                !
 ! D14   D(3,1,11,13)          -62.0111         estimate D2E/DX2                !
 ! D15   D(3,1,11,14)           57.2793         estimate D2E/DX2                !
 ! D16   D(5,1,11,12)           59.6448         estimate D2E/DX2                !
 ! D17   D(5,1,11,13)         -179.2266         estimate D2E/DX2                !
 ! D18   D(5,1,11,14)          -59.9362         estimate D2E/DX2                !
 ! D19   D(19,1,11,12)         -58.6086         estimate D2E/DX2                !
 ! D20   D(19,1,11,13)          62.52           estimate D2E/DX2                !
 ! D21   D(19,1,11,14)        -178.1896         estimate D2E/DX2                !
 ! D22   D(3,1,19,20)          -94.7497         estimate D2E/DX2                !
 ! D23   D(3,1,19,21)           84.3596         estimate D2E/DX2                !
 ! D24   D(5,1,19,20)           22.0808         estimate D2E/DX2                !
 ! D25   D(5,1,19,21)         -158.8099         estimate D2E/DX2                !
 ! D26   D(11,1,19,20)         141.5078         estimate D2E/DX2                !
 ! D27   D(11,1,19,21)         -39.3829         estimate D2E/DX2                !
 ! D28   D(1,3,4,7)            -68.635          estimate D2E/DX2                !
 ! D29   D(15,3,4,7)            50.1699         estimate D2E/DX2                !
 ! D30   D(30,3,4,7)           171.6531         estimate D2E/DX2                !
 ! D31   D(1,3,15,16)          177.9991         estimate D2E/DX2                !
 ! D32   D(1,3,15,17)          -60.7136         estimate D2E/DX2                !
 ! D33   D(1,3,15,18)           58.5443         estimate D2E/DX2                !
 ! D34   D(4,3,15,16)           60.358          estimate D2E/DX2                !
 ! D35   D(4,3,15,17)         -178.3547         estimate D2E/DX2                !
 ! D36   D(4,3,15,18)          -59.0968         estimate D2E/DX2                !
 ! D37   D(30,3,15,16)         -57.3718         estimate D2E/DX2                !
 ! D38   D(30,3,15,17)          63.9156         estimate D2E/DX2                !
 ! D39   D(30,3,15,18)        -176.8265         estimate D2E/DX2                !
 ! D40   D(1,3,30,31)          -92.1765         estimate D2E/DX2                !
 ! D41   D(1,3,30,32)           86.7847         estimate D2E/DX2                !
 ! D42   D(4,3,30,31)           25.1335         estimate D2E/DX2                !
 ! D43   D(4,3,30,32)         -155.9053         estimate D2E/DX2                !
 ! D44   D(15,3,30,31)         144.198          estimate D2E/DX2                !
 ! D45   D(15,3,30,32)         -36.8408         estimate D2E/DX2                !
 ! D46   D(3,4,7,6)            140.4174         estimate D2E/DX2                !
 ! D47   D(1,5,9,8)            131.3284         estimate D2E/DX2                !
 ! D48   D(8,6,7,4)            -71.7137         estimate D2E/DX2                !
 ! D49   D(10,6,7,4)            88.6746         estimate D2E/DX2                !
 ! D50   D(7,6,8,2)            166.4152         estimate D2E/DX2                !
 ! D51   D(7,6,8,9)            -24.7181         estimate D2E/DX2                !
 ! D52   D(10,6,8,2)             0.2363         estimate D2E/DX2                !
 ! D53   D(10,6,8,9)           169.103          estimate D2E/DX2                !
 ! D54   D(2,8,9,5)            111.4333         estimate D2E/DX2                !
 ! D55   D(6,8,9,5)            -51.9302         estimate D2E/DX2                !
 ! D56   D(1,19,20,22)         178.7009         estimate D2E/DX2                !
 ! D57   D(1,19,20,23)          -1.5947         estimate D2E/DX2                !
 ! D58   D(21,19,20,22)         -0.4413         estimate D2E/DX2                !
 ! D59   D(21,19,20,23)        179.2631         estimate D2E/DX2                !
 ! D60   D(1,19,21,24)        -178.8946         estimate D2E/DX2                !
 ! D61   D(1,19,21,25)           0.2547         estimate D2E/DX2                !
 ! D62   D(20,19,21,24)          0.2343         estimate D2E/DX2                !
 ! D63   D(20,19,21,25)        179.3836         estimate D2E/DX2                !
 ! D64   D(19,20,22,26)          0.3252         estimate D2E/DX2                !
 ! D65   D(19,20,22,27)       -179.9178         estimate D2E/DX2                !
 ! D66   D(23,20,22,26)       -179.3762         estimate D2E/DX2                !
 ! D67   D(23,20,22,27)          0.3809         estimate D2E/DX2                !
 ! D68   D(19,21,24,26)          0.0906         estimate D2E/DX2                !
 ! D69   D(19,21,24,28)        179.9696         estimate D2E/DX2                !
 ! D70   D(25,21,24,26)       -179.0693         estimate D2E/DX2                !
 ! D71   D(25,21,24,28)          0.8097         estimate D2E/DX2                !
 ! D72   D(20,22,26,24)          0.0096         estimate D2E/DX2                !
 ! D73   D(20,22,26,29)        179.8274         estimate D2E/DX2                !
 ! D74   D(27,22,26,24)       -179.7462         estimate D2E/DX2                !
 ! D75   D(27,22,26,29)          0.0715         estimate D2E/DX2                !
 ! D76   D(21,24,26,22)         -0.2147         estimate D2E/DX2                !
 ! D77   D(21,24,26,29)        179.9675         estimate D2E/DX2                !
 ! D78   D(28,24,26,22)        179.9071         estimate D2E/DX2                !
 ! D79   D(28,24,26,29)          0.0893         estimate D2E/DX2                !
 ! D80   D(3,30,31,33)         178.4131         estimate D2E/DX2                !
 ! D81   D(3,30,31,34)          -1.7823         estimate D2E/DX2                !
 ! D82   D(32,30,31,33)         -0.5868         estimate D2E/DX2                !
 ! D83   D(32,30,31,34)        179.2177         estimate D2E/DX2                !
 ! D84   D(3,30,32,35)        -178.573          estimate D2E/DX2                !
 ! D85   D(3,30,32,36)           0.5137         estimate D2E/DX2                !
 ! D86   D(31,30,32,35)          0.4108         estimate D2E/DX2                !
 ! D87   D(31,30,32,36)        179.4975         estimate D2E/DX2                !
 ! D88   D(30,31,33,37)          0.3489         estimate D2E/DX2                !
 ! D89   D(30,31,33,38)       -179.8827         estimate D2E/DX2                !
 ! D90   D(34,31,33,37)       -179.4535         estimate D2E/DX2                !
 ! D91   D(34,31,33,38)          0.3148         estimate D2E/DX2                !
 ! D92   D(30,32,35,37)          0.0046         estimate D2E/DX2                !
 ! D93   D(30,32,35,39)        179.8848         estimate D2E/DX2                !
 ! D94   D(36,32,35,37)       -179.0932         estimate D2E/DX2                !
 ! D95   D(36,32,35,39)          0.7869         estimate D2E/DX2                !
 ! D96   D(31,33,37,35)          0.0805         estimate D2E/DX2                !
 ! D97   D(31,33,37,40)        179.8567         estimate D2E/DX2                !
 ! D98   D(38,33,37,35)       -179.6867         estimate D2E/DX2                !
 ! D99   D(38,33,37,40)          0.0895         estimate D2E/DX2                !
 ! D100  D(32,35,37,33)         -0.2549         estimate D2E/DX2                !
 ! D101  D(32,35,37,40)        179.9688         estimate D2E/DX2                !
 ! D102  D(39,35,37,33)        179.8658         estimate D2E/DX2                !
 ! D103  D(39,35,37,40)          0.0895         estimate D2E/DX2                !
 --------------------------------------------------------------------------------
 Trust Radius=3.00D-01 FncErr=1.00D-07 GrdErr=1.00D-06 EigMax=2.50D+02 EigMin=1.00D-04
 Number of steps in this run=    225 maximum allowed number of steps=    240.
 GradGradGradGradGradGradGradGradGradGradGradGradGradGradGradGradGradGrad

 Leave Link  103 at Fri May 17 06:33:09 2019, MaxMem=   104857600 cpu:               2.2 elap:               0.1
 (Enter /opt/software/gaussian/g16.b01/l202.exe)
                          Input orientation:                          
 ---------------------------------------------------------------------
 Center     Atomic      Atomic             Coordinates (Angstroms)
 Number     Number       Type             X           Y           Z
 ---------------------------------------------------------------------
      1          6           0        0.776443   -0.617896   -0.481270
      2          1           0        5.499657   -0.578884   -0.946130
      3          6           0        0.729559    0.632788    0.595931
      4          8           0        1.870561    1.455186    0.358982
      5          8           0        1.916591   -1.412766   -0.157349
      6          7           0        4.574878    0.412560    0.401089
      7          1           0        2.678970    0.975202    0.616465
      8          7           0        4.560010   -0.365732   -0.562521
      9          1           0        2.717398   -1.019347   -0.550507
     10          1           0        5.525345    0.730110    0.668206
     11          6           0        0.938060   -0.074332   -1.904973
     12          1           0        1.024285   -0.909893   -2.604843
     13          1           0        0.101584    0.555586   -2.209739
     14          1           0        1.843610    0.534618   -1.955718
     15          6           0        0.805225    0.084470    2.025823
     16          1           0        0.809854    0.917002    2.734302
     17          1           0       -0.026657   -0.579470    2.265841
     18          1           0        1.727289   -0.490030    2.138379
     19          6           0       -0.447297   -1.518326   -0.339607
     20          6           0       -0.390037   -2.669142    0.461373
     21          6           0       -1.659810   -1.221904   -0.980405
     22          6           0       -1.507196   -3.489974    0.624234
     23          1           0        0.541830   -2.919160    0.953530
     24          6           0       -2.777612   -2.043044   -0.823015
     25          1           0       -1.745095   -0.336304   -1.599022
     26          6           0       -2.708326   -3.181089   -0.017604
     27          1           0       -1.436268   -4.374584    1.251131
     28          1           0       -3.703822   -1.789064   -1.330705
     29          1           0       -3.577827   -3.820216    0.105764
     30          6           0       -0.494004    1.515347    0.373034
     31          6           0       -0.412397    2.638197   -0.465086
     32          6           0       -1.730346    1.228638    0.970813
     33          6           0       -1.529508    3.439039   -0.707366
     34          1           0        0.538030    2.880928   -0.924285
     35          6           0       -2.848673    2.029645    0.733475
     36          1           0       -1.833688    0.365336    1.617542
     37          6           0       -2.755260    3.138343   -0.109454
     38          1           0       -1.439689    4.301635   -1.361890
     39          1           0       -3.794104    1.783002    1.208267
     40          1           0       -3.625064    3.761816   -0.295048
 ---------------------------------------------------------------------
                    Distance matrix (angstroms):
                    1          2          3          4          5
     1  C    0.000000
     2  H    4.746195   0.000000
     3  C    1.651294   5.157513   0.000000
     4  O    2.490138   4.360172   1.426313   0.000000
     5  O    1.427123   3.762432   2.482089   2.914424   0.000000
     6  N    4.033424   1.911328   3.856545   2.898650   3.272638
     7  H    2.713410   3.579548   1.979362   0.974786   2.623433
     8  N    3.792831   1.037076   4.124489   3.376099   2.871952
     9  H    1.983246   2.844555   2.827609   2.769046   0.975010
    10  H    5.068578   2.078510   4.797318   3.738823   4.277448
    11  C    1.532486   4.688509   2.607300   2.886949   2.408966
    12  H    2.157835   4.784334   3.565345   3.885105   2.653171
    13  H    2.195473   5.658880   2.876125   3.246057   3.373569
    14  H    2.154328   3.952953   2.785976   2.491186   2.651747
    15  C    2.603778   5.595555   1.533287   2.406691   2.871078
    16  H    3.563275   6.146341   2.158670   2.656480   3.874833
    17  H    2.862353   6.391941   2.197733   3.372740   3.215967
    18  H    2.789806   4.873690   2.152982   2.640198   2.481460
    19  C    1.525904   6.051172   2.624407   3.834353   2.373252
    20  C    2.541036   6.406149   3.489175   4.704346   2.698487
    21  C    2.559158   7.188367   3.410836   4.628638   3.674846
    22  C    3.832229   7.748321   4.690527   5.994515   4.080194
    23  H    2.722042   5.802211   3.574836   4.610197   2.322336
    24  C    3.844365   8.406670   4.633976   5.936349   4.782876
    25  H    2.772511   7.278155   3.446864   4.485107   4.079845
    26  C    4.350696   8.660521   5.171183   6.527103   4.953418
    27  H    4.691482   8.206238   5.494895   6.761454   4.690186
    28  H    4.708073   9.290665   5.406677   6.667379   5.753904
    29  H    5.436831   9.696052   6.214747   7.588077   6.004471
    30  C    2.625756   6.484595   1.525025   2.365372   3.829637
    31  C    3.466373   6.747844   2.539978   2.700093   4.682861
    32  C    3.435436   7.695112   2.558653   3.659534   4.642189
    33  C    4.671964   8.099992   3.831059   4.078387   5.976465
    34  H    3.534809   6.048844   2.720638   2.335627   4.574323
    35  C    4.650435   8.906184   3.843679   4.768796   5.945713
    36  H    3.490636   7.825721   2.772265   4.061183   4.514031
    37  C    5.169188   9.091835   4.349636   4.944762   6.522352
    38  H    5.467039   8.493930   4.690324   4.692699   6.735719
    39  H    5.432195   9.828221   4.707598   5.737349   6.685049
    40  H    6.212070  10.125518   5.435752   5.995848   7.583218
                    6          7          8          9         10
     6  N    0.000000
     7  H    1.989327   0.000000
     8  N    1.238751   2.593535   0.000000
     9  H    2.531032   2.311174   1.955141   0.000000
    10  H    1.037100   2.857376   1.909825   3.525681   0.000000
    11  C    4.333755   3.238818   3.873708   2.427689   5.320861
    12  H    4.836447   4.082694   4.119289   2.664378   5.801896
    13  H    5.181432   3.847912   4.841458   3.475046   6.142492
    14  H    3.609607   2.740085   3.182838   2.270007   4.525303
    15  C    4.117971   2.508110   4.582643   3.392977   4.953737
    16  H    4.457998   2.825281   5.155397   4.263583   5.151654
    17  H    5.063156   3.529570   5.392850   3.956658   5.923864
    18  H    3.455663   2.317072   3.915944   2.913863   4.251515
    19  C    5.431316   4.111606   5.143081   3.210725   6.460929
    20  C    5.843877   4.766980   5.554910   3.660857   6.825646
    21  C    6.591762   5.118816   6.292362   4.402930   7.625925
    22  C    7.229882   6.120608   6.926779   5.033012   8.201687
    23  H    5.260326   4.455001   4.996416   3.256457   6.183365
    24  C    7.847772   6.399703   7.531396   5.596191   8.879933
    25  H    6.671079   5.118670   6.389800   4.634628   7.690049
    26  C    8.132323   6.833722   7.813570   5.864776   9.141179
    27  H    7.731313   6.779247   7.437444   5.635287   8.652269
    28  H    8.739744   7.223065   8.420623   6.514080   9.773403
    29  H    9.190768   7.899643   8.865915   6.921374  10.192622
    30  C    5.187532   3.227813   5.473279   4.194127   6.077523
    31  C    5.529614   3.673126   5.810156   4.814617   6.338922
    32  C    6.383292   4.430785   6.667961   5.210593   7.279090
    33  C    6.903027   5.053148   7.181886   6.159385   7.681240
    34  H    4.913817   3.254124   5.181505   4.483470   5.659978
    35  C    7.604903   5.628533   7.893416   6.475037   8.474505
    36  H    6.523167   4.662421   6.794594   5.227826   7.428975
    37  C    7.837185   5.893810   8.123853   6.887009   8.658681
    38  H    7.376179   5.651761   7.643278   6.800924   8.086333
    39  H    8.518774   6.550073   8.805905   7.303842   9.394274
    40  H    8.884884   6.952476   9.170803   7.946798   9.687574
                   11         12         13         14         15
    11  C    0.000000
    12  H    1.093350   0.000000
    13  H    1.090583   1.776264   0.000000
    14  H    1.092436   1.783050   1.760574   0.000000
    15  C    3.936244   4.741288   4.319380   4.139269   0.000000
    16  H    4.745740   5.647123   5.007575   4.817796   1.093194
    17  H    4.310630   4.993718   4.619049   4.749805   1.091079
    18  H    4.140578   4.813383   4.758399   4.221974   1.092209
    19  C    2.540611   2.768942   2.846010   3.474860   3.119780
    20  C    3.754527   3.807485   4.216088   4.592993   3.385046
    21  C    2.986750   3.152858   2.788053   4.038633   4.101270
    22  C    4.903343   4.846870   5.194818   5.837927   4.482008
    23  H    4.052294   4.114843   4.719528   4.699674   3.200153
    24  C    4.341967   4.348950   4.118938   5.411382   5.047664
    25  H    2.713219   3.001690   2.139782   3.710059   4.452043
    26  C    5.148809   5.077846   5.163699   6.187317   5.213877
    27  H    5.838715   5.738200   6.216847   6.718761   5.050505
    28  H    4.981682   4.975074   4.555348   6.046829   5.925193
    29  H    6.202253   6.082500   6.168246   7.253018   6.176111
    30  C    3.125252   4.129739   2.818968   3.442289   2.543053
    31  C    3.354821   4.385380   2.765006   3.425872   3.769450
    32  C    4.133796   4.994659   3.731605   4.671125   2.975111
    33  C    4.457233   5.388459   3.637566   4.622983   4.916750
    34  H    3.139321   4.175050   2.692600   2.876380   4.073660
    35  C    5.072226   5.897886   4.420337   5.611095   4.336455
    36  H    4.503777   5.255735   4.292965   5.130240   2.685040
    37  C    5.213999   6.074549   4.386729   5.598007   5.153892
    38  H    5.009762   5.897128   4.138509   5.032206   5.856682
    39  H    5.961152   6.708827   5.325946   6.584306   4.970637
    40  H    6.174949   6.984015   5.275780   6.563462   6.207800
                   16         17         18         19         20
    16  H    0.000000
    17  H    1.777255   0.000000
    18  H    1.782288   1.760844   0.000000
    19  C    4.118272   2.801205   3.453496   0.000000
    20  C    4.412071   2.784758   3.470439   1.403291   0.000000
    21  C    4.947040   3.690261   4.662070   1.403095   2.405316
    22  C    5.407638   3.654846   4.664139   2.437165   1.395827
    23  H    4.237821   2.742168   2.951246   2.147769   1.083099
    24  C    5.855450   4.387577   5.610333   2.437084   2.782475
    25  H    5.184230   4.236664   5.103846   2.160459   3.394634
    26  C    6.061759   4.378800   5.618251   2.825017   2.421977
    27  H    5.936812   4.173671   5.087736   3.415658   2.151011
    28  H    6.649838   5.283919   6.574116   3.414752   3.868753
    29  H    6.971527   5.270595   6.585280   3.911173   3.407849
    30  C    2.762906   2.861711   3.474496   3.116602   4.186712
    31  C    3.833079   4.237940   4.598053   4.158563   5.387641
    32  C    3.107994   2.801590   4.033890   3.302912   4.153149
    33  C    4.866042   5.219860   5.843165   5.087425   6.322517
    34  H    4.161268   4.740267   4.707187   4.546004   5.795225
    35  C    4.315797   4.137560   5.409431   4.416584   5.310135
    36  H    2.922294   2.139699   3.699119   3.049704   3.553718
    37  C    5.072607   5.187430   6.189595   5.202329   6.296587
    38  H    5.770180   6.243579   6.726194   5.991815   7.281332
    39  H    4.926984   4.570929   6.042976   4.949323   5.653946
    40  H    6.077699   6.193016   7.255856   6.162799   7.238425
                   21         22         23         24         25
    21  C    0.000000
    22  C    2.782499   0.000000
    23  H    3.386444   2.152388   0.000000
    24  C    1.395895   2.408753   3.865538   0.000000
    25  H    1.083627   3.865889   4.291467   2.140383   0.000000
    26  C    2.421730   1.396452   3.402238   1.395935   3.394333
    27  H    3.868994   1.086538   2.473802   3.396670   4.952419
    28  H    2.149969   3.397064   4.951808   1.086333   2.453389
    29  H    3.407312   2.159950   4.301416   2.159008   4.289854
    30  C    3.268554   5.113013   4.590728   4.394035   2.980410
    31  C    4.089251   6.319785   5.814399   5.257031   3.451022
    32  C    3.133270   4.736582   4.729409   3.875369   3.008872
    33  C    4.670751   7.055840   6.890262   5.623555   3.885195
    34  H    4.654770   6.867988   6.096493   5.937107   4.002313
    35  C    3.863075   5.681346   6.002883   4.360563   3.500877
    36  H    3.049409   3.994580   4.107543   3.556347   3.293392
    37  C    4.579336   6.784582   6.978114   5.230338   3.913108
    38  H    5.541071   8.041046   7.837568   6.506564   4.654029
    39  H    4.286602   5.777138   6.401214   4.449493   4.070721
    40  H    5.400871   7.610447   7.972289   5.890104   4.693530
                   26         27         28         29         30
    26  C    0.000000
    27  H    2.156908   0.000000
    28  H    2.157077   4.300301   0.000000
    29  H    1.086156   2.491077   2.490963   0.000000
    30  C    5.206950   6.029113   4.911699   6.168438   0.000000
    31  C    6.271812   7.291969   5.584211   7.215048   1.403530
    32  C    4.623754   5.617932   4.277630   5.445404   1.402884
    33  C    6.759547   8.055874   5.696425   7.586407   2.437237
    34  H    6.936061   7.827691   6.321970   7.931369   2.147776
    35  C    5.266457   6.578526   4.424326   5.928453   2.436983
    36  H    4.001978   4.770644   4.102560   4.779784   2.160111
    37  C    6.320274   7.748226   5.164355   7.010312   2.824923
    38  H    7.707639   9.061163   6.497991   8.525849   3.415799
    39  H    5.227224   6.593716   4.383399   5.714748   3.414662
    40  H    7.008660   8.566359   5.647217   7.592766   3.911073
                   31         32         33         34         35
    31  C    0.000000
    32  C    2.405338   0.000000
    33  C    1.395702   2.782534   0.000000
    34  H    1.083094   3.386294   2.152500   0.000000
    35  C    2.782503   1.395921   2.408861   3.865567   0.000000
    36  H    3.394599   1.083618   3.865925   4.291169   2.140489
    37  C    2.421906   2.421652   1.396562   3.402348   1.395875
    38  H    2.150956   3.869017   1.086527   2.474122   3.396723
    39  H    3.868774   2.150070   3.397132   4.951828   1.086324
    40  H    3.407736   3.407250   2.159988   4.301541   2.158949
                   36         37         38         39         40
    36  H    0.000000
    37  C    3.394316   0.000000
    38  H    4.952444   2.156982   0.000000
    39  H    2.453674   2.156974   4.300289   0.000000
    40  H    4.289884   1.086150   2.491068   2.490830   0.000000
 Stoichiometry    C16H20N2O2
 Framework group  C1[X(C16H20N2O2)]
 Deg. of freedom   114
 Full point group                 C1      NOp   1
 Largest Abelian subgroup         C1      NOp   1
 Largest concise Abelian subgroup C1      NOp   1
                         Standard orientation:                         
 ---------------------------------------------------------------------
 Center     Atomic      Atomic             Coordinates (Angstroms)
 Number     Number       Type             X           Y           Z
 ---------------------------------------------------------------------
      1          6           0       -0.776443    0.617896   -0.481270
      2          1           0       -5.499657    0.578883   -0.946130
      3          6           0       -0.729559   -0.632788    0.595931
      4          8           0       -1.870561   -1.455186    0.358982
      5          8           0       -1.916591    1.412766   -0.157349
      6          7           0       -4.574878   -0.412561    0.401089
      7          1           0       -2.678970   -0.975202    0.616465
      8          7           0       -4.560010    0.365731   -0.562521
      9          1           0       -2.717398    1.019347   -0.550507
     10          1           0       -5.525345   -0.730111    0.668206
     11          6           0       -0.938060    0.074332   -1.904973
     12          1           0       -1.024285    0.909893   -2.604843
     13          1           0       -0.101584   -0.555586   -2.209739
     14          1           0       -1.843610   -0.534618   -1.955718
     15          6           0       -0.805225   -0.084470    2.025823
     16          1           0       -0.809854   -0.917002    2.734302
     17          1           0        0.026657    0.579470    2.265841
     18          1           0       -1.727289    0.490030    2.138379
     19          6           0        0.447297    1.518326   -0.339607
     20          6           0        0.390037    2.669142    0.461373
     21          6           0        1.659810    1.221904   -0.980405
     22          6           0        1.507195    3.489974    0.624234
     23          1           0       -0.541831    2.919160    0.953530
     24          6           0        2.777612    2.043044   -0.823015
     25          1           0        1.745095    0.336304   -1.599022
     26          6           0        2.708325    3.181089   -0.017604
     27          1           0        1.436267    4.374584    1.251131
     28          1           0        3.703822    1.789065   -1.330705
     29          1           0        3.577826    3.820217    0.105764
     30          6           0        0.494004   -1.515347    0.373034
     31          6           0        0.412397   -2.638197   -0.465086
     32          6           0        1.730346   -1.228638    0.970813
     33          6           0        1.529509   -3.439039   -0.707366
     34          1           0       -0.538030   -2.880928   -0.924285
     35          6           0        2.848673   -2.029645    0.733475
     36          1           0        1.833688   -0.365336    1.617542
     37          6           0        2.755260   -3.138343   -0.109454
     38          1           0        1.439690   -4.301635   -1.361890
     39          1           0        3.794104   -1.783001    1.208267
     40          1           0        3.625065   -3.761815   -0.295048
 ---------------------------------------------------------------------
 Rotational constants (GHZ):           0.3955818           0.3163797           0.2065487
 Leave Link  202 at Fri May 17 06:33:09 2019, MaxMem=   104857600 cpu:               0.8 elap:               0.1
 (Enter /opt/software/gaussian/g16.b01/l301.exe)
 Standard basis: 6-31G(d,p) (6D, 7F)
 Ernie: Thresh=  0.10000D-02 Tol=  0.10000D-05 Strict=F.
 There are   400 symmetry adapted cartesian basis functions of A   symmetry.
 There are   400 symmetry adapted basis functions of A   symmetry.
   400 basis functions,   700 primitive gaussians,   400 cartesian basis functions
    73 alpha electrons       73 beta electrons
       nuclear repulsion energy      1595.9768542370 Hartrees.
 IExCor=  402 DFT=T Ex+Corr=B3LYP ExCW=0 ScaHFX=  0.200000
 ScaDFX=  0.800000  0.720000  1.000000  0.810000 ScalE2=  1.000000  1.000000
 IRadAn=      5 IRanWt=     -1 IRanGd=            0 ICorTp=0 IEmpDi=131
 NAtoms=   40 NActive=   40 NUniq=   40 SFac= 1.00D+00 NAtFMM=   60 NAOKFM=F Big=F
 Integral buffers will be    131072 words long.
 Raffenetti 2 integral format.
 Two-electron integral symmetry is turned on.
 R6Disp:  Grimme-D3 Dispersion energy=       -0.0481942144 Hartrees.
 Nuclear repulsion after empirical dispersion term =     1595.9286600225 Hartrees.
 ------------------------------------------------------------------------------
 Polarizable Continuum Model (PCM)
 =================================
 Model                : PCM.
 Atomic radii         : UFF (Universal Force Field).
 Polarization charges : Total charges.
 Charge compensation  : None.
 Solution method      : On-the-fly selection.
 Cavity type          : Scaled VdW (van der Waals Surface) (Alpha=1.100).
 Cavity algorithm     : GePol (No added spheres)
                        Default sphere list used, NSphG=   40.
                        Lebedev-Laikov grids with approx.  5.0 points / Ang**2.
                        Smoothing algorithm: York/Karplus (Gamma=1.0000).
                        Polarization charges: spherical gaussians, with
                                              point-specific exponents (IZeta= 3).
                        Self-potential: point-specific (ISelfS= 7).
                        Self-field    : sphere-specific E.n sum rule (ISelfD= 2).
 1st derivatives      : Analytical E(r).r(x)/FMM algorithm (CHGder, D1EAlg=3).
                        Cavity 1st derivative terms included.
 Solvent              : Acetonitrile, Eps=  35.688000 Eps(inf)=   1.806874
 ------------------------------------------------------------------------------
 GePol: Number of generator spheres                  =      40
 GePol: Total number of spheres                      =      40
 GePol: Number of exposed spheres                    =      40 (100.00%)
 GePol: Number of points                             =    2728
 GePol: Average weight of points                     =       0.13
 GePol: Minimum weight of points                     =   0.17D-09
 GePol: Maximum weight of points                     =    0.20577
 GePol: Number of points with low weight             =     190
 GePol: Fraction of low-weight points (<1% of avg)   =       6.96%
 GePol: Cavity surface area                          =    351.407 Ang**2
 GePol: Cavity volume                                =    398.432 Ang**3
 Leave Link  301 at Fri May 17 06:33:10 2019, MaxMem=   104857600 cpu:               5.0 elap:               0.2
 (Enter /opt/software/gaussian/g16.b01/l302.exe)
 NPDir=0 NMtPBC=     1 NCelOv=     1 NCel=       1 NClECP=     1 NCelD=      1
         NCelK=      1 NCelE2=     1 NClLst=     1 CellRange=     0.0.
 One-electron integrals computed using PRISM.
 One-electron integral symmetry used in STVInt
 PrsmSu:  requested number of processors reduced to:  27 ShMem   1 Linda.
 NBasis=   400 RedAO= T EigKep=  4.37D-04  NBF=   400
 NBsUse=   400 1.00D-06 EigRej= -1.00D+00 NBFU=   400
 Precomputing XC quadrature grid using
 IXCGrd= 4 IRadAn=           5 IRanWt=          -1 IRanGd=           0 AccXCQ= 0.00D+00.
 Generated NRdTot=       0 NPtTot=           0 NUsed=           0 NTot=          32
 NSgBfM=   398   398   398   398   398 MxSgAt=    40 MxSgA2=    40.
 Leave Link  302 at Fri May 17 06:33:10 2019, MaxMem=   104857600 cpu:              17.7 elap:               0.6
 (Enter /opt/software/gaussian/g16.b01/l303.exe)
 DipDrv:  MaxL=1.
 Leave Link  303 at Fri May 17 06:33:11 2019, MaxMem=   104857600 cpu:               2.4 elap:               0.1
 (Enter /opt/software/gaussian/g16.b01/l401.exe)
 ExpMin= 1.61D-01 ExpMax= 5.48D+03 ExpMxC= 8.25D+02 IAcc=3 IRadAn=         5 AccDes= 0.00D+00
 Harris functional with IExCor=  402 and IRadAn=       5 diagonalized for initial guess.
 HarFok:  IExCor=  402 AccDes= 0.00D+00 IRadAn=         5 IDoV= 1 UseB2=F ITyADJ=14
 ICtDFT=  3500011 ScaDFX=  1.000000  1.000000  1.000000  1.000000
 FoFCou: FMM=F IPFlag=           0 FMFlag=      100000 FMFlg1=           0
         NFxFlg=           0 DoJE=T BraDBF=F KetDBF=T FulRan=T
         wScrn=  0.000000 ICntrl=       500 IOpCl=  0 I1Cent=   200000004 NGrid=           0
         NMat0=    1 NMatS0=      1 NMatT0=    0 NMatD0=    1 NMtDS0=    0 NMtDT0=    0
 Petite list used in FoFCou.
 Harris En= -881.752391217258    
 JPrj=0 DoOrth=F DoCkMO=T.
 Mixing orbitals, IMix= 1 IMixAn=  0 NRI=1 NE=   73 Coef=  7.07106781D-01  7.07106781D-01
 Mixing orbitals, IMix= 1 IMixAn=  0 NRI=1 NE=   73 Coef= -7.07106781D-01  7.07106781D-01
 Initial guess <Sx>= 0.0000 <Sy>= 0.0000 <Sz>= 0.0000 <S**2>= 1.0000 S= 0.6180
 Leave Link  401 at Fri May 17 06:33:12 2019, MaxMem=   104857600 cpu:              33.5 elap:               1.1
 (Enter /opt/software/gaussian/g16.b01/l502.exe)
 Integral symmetry usage will be decided dynamically.
 UHF open shell SCF:
 Using DIIS extrapolation, IDIIS=  1040.
 NGot=   104857600 LenX=   104520454 LenY=   104360013
 Requested convergence on RMS density matrix=1.00D-08 within 128 cycles.
 Requested convergence on MAX density matrix=1.00D-06.
 Requested convergence on             energy=1.00D-06.
 No special actions if energy rises.
 Fock matrices will be formed incrementally for  20 cycles.

 Cycle   1  Pass 1  IDiag  1:
 FoFJK:  IHMeth= 1 ICntrl=       0 DoSepK=F KAlg= 0 I1Cent=           0 FoldK=F
 IRaf= 800000000 NMat=       1 IRICut=       1 DoRegI=T DoRafI=F ISym2E= 0 IDoP0=0 IntGTp=1.
 FoFCou: FMM=F IPFlag=           0 FMFlag=      100000 FMFlg1=           0
         NFxFlg=           0 DoJE=F BraDBF=F KetDBF=F FulRan=T
         wScrn=  0.000000 ICntrl=         0 IOpCl=  1 I1Cent=           0 NGrid=           0
         NMat0=    1 NMatS0=      1 NMatT0=    0 NMatD0=    1 NMtDS0=    0 NMtDT0=    0
 Symmetry not used in FoFCou.
 Inv3:  Mode=1 IEnd=    22325952.
 Iteration    1 A*A^-1 deviation from unit magnitude is 3.77D-15 for     91.
 Iteration    1 A*A^-1 deviation from orthogonality  is 1.78D-15 for   2674   1267.
 Iteration    1 A^-1*A deviation from unit magnitude is 3.77D-15 for     91.
 Iteration    1 A^-1*A deviation from orthogonality  is 2.42D-15 for   2213    264.
 E= -880.763814128072    
 DIIS: error= 4.54D-02 at cycle   1 NSaved=   1.
 NSaved= 1 IEnMin= 1 EnMin= -880.763814128072     IErMin= 1 ErrMin= 4.54D-02
 ErrMax= 4.54D-02  0.00D+00 EMaxC= 1.00D-01 BMatC= 2.75D+00 BMatP= 2.75D+00
 IDIUse=3 WtCom= 5.46D-01 WtEn= 4.54D-01
 Coeff-Com:  0.100D+01
 Coeff-En:   0.100D+01
 Coeff:      0.100D+01
 Gap=     0.018 Goal=   None    Shift=    0.000
 Gap=     0.015 Goal=   None    Shift=    0.000
 GapD=    0.015 DampG=0.250 DampE=0.500 DampFc=0.2500 IDamp=-1.
 Damping current iteration by 2.50D-01
 RMSDP=5.61D-03 MaxDP=1.99D-01              OVMax= 9.88D-01

 Cycle   2  Pass 1  IDiag  1:
 RMSU=  1.38D-03    CP:  9.85D-01
 E= -881.085084780304     Delta-E=       -0.321270652232 Rises=F Damp=T
 DIIS: error= 1.70D-02 at cycle   2 NSaved=   2.
 NSaved= 2 IEnMin= 2 EnMin= -881.085084780304     IErMin= 2 ErrMin= 1.70D-02
 ErrMax= 1.70D-02  0.00D+00 EMaxC= 1.00D-01 BMatC= 5.80D-01 BMatP= 2.75D+00
 IDIUse=3 WtCom= 8.30D-01 WtEn= 1.70D-01
 Coeff-Com: -0.454D+00 0.145D+01
 Coeff-En:   0.000D+00 0.100D+01
 Coeff:     -0.377D+00 0.138D+01
 Gap=     0.009 Goal=   None    Shift=    0.000
 Gap=     0.009 Goal=   None    Shift=    0.000
 RMSDP=2.51D-03 MaxDP=9.03D-02 DE=-3.21D-01 OVMax= 9.50D-01

 Cycle   3  Pass 1  IDiag  1:
 RMSU=  2.36D-03    CP:  9.56D-01  1.52D+00
 E= -881.621729506666     Delta-E=       -0.536644726361 Rises=F Damp=F
 DIIS: error= 2.48D-02 at cycle   3 NSaved=   3.
 NSaved= 3 IEnMin= 3 EnMin= -881.621729506666     IErMin= 2 ErrMin= 1.70D-02
 ErrMax= 2.48D-02  0.00D+00 EMaxC= 1.00D-01 BMatC= 4.01D-01 BMatP= 5.80D-01
 IDIUse=3 WtCom= 7.52D-01 WtEn= 2.48D-01
 Coeff-Com: -0.265D+00 0.784D+00 0.481D+00
 Coeff-En:   0.000D+00 0.000D+00 0.100D+01
 Coeff:     -0.200D+00 0.590D+00 0.610D+00
 Gap=     0.263 Goal=   None    Shift=    0.000
 Gap=     0.262 Goal=   None    Shift=    0.000
 RMSDP=9.93D-04 MaxDP=7.86D-02 DE=-5.37D-01 OVMax= 9.88D-02

 Cycle   4  Pass 1  IDiag  1:
 RMSU=  8.48D-04    CP:  9.62D-01  1.46D+00  7.88D-01
 E= -881.708241198581     Delta-E=       -0.086511691916 Rises=F Damp=F
 DIIS: error= 5.97D-03 at cycle   4 NSaved=   4.
 NSaved= 4 IEnMin= 4 EnMin= -881.708241198581     IErMin= 4 ErrMin= 5.97D-03
 ErrMax= 5.97D-03  0.00D+00 EMaxC= 1.00D-01 BMatC= 3.67D-02 BMatP= 4.01D-01
 IDIUse=3 WtCom= 9.40D-01 WtEn= 5.97D-02
 Coeff-Com: -0.747D-01 0.158D+00 0.247D+00 0.670D+00
 Coeff-En:   0.000D+00 0.000D+00 0.000D+00 0.100D+01
 Coeff:     -0.703D-01 0.149D+00 0.232D+00 0.690D+00
 Gap=     0.151 Goal=   None    Shift=    0.000
 Gap=     0.151 Goal=   None    Shift=    0.000
 RMSDP=2.97D-04 MaxDP=1.61D-02 DE=-8.65D-02 OVMax= 2.48D-02

 Cycle   5  Pass 1  IDiag  1:
 RMSU=  1.77D-04    CP:  9.60D-01  1.49D+00  8.41D-01  7.69D-01
 E= -881.714960812323     Delta-E=       -0.006719613741 Rises=F Damp=F
 DIIS: error= 1.80D-03 at cycle   5 NSaved=   5.
 NSaved= 5 IEnMin= 5 EnMin= -881.714960812323     IErMin= 5 ErrMin= 1.80D-03
 ErrMax= 1.80D-03  0.00D+00 EMaxC= 1.00D-01 BMatC= 6.90D-03 BMatP= 3.67D-02
 IDIUse=3 WtCom= 9.82D-01 WtEn= 1.80D-02
 Coeff-Com: -0.302D-01 0.463D-01 0.936D-01 0.413D+00 0.477D+00
 Coeff-En:   0.000D+00 0.000D+00 0.000D+00 0.132D+00 0.868D+00
 Coeff:     -0.297D-01 0.454D-01 0.919D-01 0.408D+00 0.484D+00
 Gap=     0.147 Goal=   None    Shift=    0.000
 Gap=     0.147 Goal=   None    Shift=    0.000
 RMSDP=1.40D-04 MaxDP=5.17D-03 DE=-6.72D-03 OVMax= 1.43D-02

 Cycle   6  Pass 1  IDiag  1:
 RMSU=  7.68D-05    CP:  9.60D-01  1.51D+00  8.29D-01  8.21D-01  4.15D-01
 E= -881.716626104881     Delta-E=       -0.001665292559 Rises=F Damp=F
 DIIS: error= 5.57D-04 at cycle   6 NSaved=   6.
 NSaved= 6 IEnMin= 6 EnMin= -881.716626104881     IErMin= 6 ErrMin= 5.57D-04
 ErrMax= 5.57D-04  0.00D+00 EMaxC= 1.00D-01 BMatC= 6.58D-04 BMatP= 6.90D-03
 IDIUse=3 WtCom= 9.94D-01 WtEn= 5.57D-03
 Coeff-Com: -0.924D-02 0.997D-02 0.673D-02 0.112D+00 0.277D+00 0.603D+00
 Coeff-En:   0.000D+00 0.000D+00 0.000D+00 0.000D+00 0.258D-01 0.974D+00
 Coeff:     -0.919D-02 0.991D-02 0.670D-02 0.112D+00 0.276D+00 0.605D+00
 Gap=     0.146 Goal=   None    Shift=    0.000
 Gap=     0.146 Goal=   None    Shift=    0.000
 RMSDP=4.19D-05 MaxDP=1.32D-03 DE=-1.67D-03 OVMax= 4.14D-03

 Cycle   7  Pass 1  IDiag  1:
 RMSU=  1.81D-05    CP:  9.60D-01  1.51D+00  8.27D-01  8.31D-01  5.58D-01
                    CP:  6.56D-01
 E= -881.716795170980     Delta-E=       -0.000169066099 Rises=F Damp=F
 DIIS: error= 1.23D-04 at cycle   7 NSaved=   7.
 NSaved= 7 IEnMin= 7 EnMin= -881.716795170980     IErMin= 7 ErrMin= 1.23D-04
 ErrMax= 1.23D-04  0.00D+00 EMaxC= 1.00D-01 BMatC= 3.75D-05 BMatP= 6.58D-04
 IDIUse=3 WtCom= 9.99D-01 WtEn= 1.23D-03
 Coeff-Com: -0.333D-02 0.341D-02-0.336D-02 0.289D-01 0.990D-01 0.286D+00
 Coeff-Com:  0.589D+00
 Coeff-En:   0.000D+00 0.000D+00 0.000D+00 0.000D+00 0.000D+00 0.000D+00
 Coeff-En:   0.100D+01
 Coeff:     -0.332D-02 0.341D-02-0.335D-02 0.288D-01 0.989D-01 0.286D+00
 Coeff:      0.590D+00
 Gap=     0.146 Goal=   None    Shift=    0.000
 Gap=     0.146 Goal=   None    Shift=    0.000
 RMSDP=1.06D-05 MaxDP=4.21D-04 DE=-1.69D-04 OVMax= 1.03D-03

 Cycle   8  Pass 1  IDiag  1:
 RMSU=  8.20D-06    CP:  9.60D-01  1.51D+00  8.27D-01  8.33D-01  5.56D-01
                    CP:  7.03D-01  7.34D-01
 E= -881.716803292714     Delta-E=       -0.000008121734 Rises=F Damp=F
 DIIS: error= 4.89D-05 at cycle   8 NSaved=   8.
 NSaved= 8 IEnMin= 8 EnMin= -881.716803292714     IErMin= 8 ErrMin= 4.89D-05
 ErrMax= 4.89D-05  0.00D+00 EMaxC= 1.00D-01 BMatC= 7.00D-06 BMatP= 3.75D-05
 IDIUse=1 WtCom= 1.00D+00 WtEn= 0.00D+00
 Coeff-Com: -0.407D-03 0.476D-03-0.326D-02-0.372D-02 0.239D-02 0.439D-01
 Coeff-Com:  0.327D+00 0.633D+00
 Coeff:     -0.407D-03 0.476D-03-0.326D-02-0.372D-02 0.239D-02 0.439D-01
 Coeff:      0.327D+00 0.633D+00
 Gap=     0.146 Goal=   None    Shift=    0.000
 Gap=     0.146 Goal=   None    Shift=    0.000
 RMSDP=4.30D-06 MaxDP=1.47D-04 DE=-8.12D-06 OVMax= 4.90D-04

 Cycle   9  Pass 1  IDiag  1:
 RMSU=  2.29D-06    CP:  9.60D-01  1.51D+00  8.26D-01  8.35D-01  5.58D-01
                    CP:  7.02D-01  8.45D-01  6.85D-01
 E= -881.716805040602     Delta-E=       -0.000001747887 Rises=F Damp=F
 DIIS: error= 1.24D-05 at cycle   9 NSaved=   9.
 NSaved= 9 IEnMin= 9 EnMin= -881.716805040602     IErMin= 9 ErrMin= 1.24D-05
 ErrMax= 1.24D-05  0.00D+00 EMaxC= 1.00D-01 BMatC= 5.29D-07 BMatP= 7.00D-06
 IDIUse=1 WtCom= 1.00D+00 WtEn= 0.00D+00
 Coeff-Com: -0.236D-05 0.424D-04-0.143D-02-0.332D-02-0.463D-02 0.609D-02
 Coeff-Com:  0.132D+00 0.326D+00 0.545D+00
 Coeff:     -0.236D-05 0.424D-04-0.143D-02-0.332D-02-0.463D-02 0.609D-02
 Coeff:      0.132D+00 0.326D+00 0.545D+00
 Gap=     0.146 Goal=   None    Shift=    0.000
 Gap=     0.146 Goal=   None    Shift=    0.000
 RMSDP=1.20D-06 MaxDP=5.07D-05 DE=-1.75D-06 OVMax= 1.37D-04

 Cycle  10  Pass 1  IDiag  1:
 RMSU=  7.57D-07    CP:  9.60D-01  1.51D+00  8.26D-01  8.35D-01  5.58D-01
                    CP:  7.05D-01  8.45D-01  7.47D-01  6.94D-01
 E= -881.716805175400     Delta-E=       -0.000000134798 Rises=F Damp=F
 DIIS: error= 3.53D-06 at cycle  10 NSaved=  10.
 NSaved=10 IEnMin=10 EnMin= -881.716805175400     IErMin=10 ErrMin= 3.53D-06
 ErrMax= 3.53D-06  0.00D+00 EMaxC= 1.00D-01 BMatC= 5.04D-08 BMatP= 5.29D-07
 IDIUse=1 WtCom= 1.00D+00 WtEn= 0.00D+00
 Coeff-Com:  0.537D-04-0.546D-04-0.206D-03-0.813D-03-0.198D-02-0.126D-02
 Coeff-Com:  0.202D-01 0.679D-01 0.256D+00 0.661D+00
 Coeff:      0.537D-04-0.546D-04-0.206D-03-0.813D-03-0.198D-02-0.126D-02
 Coeff:      0.202D-01 0.679D-01 0.256D+00 0.661D+00
 Gap=     0.146 Goal=   None    Shift=    0.000
 Gap=     0.146 Goal=   None    Shift=    0.000
 RMSDP=3.69D-07 MaxDP=2.26D-05 DE=-1.35D-07 OVMax= 4.61D-05

 Cycle  11  Pass 1  IDiag  1:
 RMSU=  2.96D-07    CP:  9.60D-01  1.51D+00  8.26D-01  8.35D-01  5.58D-01
                    CP:  7.05D-01  8.48D-01  7.48D-01  7.67D-01  8.43D-01
 E= -881.716805192095     Delta-E=       -0.000000016695 Rises=F Damp=F
 DIIS: error= 2.64D-06 at cycle  11 NSaved=  11.
 NSaved=11 IEnMin=11 EnMin= -881.716805192095     IErMin=11 ErrMin= 2.64D-06
 ErrMax= 2.64D-06  0.00D+00 EMaxC= 1.00D-01 BMatC= 6.77D-09 BMatP= 5.04D-08
 IDIUse=1 WtCom= 1.00D+00 WtEn= 0.00D+00
 Coeff-Com:  0.267D-04-0.361D-04 0.293D-04-0.522D-04-0.320D-03-0.389D-03
 Coeff-Com: -0.602D-03 0.397D-02 0.628D-01 0.281D+00 0.653D+00
 Coeff:      0.267D-04-0.361D-04 0.293D-04-0.522D-04-0.320D-03-0.389D-03
 Coeff:     -0.602D-03 0.397D-02 0.628D-01 0.281D+00 0.653D+00
 Gap=     0.146 Goal=   None    Shift=    0.000
 Gap=     0.146 Goal=   None    Shift=    0.000
 RMSDP=1.77D-07 MaxDP=8.20D-06 DE=-1.67D-08 OVMax= 3.05D-05

 Cycle  12  Pass 1  IDiag  1:
 RMSU=  1.34D-07    CP:  9.60D-01  1.51D+00  8.26D-01  8.35D-01  5.58D-01
                    CP:  7.05D-01  8.48D-01  7.48D-01  7.83D-01  9.60D-01
                    CP:  1.18D+00
 E= -881.716805195781     Delta-E=       -0.000000003686 Rises=F Damp=F
 DIIS: error= 2.36D-06 at cycle  12 NSaved=  12.
 NSaved=12 IEnMin=12 EnMin= -881.716805195781     IErMin=12 ErrMin= 2.36D-06
 ErrMax= 2.36D-06  0.00D+00 EMaxC= 1.00D-01 BMatC= 2.24D-09 BMatP= 6.77D-09
 IDIUse=1 WtCom= 1.00D+00 WtEn= 0.00D+00
 Coeff-Com: -0.899D-06-0.487D-05 0.800D-04 0.216D-03 0.482D-03 0.336D-03
 Coeff-Com: -0.621D-02-0.190D-01-0.515D-01-0.789D-01 0.307D+00 0.847D+00
 Coeff:     -0.899D-06-0.487D-05 0.800D-04 0.216D-03 0.482D-03 0.336D-03
 Coeff:     -0.621D-02-0.190D-01-0.515D-01-0.789D-01 0.307D+00 0.847D+00
 Gap=     0.146 Goal=   None    Shift=    0.000
 Gap=     0.146 Goal=   None    Shift=    0.000
 RMSDP=1.78D-07 MaxDP=9.05D-06 DE=-3.69D-09 OVMax= 3.68D-05

 Cycle  13  Pass 1  IDiag  1:
 RMSU=  7.77D-08    CP:  9.60D-01  1.51D+00  8.26D-01  8.35D-01  5.58D-01
                    CP:  7.05D-01  8.48D-01  7.49D-01  7.98D-01  1.06D+00
                    CP:  1.61D+00  1.37D+00
 E= -881.716805198063     Delta-E=       -0.000000002282 Rises=F Damp=F
 DIIS: error= 2.40D-06 at cycle  13 NSaved=  13.
 NSaved=13 IEnMin=13 EnMin= -881.716805198063     IErMin=12 ErrMin= 2.36D-06
 ErrMax= 2.40D-06  0.00D+00 EMaxC= 1.00D-01 BMatC= 1.29D-09 BMatP= 2.24D-09
 IDIUse=1 WtCom= 1.00D+00 WtEn= 0.00D+00
 Coeff-Com: -0.109D-04 0.117D-04 0.452D-04 0.159D-03 0.419D-03 0.255D-03
 Coeff-Com: -0.426D-02-0.147D-01-0.577D-01-0.156D+00-0.243D-01 0.596D+00
 Coeff-Com:  0.661D+00
 Coeff:     -0.109D-04 0.117D-04 0.452D-04 0.159D-03 0.419D-03 0.255D-03
 Coeff:     -0.426D-02-0.147D-01-0.577D-01-0.156D+00-0.243D-01 0.596D+00
 Coeff:      0.661D+00
 Gap=     0.146 Goal=   None    Shift=    0.000
 Gap=     0.146 Goal=   None    Shift=    0.000
 RMSDP=1.26D-07 MaxDP=5.95D-06 DE=-2.28D-09 OVMax= 2.72D-05

 Cycle  14  Pass 1  IDiag  1:
 RMSU=  4.62D-08    CP:  9.60D-01  1.51D+00  8.26D-01  8.35D-01  5.58D-01
                    CP:  7.05D-01  8.48D-01  7.49D-01  8.08D-01  1.11D+00
                    CP:  1.91D+00  1.79D+00  1.15D+00
 E= -881.716805199130     Delta-E=       -0.000000001067 Rises=F Damp=F
 DIIS: error= 1.02D-06 at cycle  14 NSaved=  14.
 NSaved=14 IEnMin=14 EnMin= -881.716805199130     IErMin=14 ErrMin= 1.02D-06
 ErrMax= 1.02D-06  0.00D+00 EMaxC= 1.00D-01 BMatC= 3.83D-10 BMatP= 1.29D-09
 IDIUse=1 WtCom= 1.00D+00 WtEn= 0.00D+00
 Coeff-Com: -0.772D-05 0.120D-04-0.504D-05 0.548D-05 0.261D-04-0.144D-03
 Coeff-Com: -0.467D-03-0.165D-02-0.140D-01-0.633D-01-0.139D+00 0.113D-01
 Coeff-Com:  0.404D+00 0.803D+00
 Coeff:     -0.772D-05 0.120D-04-0.504D-05 0.548D-05 0.261D-04-0.144D-03
 Coeff:     -0.467D-03-0.165D-02-0.140D-01-0.633D-01-0.139D+00 0.113D-01
 Coeff:      0.404D+00 0.803D+00
 Gap=     0.146 Goal=   None    Shift=    0.000
 Gap=     0.146 Goal=   None    Shift=    0.000
 RMSDP=9.53D-08 MaxDP=3.84D-06 DE=-1.07D-09 OVMax= 2.12D-05

 Cycle  15  Pass 1  IDiag  1:
 RMSU=  2.94D-08    CP:  9.60D-01  1.51D+00  8.26D-01  8.35D-01  5.58D-01
                    CP:  7.05D-01  8.49D-01  7.51D-01  8.13D-01  1.16D+00
                    CP:  2.12D+00  2.13D+00  1.51D+00  1.21D+00
 E= -881.716805199557     Delta-E=       -0.000000000427 Rises=F Damp=F
 DIIS: error= 3.32D-07 at cycle  15 NSaved=  15.
 NSaved=15 IEnMin=15 EnMin= -881.716805199557     IErMin=15 ErrMin= 3.32D-07
 ErrMax= 3.32D-07  0.00D+00 EMaxC= 1.00D-01 BMatC= 5.36D-11 BMatP= 3.83D-10
 IDIUse=1 WtCom= 1.00D+00 WtEn= 0.00D+00
 Coeff-Com:  0.941D-06-0.571D-06-0.128D-04-0.372D-04-0.113D-03-0.161D-03
 Coeff-Com:  0.697D-03 0.302D-02 0.127D-01 0.326D-01-0.940D-02-0.166D+00
 Coeff-Com: -0.132D+00 0.132D+00 0.113D+01
 Coeff:      0.941D-06-0.571D-06-0.128D-04-0.372D-04-0.113D-03-0.161D-03
 Coeff:      0.697D-03 0.302D-02 0.127D-01 0.326D-01-0.940D-02-0.166D+00
 Coeff:     -0.132D+00 0.132D+00 0.113D+01
 Gap=     0.146 Goal=   None    Shift=    0.000
 Gap=     0.146 Goal=   None    Shift=    0.000
 RMSDP=5.62D-08 MaxDP=2.28D-06 DE=-4.27D-10 OVMax= 1.28D-05

 Cycle  16  Pass 1  IDiag  1:
 RMSU=  1.32D-08    CP:  9.60D-01  1.51D+00  8.26D-01  8.35D-01  5.58D-01
                    CP:  7.05D-01  8.49D-01  7.51D-01  8.18D-01  1.18D+00
                    CP:  2.23D+00  2.30D+00  1.79D+00  1.63D+00  1.32D+00
 E= -881.716805199651     Delta-E=       -0.000000000094 Rises=F Damp=F
 DIIS: error= 1.01D-07 at cycle  16 NSaved=  16.
 NSaved=16 IEnMin=16 EnMin= -881.716805199651     IErMin=16 ErrMin= 1.01D-07
 ErrMax= 1.01D-07  0.00D+00 EMaxC= 1.00D-01 BMatC= 1.43D-11 BMatP= 5.36D-11
 IDIUse=1 WtCom= 1.00D+00 WtEn= 0.00D+00
 Coeff-Com:  0.180D-05-0.229D-05-0.504D-05-0.162D-04-0.483D-04-0.233D-04
 Coeff-Com:  0.450D-03 0.170D-02 0.799D-02 0.247D-01 0.165D-01-0.764D-01
 Coeff-Com: -0.122D+00-0.684D-01 0.508D+00 0.707D+00
 Coeff:      0.180D-05-0.229D-05-0.504D-05-0.162D-04-0.483D-04-0.233D-04
 Coeff:      0.450D-03 0.170D-02 0.799D-02 0.247D-01 0.165D-01-0.764D-01
 Coeff:     -0.122D+00-0.684D-01 0.508D+00 0.707D+00
 Gap=     0.146 Goal=   None    Shift=    0.000
 Gap=     0.146 Goal=   None    Shift=    0.000
 RMSDP=1.54D-08 MaxDP=6.86D-07 DE=-9.37D-11 OVMax= 3.27D-06

 Cycle  17  Pass 1  IDiag  1:
 RMSU=  5.70D-09    CP:  9.60D-01  1.51D+00  8.26D-01  8.35D-01  5.58D-01
                    CP:  7.05D-01  8.49D-01  7.51D-01  8.18D-01  1.19D+00
                    CP:  2.26D+00  2.35D+00  1.85D+00  1.75D+00  1.53D+00
                    CP:  9.69D-01
 E= -881.716805199659     Delta-E=       -0.000000000008 Rises=F Damp=F
 DIIS: error= 4.14D-08 at cycle  17 NSaved=  17.
 NSaved=17 IEnMin=17 EnMin= -881.716805199659     IErMin=17 ErrMin= 4.14D-08
 ErrMax= 4.14D-08  0.00D+00 EMaxC= 1.00D-01 BMatC= 3.76D-12 BMatP= 1.43D-11
 IDIUse=1 WtCom= 1.00D+00 WtEn= 0.00D+00
 Coeff-Com:  0.646D-06-0.110D-05 0.125D-05 0.325D-05 0.137D-04 0.567D-04
 Coeff-Com:  0.885D-04 0.323D-04-0.435D-04 0.137D-02 0.802D-02 0.122D-01
 Coeff-Com: -0.155D-01-0.661D-01-0.873D-01 0.337D+00 0.811D+00
 Coeff:      0.646D-06-0.110D-05 0.125D-05 0.325D-05 0.137D-04 0.567D-04
 Coeff:      0.885D-04 0.323D-04-0.435D-04 0.137D-02 0.802D-02 0.122D-01
 Coeff:     -0.155D-01-0.661D-01-0.873D-01 0.337D+00 0.811D+00
 Gap=     0.146 Goal=   None    Shift=    0.000
 Gap=     0.146 Goal=   None    Shift=    0.000
 RMSDP=7.04D-09 MaxDP=3.36D-07 DE=-8.41D-12 OVMax= 1.52D-06

 Error on total polarization charges =  0.00987
 SCF Done:  E(UB3LYP) =  -881.716805200     A.U. after   17 cycles
            NFock= 17  Conv=0.70D-08     -V/T= 2.0096
 <Sx>= 0.0000 <Sy>= 0.0000 <Sz>= 0.0000 <S**2>= 0.0000 S= 0.0000
 <L.S>=  0.00000000000    
 KE= 8.733415980538D+02 PE=-5.243992978408D+03 EE= 1.893005915132D+03
 Annihilation of the first spin contaminant:
 S**2 before annihilation     0.0000,   after     0.0000
 Leave Link  502 at Fri May 17 06:34:06 2019, MaxMem=   104857600 cpu:            1689.2 elap:              53.9
 (Enter /opt/software/gaussian/g16.b01/l601.exe)
 Copying SCF densities to generalized density rwf, IOpCl= 1 IROHF=0.

 **********************************************************************

            Population analysis using the SCF Density.

 **********************************************************************

 Orbital symmetries:
 Alpha Orbitals:
       Occupied  (A) (A) (A) (A) (A) (A) (A) (A) (A) (A) (A) (A)
                 (A) (A) (A) (A) (A) (A) (A) (A) (A) (A) (A) (A)
                 (A) (A) (A) (A) (A) (A) (A) (A) (A) (A) (A) (A)
                 (A) (A) (A) (A) (A) (A) (A) (A) (A) (A) (A) (A)
                 (A) (A) (A) (A) (A) (A) (A) (A) (A) (A) (A) (A)
                 (A) (A) (A) (A) (A) (A) (A) (A) (A) (A) (A) (A)
                 (A)
       Virtual   (A) (A) (A) (A) (A) (A) (A) (A) (A) (A) (A) (A)
                 (A) (A) (A) (A) (A) (A) (A) (A) (A) (A) (A) (A)
                 (A) (A) (A) (A) (A) (A) (A) (A) (A) (A) (A) (A)
                 (A) (A) (A) (A) (A) (A) (A) (A) (A) (A) (A) (A)
                 (A) (A) (A) (A) (A) (A) (A) (A) (A) (A) (A) (A)
                 (A) (A) (A) (A) (A) (A) (A) (A) (A) (A) (A) (A)
                 (A) (A) (A) (A) (A) (A) (A) (A) (A) (A) (A) (A)
                 (A) (A) (A) (A) (A) (A) (A) (A) (A) (A) (A) (A)
                 (A) (A) (A) (A) (A) (A) (A) (A) (A) (A) (A) (A)
                 (A) (A) (A) (A) (A) (A) (A) (A) (A) (A) (A) (A)
                 (A) (A) (A) (A) (A) (A) (A) (A) (A) (A) (A) (A)
                 (A) (A) (A) (A) (A) (A) (A) (A) (A) (A) (A) (A)
                 (A) (A) (A) (A) (A) (A) (A) (A) (A) (A) (A) (A)
                 (A) (A) (A) (A) (A) (A) (A) (A) (A) (A) (A) (A)
                 (A) (A) (A) (A) (A) (A) (A) (A) (A) (A) (A) (A)
                 (A) (A) (A) (A) (A) (A) (A) (A) (A) (A) (A) (A)
                 (A) (A) (A) (A) (A) (A) (A) (A) (A) (A) (A) (A)
                 (A) (A) (A) (A) (A) (A) (A) (A) (A) (A) (A) (A)
                 (A) (A) (A) (A) (A) (A) (A) (A) (A) (A) (A) (A)
                 (A) (A) (A) (A) (A) (A) (A) (A) (A) (A) (A) (A)
                 (A) (A) (A) (A) (A) (A) (A) (A) (A) (A) (A) (A)
                 (A) (A) (A) (A) (A) (A) (A) (A) (A) (A) (A) (A)
                 (A) (A) (A) (A) (A) (A) (A) (A) (A) (A) (A) (A)
                 (A) (A) (A) (A) (A) (A) (A) (A) (A) (A) (A) (A)
                 (A) (A) (A) (A) (A) (A) (A) (A) (A) (A) (A) (A)
                 (A) (A) (A) (A) (A) (A) (A) (A) (A) (A) (A) (A)
                 (A) (A) (A) (A) (A) (A) (A) (A) (A) (A) (A) (A)
                 (A) (A) (A)
 Beta  Orbitals:
       Occupied  (A) (A) (A) (A) (A) (A) (A) (A) (A) (A) (A) (A)
                 (A) (A) (A) (A) (A) (A) (A) (A) (A) (A) (A) (A)
                 (A) (A) (A) (A) (A) (A) (A) (A) (A) (A) (A) (A)
                 (A) (A) (A) (A) (A) (A) (A) (A) (A) (A) (A) (A)
                 (A) (A) (A) (A) (A) (A) (A) (A) (A) (A) (A) (A)
                 (A) (A) (A) (A) (A) (A) (A) (A) (A) (A) (A) (A)
                 (A)
       Virtual   (A) (A) (A) (A) (A) (A) (A) (A) (A) (A) (A) (A)
                 (A) (A) (A) (A) (A) (A) (A) (A) (A) (A) (A) (A)
                 (A) (A) (A) (A) (A) (A) (A) (A) (A) (A) (A) (A)
                 (A) (A) (A) (A) (A) (A) (A) (A) (A) (A) (A) (A)
                 (A) (A) (A) (A) (A) (A) (A) (A) (A) (A) (A) (A)
                 (A) (A) (A) (A) (A) (A) (A) (A) (A) (A) (A) (A)
                 (A) (A) (A) (A) (A) (A) (A) (A) (A) (A) (A) (A)
                 (A) (A) (A) (A) (A) (A) (A) (A) (A) (A) (A) (A)
                 (A) (A) (A) (A) (A) (A) (A) (A) (A) (A) (A) (A)
                 (A) (A) (A) (A) (A) (A) (A) (A) (A) (A) (A) (A)
                 (A) (A) (A) (A) (A) (A) (A) (A) (A) (A) (A) (A)
                 (A) (A) (A) (A) (A) (A) (A) (A) (A) (A) (A) (A)
                 (A) (A) (A) (A) (A) (A) (A) (A) (A) (A) (A) (A)
                 (A) (A) (A) (A) (A) (A) (A) (A) (A) (A) (A) (A)
                 (A) (A) (A) (A) (A) (A) (A) (A) (A) (A) (A) (A)
                 (A) (A) (A) (A) (A) (A) (A) (A) (A) (A) (A) (A)
                 (A) (A) (A) (A) (A) (A) (A) (A) (A) (A) (A) (A)
                 (A) (A) (A) (A) (A) (A) (A) (A) (A) (A) (A) (A)
                 (A) (A) (A) (A) (A) (A) (A) (A) (A) (A) (A) (A)
                 (A) (A) (A) (A) (A) (A) (A) (A) (A) (A) (A) (A)
                 (A) (A) (A) (A) (A) (A) (A) (A) (A) (A) (A) (A)
                 (A) (A) (A) (A) (A) (A) (A) (A) (A) (A) (A) (A)
                 (A) (A) (A) (A) (A) (A) (A) (A) (A) (A) (A) (A)
                 (A) (A) (A) (A) (A) (A) (A) (A) (A) (A) (A) (A)
                 (A) (A) (A) (A) (A) (A) (A) (A) (A) (A) (A) (A)
                 (A) (A) (A) (A) (A) (A) (A) (A) (A) (A) (A) (A)
                 (A) (A) (A) (A) (A) (A) (A) (A) (A) (A) (A) (A)
                 (A) (A) (A)
 The electronic state is 1-A.
 Alpha  occ. eigenvalues --  -19.13236 -19.13174 -14.42227 -14.42171 -10.24276
 Alpha  occ. eigenvalues --  -10.24177 -10.19002 -10.19000 -10.18624 -10.18610
 Alpha  occ. eigenvalues --  -10.18585 -10.18572 -10.18545 -10.18529 -10.18425
 Alpha  occ. eigenvalues --  -10.18419 -10.18156 -10.18143 -10.16868 -10.16690
 Alpha  occ. eigenvalues --   -1.05878  -1.02041  -0.99859  -0.85236  -0.84640
 Alpha  occ. eigenvalues --   -0.78297  -0.75366  -0.73948  -0.73911  -0.71576
 Alpha  occ. eigenvalues --   -0.71457  -0.70603  -0.63892  -0.62195  -0.59983
 Alpha  occ. eigenvalues --   -0.59364  -0.58858  -0.57523  -0.55658  -0.51344
 Alpha  occ. eigenvalues --   -0.50192  -0.50041  -0.47003  -0.46549  -0.44437
 Alpha  occ. eigenvalues --   -0.44113  -0.43855  -0.43600  -0.42506  -0.42186
 Alpha  occ. eigenvalues --   -0.41598  -0.41335  -0.41073  -0.40042  -0.39561
 Alpha  occ. eigenvalues --   -0.37595  -0.37166  -0.36379  -0.35763  -0.35104
 Alpha  occ. eigenvalues --   -0.34869  -0.34383  -0.33453  -0.33222  -0.32635
 Alpha  occ. eigenvalues --   -0.30228  -0.28559  -0.27329  -0.26509  -0.25020
 Alpha  occ. eigenvalues --   -0.24318  -0.23578  -0.22559
 Alpha virt. eigenvalues --   -0.08000  -0.00385  -0.00104   0.00007   0.00891
 Alpha virt. eigenvalues --    0.05765   0.09674   0.10012   0.12246   0.12723
 Alpha virt. eigenvalues --    0.13392   0.14108   0.14544   0.14819   0.14850
 Alpha virt. eigenvalues --    0.15895   0.16303   0.16869   0.17190   0.17961
 Alpha virt. eigenvalues --    0.18277   0.18464   0.20061   0.20184   0.20390
 Alpha virt. eigenvalues --    0.22953   0.23593   0.24210   0.25223   0.26304
 Alpha virt. eigenvalues --    0.26934   0.27790   0.28007   0.29303   0.30954
 Alpha virt. eigenvalues --    0.31064   0.32394   0.33558   0.34344   0.35400
 Alpha virt. eigenvalues --    0.35791   0.36132   0.37241   0.46288   0.47479
 Alpha virt. eigenvalues --    0.48978   0.51170   0.52832   0.53312   0.53793
 Alpha virt. eigenvalues --    0.54009   0.55326   0.55569   0.55674   0.56140
 Alpha virt. eigenvalues --    0.57269   0.57945   0.58206   0.58829   0.59380
 Alpha virt. eigenvalues --    0.59688   0.60420   0.60853   0.61000   0.61372
 Alpha virt. eigenvalues --    0.61412   0.61699   0.62425   0.63263   0.63797
 Alpha virt. eigenvalues --    0.64125   0.64394   0.66301   0.66751   0.67102
 Alpha virt. eigenvalues --    0.69607   0.70165   0.71745   0.72580   0.73412
 Alpha virt. eigenvalues --    0.75430   0.76038   0.76945   0.78227   0.79396
 Alpha virt. eigenvalues --    0.79911   0.81632   0.81961   0.82621   0.82842
 Alpha virt. eigenvalues --    0.82985   0.83035   0.83576   0.84141   0.84867
 Alpha virt. eigenvalues --    0.85094   0.85915   0.86722   0.88226   0.88453
 Alpha virt. eigenvalues --    0.89707   0.90027   0.91042   0.91740   0.92260
 Alpha virt. eigenvalues --    0.93636   0.93943   0.96345   0.96492   0.97857
 Alpha virt. eigenvalues --    0.99142   1.00036   1.00515   1.02199   1.02594
 Alpha virt. eigenvalues --    1.04012   1.06615   1.07028   1.07282   1.09968
 Alpha virt. eigenvalues --    1.12357   1.12883   1.13696   1.14634   1.15840
 Alpha virt. eigenvalues --    1.19209   1.19857   1.20202   1.20688   1.22172
 Alpha virt. eigenvalues --    1.24441   1.24956   1.26982   1.27379   1.28995
 Alpha virt. eigenvalues --    1.29289   1.32322   1.34159   1.34821   1.35717
 Alpha virt. eigenvalues --    1.36757   1.37568   1.40475   1.41139   1.41480
 Alpha virt. eigenvalues --    1.41581   1.42323   1.42947   1.43198   1.43914
 Alpha virt. eigenvalues --    1.46686   1.47651   1.47829   1.49323   1.50382
 Alpha virt. eigenvalues --    1.52259   1.54247   1.60323   1.61061   1.62541
[...]
    24  C(13)              0.00000       0.00005       0.00002       0.00002
    25  H(1)               0.00000       0.00015       0.00005       0.00005
    26  C(13)             -0.00000      -0.00001      -0.00000      -0.00000
    27  H(1)               0.00000       0.00000       0.00000       0.00000
    28  H(1)              -0.00000      -0.00001      -0.00000      -0.00000
    29  H(1)              -0.00000      -0.00000      -0.00000      -0.00000
    30  C(13)             -0.00000      -0.00004      -0.00002      -0.00001
    31  C(13)             -0.00000      -0.00007      -0.00003      -0.00002
    32  C(13)              0.00000       0.00013       0.00005       0.00004
    33  C(13)              0.00000       0.00001       0.00000       0.00000
    34  H(1)               0.00000       0.00009       0.00003       0.00003
    35  C(13)             -0.00000      -0.00004      -0.00001      -0.00001
    36  H(1)              -0.00000      -0.00012      -0.00004      -0.00004
    37  C(13)              0.00000       0.00001       0.00000       0.00000
    38  H(1)              -0.00000      -0.00000      -0.00000      -0.00000
    39  H(1)               0.00000       0.00000       0.00000       0.00000
    40  H(1)              -0.00000      -0.00000      -0.00000      -0.00000
 --------------------------------------------------------
       Center         ----  Spin Dipole Couplings  ----
                      3XX-RR        3YY-RR        3ZZ-RR
 --------------------------------------------------------
     1   Atom       -0.000000      0.000000      0.000000
     2   Atom       -0.000000      0.000000     -0.000000
     3   Atom        0.000000     -0.000000     -0.000000
     4   Atom       -0.000000      0.000000     -0.000000
     5   Atom        0.000000     -0.000000      0.000000
     6   Atom       -0.000000     -0.000000      0.000001
     7   Atom       -0.000000      0.000000      0.000000
     8   Atom       -0.000000      0.000001     -0.000000
     9   Atom        0.000000     -0.000000     -0.000000
    10   Atom        0.000000     -0.000000      0.000000
    11   Atom        0.000000     -0.000000     -0.000000
    12   Atom       -0.000000      0.000000      0.000000
    13   Atom        0.000000     -0.000000     -0.000000
    14   Atom       -0.000000      0.000000      0.000000
    15   Atom        0.000000      0.000000     -0.000000
    16   Atom        0.000000      0.000000     -0.000000
    17   Atom       -0.000000      0.000000      0.000000
    18   Atom        0.000000     -0.000000     -0.000000
    19   Atom       -0.000000     -0.000000      0.000000
    20   Atom       -0.000000     -0.000000      0.000000
    21   Atom        0.000000      0.000000     -0.000000
    22   Atom       -0.000000     -0.000000      0.000000
    23   Atom        0.000000     -0.000000     -0.000000
    24   Atom       -0.000000      0.000000      0.000000
    25   Atom        0.000000     -0.000000     -0.000000
    26   Atom        0.000000     -0.000000     -0.000000
    27   Atom       -0.000000      0.000000     -0.000000
    28   Atom        0.000000     -0.000000      0.000000
    29   Atom       -0.000000      0.000000      0.000000
    30   Atom        0.000000      0.000000     -0.000000
    31   Atom        0.000000      0.000000     -0.000000
    32   Atom       -0.000000     -0.000000      0.000000
    33   Atom        0.000000      0.000000     -0.000000
    34   Atom       -0.000000      0.000000      0.000000
    35   Atom        0.000000     -0.000000     -0.000000
    36   Atom       -0.000000      0.000000      0.000000
    37   Atom       -0.000000      0.000000      0.000000
    38   Atom        0.000000     -0.000000      0.000000
    39   Atom       -0.000000      0.000000     -0.000000
    40   Atom        0.000000     -0.000000     -0.000000
 --------------------------------------------------------
                        XY            XZ            YZ
 --------------------------------------------------------
     1   Atom       -0.000000      0.000000      0.000000
     2   Atom       -0.000000     -0.000000     -0.000000
     3   Atom       -0.000000      0.000000     -0.000000
     4   Atom       -0.000000      0.000000     -0.000000
     5   Atom       -0.000000      0.000000     -0.000000
     6   Atom        0.000002      0.000001      0.000001
     7   Atom       -0.000000     -0.000000      0.000000
     8   Atom        0.000002      0.000001     -0.000000
     9   Atom       -0.000000     -0.000000     -0.000000
    10   Atom       -0.000000     -0.000000      0.000000
    11   Atom       -0.000000      0.000000      0.000000
    12   Atom       -0.000000     -0.000000      0.000000
    13   Atom       -0.000000     -0.000000      0.000000
    14   Atom        0.000000      0.000000      0.000000
    15   Atom       -0.000000      0.000000     -0.000000
    16   Atom       -0.000000     -0.000000     -0.000000
    17   Atom       -0.000000     -0.000000     -0.000000
    18   Atom        0.000000      0.000000     -0.000000
    19   Atom       -0.000000      0.000000     -0.000000
    20   Atom       -0.000000     -0.000000     -0.000000
    21   Atom        0.000000     -0.000000      0.000000
    22   Atom       -0.000000      0.000000     -0.000000
    23   Atom       -0.000000     -0.000000      0.000000
    24   Atom       -0.000000      0.000000     -0.000000
    25   Atom        0.000000     -0.000000     -0.000000
    26   Atom        0.000000     -0.000000      0.000000
    27   Atom        0.000000      0.000000     -0.000000
    28   Atom       -0.000000     -0.000000     -0.000000
    29   Atom       -0.000000     -0.000000      0.000000
    30   Atom       -0.000000      0.000000      0.000000
    31   Atom       -0.000000     -0.000000      0.000000
    32   Atom        0.000000     -0.000000     -0.000000
    33   Atom       -0.000000      0.000000      0.000000
    34   Atom       -0.000000     -0.000000     -0.000000
    35   Atom       -0.000000      0.000000      0.000000
    36   Atom        0.000000     -0.000000      0.000000
    37   Atom        0.000000     -0.000000     -0.000000
    38   Atom        0.000000      0.000000     -0.000000
    39   Atom       -0.000000     -0.000000      0.000000
    40   Atom       -0.000000     -0.000000     -0.000000
 --------------------------------------------------------


 ---------------------------------------------------------------------------------
              Anisotropic Spin Dipole Couplings in Principal Axis System
 ---------------------------------------------------------------------------------

       Atom             a.u.   MegaHertz   Gauss  10(-4) cm-1        Axes

              Baa    -0.0000    -0.000    -0.000    -0.000  0.8175  0.4535 -0.3549
     1 C(13)  Bbb     0.0000     0.000     0.000     0.000 -0.5586  0.7745 -0.2970
              Bcc     0.0000     0.000     0.000     0.000  0.1401  0.4410  0.8865
 
              Baa    -0.0000    -0.000    -0.000    -0.000  0.6462  0.2040  0.7354
     2 H(1)   Bbb     0.0000     0.000     0.000     0.000  0.7441  0.0454 -0.6665
              Bcc     0.0000     0.000     0.000     0.000 -0.1694  0.9779 -0.1225
 
              Baa    -0.0000    -0.000    -0.000    -0.000 -0.0933  0.2877  0.9532
     3 C(13)  Bbb    -0.0000    -0.000    -0.000    -0.000  0.5051  0.8387 -0.2037
              Bcc     0.0000     0.000     0.000     0.000  0.8580 -0.4625  0.2236
 
              Baa    -0.0000     0.000     0.000     0.000  0.9103  0.1537 -0.3845
     4 O(17)  Bbb     0.0000    -0.000    -0.000    -0.000  0.3345  0.2743  0.9016
              Bcc     0.0000    -0.000    -0.000    -0.000 -0.2441  0.9493 -0.1982
 
              Baa    -0.0000     0.000     0.000     0.000  0.3510  0.9363 -0.0105
     5 O(17)  Bbb    -0.0000     0.000     0.000     0.000 -0.5880  0.2291  0.7757
              Bcc     0.0000    -0.000    -0.000    -0.000  0.7287 -0.2661  0.6310
 
              Baa    -0.0000    -0.000    -0.000    -0.000  0.7572 -0.6218 -0.1999
     6 N(14)  Bbb    -0.0000    -0.000    -0.000    -0.000 -0.3033 -0.6058  0.7355
              Bcc     0.0000     0.000     0.000     0.000  0.5785  0.4964  0.6473
 
              Baa    -0.0000    -0.000    -0.000    -0.000  0.8895  0.0604  0.4530
     7 H(1)   Bbb     0.0000     0.000     0.000     0.000  0.2490  0.7670 -0.5914
              Bcc     0.0000     0.000     0.000     0.000 -0.3832  0.6388  0.6671
 
              Baa    -0.0000    -0.000    -0.000    -0.000  0.7005 -0.4238 -0.5742
     8 N(14)  Bbb     0.0000     0.000     0.000     0.000  0.2902 -0.5658  0.7717
              Bcc     0.0000     0.000     0.000     0.000  0.6520  0.7072  0.2733
 
              Baa    -0.0000    -0.000    -0.000    -0.000  0.3324  0.7000  0.6320
     9 H(1)   Bbb    -0.0000    -0.000    -0.000    -0.000 -0.2249  0.7096 -0.6677
              Bcc     0.0000     0.000     0.000     0.000  0.9159 -0.0798 -0.3933
 
              Baa    -0.0000    -0.000    -0.000    -0.000  0.0930  0.9913 -0.0934
    10 H(1)   Bbb    -0.0000    -0.000    -0.000    -0.000  0.6489  0.0108  0.7608
              Bcc     0.0000     0.000     0.000     0.000  0.7552 -0.1313 -0.6422
 
              Baa    -0.0000    -0.000    -0.000    -0.000 -0.2572 -0.6806  0.6860
    11 C(13)  Bbb     0.0000     0.000     0.000     0.000  0.2052  0.6553  0.7270
              Bcc     0.0000     0.000     0.000     0.000  0.9443 -0.3278  0.0289
 
              Baa    -0.0000    -0.000    -0.000    -0.000  0.9588  0.2817 -0.0377
    12 H(1)   Bbb     0.0000     0.000     0.000     0.000 -0.2786  0.9057 -0.3196
              Bcc     0.0000     0.000     0.000     0.000 -0.0558  0.3169  0.9468
 
              Baa    -0.0000    -0.000    -0.000    -0.000 -0.0001 -0.6965  0.7176
    13 H(1)   Bbb    -0.0000    -0.000    -0.000    -0.000  0.7371  0.4848  0.4707
              Bcc     0.0000     0.000     0.000     0.000  0.6758 -0.5290 -0.5133
 
              Baa    -0.0000    -0.000    -0.000    -0.000  0.9625 -0.0841 -0.2579
    14 H(1)   Bbb     0.0000     0.000     0.000     0.000  0.1550 -0.6097  0.7774
              Bcc     0.0000     0.000     0.000     0.000  0.2226  0.7882  0.5738
 
              Baa    -0.0000    -0.000    -0.000    -0.000 -0.1696  0.5618  0.8097
    15 C(13)  Bbb     0.0000     0.000     0.000     0.000  0.9501  0.3114 -0.0171
              Bcc     0.0000     0.000     0.000     0.000 -0.2618  0.7664 -0.5866
 
              Baa    -0.0000    -0.000    -0.000    -0.000  0.0641  0.4105  0.9096
    16 H(1)   Bbb     0.0000     0.000     0.000     0.000  0.2515  0.8754 -0.4128
              Bcc     0.0000     0.000     0.000     0.000  0.9657 -0.2552  0.0471
 
              Baa    -0.0000    -0.000    -0.000    -0.000  0.6895  0.4958  0.5280
    17 H(1)   Bbb    -0.0000    -0.000    -0.000    -0.000  0.7206 -0.3960 -0.5692
              Bcc     0.0000     0.000     0.000     0.000 -0.0731  0.7729 -0.6303
 
              Baa    -0.0000    -0.000    -0.000    -0.000 -0.1744  0.7769  0.6050
    18 H(1)   Bbb    -0.0000    -0.000    -0.000    -0.000 -0.0504 -0.6207  0.7824
              Bcc     0.0000     0.000     0.000     0.000  0.9834  0.1060  0.1474
 
              Baa    -0.0000    -0.000    -0.000    -0.000  0.0622  0.8995  0.4325
    19 C(13)  Bbb    -0.0000    -0.000    -0.000    -0.000  0.9695  0.0484 -0.2402
              Bcc     0.0000     0.000     0.000     0.000  0.2370 -0.4343  0.8690
 
              Baa    -0.0000    -0.000    -0.000    -0.000  0.3390  0.8582  0.3854
    20 C(13)  Bbb    -0.0000    -0.000    -0.000    -0.000  0.9395 -0.2874 -0.1865
              Bcc     0.0000     0.000     0.000     0.000  0.0493 -0.4253  0.9037
 
              Baa    -0.0000    -0.000    -0.000    -0.000  0.3760 -0.5101  0.7735
    21 C(13)  Bbb     0.0000     0.000     0.000     0.000 -0.0566  0.8206  0.5687
              Bcc     0.0000     0.000     0.000     0.000  0.9249  0.2577 -0.2797
 
              Baa    -0.0000    -0.000    -0.000    -0.000  0.8455  0.5333  0.0281
    22 C(13)  Bbb    -0.0000    -0.000    -0.000    -0.000 -0.4511  0.6850  0.5721
              Bcc     0.0000     0.000     0.000     0.000  0.2858 -0.4964  0.8197
 
              Baa    -0.0000    -0.000    -0.000    -0.000  0.4082  0.8337  0.3718
    23 H(1)   Bbb    -0.0000    -0.000    -0.000    -0.000  0.2146 -0.4835  0.8486
              Bcc     0.0000     0.000     0.000     0.000  0.8873 -0.2666 -0.3763
 
              Baa    -0.0000    -0.000    -0.000    -0.000 -0.5119  0.6264  0.5879
    24 C(13)  Bbb    -0.0000    -0.000    -0.000    -0.000  0.8430  0.4978  0.2037
              Bcc     0.0000     0.000     0.000     0.000  0.1651 -0.5999  0.7829
 
              Baa    -0.0000    -0.000    -0.000    -0.000 -0.0772  0.8346  0.5455
    25 H(1)   Bbb     0.0000     0.000     0.000     0.000  0.3540 -0.4885  0.7975
              Bcc     0.0000     0.000     0.000     0.000  0.9320  0.2547 -0.2577
 
              Baa    -0.0000    -0.000    -0.000    -0.000  0.2877 -0.5286  0.7987
    26 C(13)  Bbb     0.0000     0.000     0.000     0.000  0.1716  0.8489  0.5000
              Bcc     0.0000     0.000     0.000     0.000  0.9422  0.0068 -0.3349
 
              Baa    -0.0000    -0.000    -0.000    -0.000  0.7645 -0.2361 -0.5998
    27 H(1)   Bbb     0.0000     0.000     0.000     0.000  0.5246 -0.3129  0.7918
              Bcc     0.0000     0.000     0.000     0.000  0.3746  0.9200  0.1154
 
              Baa    -0.0000    -0.000    -0.000    -0.000  0.6494  0.6972  0.3035
    28 H(1)   Bbb     0.0000     0.000     0.000     0.000  0.1784 -0.5277  0.8305
              Bcc     0.0000     0.000     0.000     0.000  0.7392 -0.4852 -0.4670
 
              Baa    -0.0000    -0.000    -0.000    -0.000  0.8285  0.5600  0.0061
    29 H(1)   Bbb    -0.0000    -0.000    -0.000    -0.000  0.3333 -0.5019  0.7981
              Bcc     0.0000     0.000     0.000     0.000 -0.4500  0.6592  0.6025
 
              Baa    -0.0000    -0.000    -0.000    -0.000 -0.2570 -0.4479  0.8563
    30 C(13)  Bbb     0.0000     0.000     0.000     0.000  0.9658 -0.1500  0.2114
              Bcc     0.0000     0.000     0.000     0.000  0.0338  0.8814  0.4712
 
              Baa    -0.0000    -0.000    -0.000    -0.000  0.2286 -0.2949  0.9278
    31 C(13)  Bbb     0.0000     0.000     0.000     0.000  0.9497  0.2771 -0.1459
              Bcc     0.0000     0.000     0.000     0.000 -0.2141  0.9144  0.3435
 
              Baa    -0.0000    -0.000    -0.000    -0.000  0.9293 -0.2894  0.2295
    32 C(13)  Bbb    -0.0000    -0.000    -0.000    -0.000  0.1022  0.7987  0.5930
              Bcc     0.0000     0.000     0.000     0.000 -0.3549 -0.5276  0.7718
 
              Baa    -0.0000    -0.000    -0.000    -0.000 -0.2825 -0.5256  0.8025
    33 C(13)  Bbb     0.0000     0.000     0.000     0.000  0.4352  0.6753  0.5955
              Bcc     0.0000     0.000     0.000     0.000  0.8549 -0.5175 -0.0380
 
              Baa    -0.0000    -0.000    -0.000    -0.000  0.8989  0.2746  0.3414
    34 H(1)   Bbb     0.0000     0.000     0.000     0.000 -0.2527 -0.3117  0.9160
              Bcc     0.0000     0.000     0.000     0.000 -0.3579  0.9097  0.2108
 
              Baa    -0.0000    -0.000    -0.000    -0.000 -0.0909 -0.6447  0.7590
    35 C(13)  Bbb     0.0000     0.000     0.000     0.000  0.7878 -0.5128 -0.3412
              Bcc     0.0000     0.000     0.000     0.000  0.6092  0.5669  0.5545
 
              Baa    -0.0000    -0.000    -0.000    -0.000  0.9368 -0.2599  0.2343
    36 H(1)   Bbb    -0.0000    -0.000    -0.000    -0.000 -0.3381 -0.4995  0.7976
              Bcc     0.0000     0.000     0.000     0.000  0.0903  0.8264  0.5558
 
              Baa    -0.0000    -0.000    -0.000    -0.000  0.9358  0.0770  0.3440
    37 C(13)  Bbb    -0.0000    -0.000    -0.000    -0.000 -0.2533  0.8255  0.5044
              Bcc     0.0000     0.000     0.000     0.000 -0.2452 -0.5591  0.7920
 
              Baa    -0.0000    -0.000    -0.000    -0.000 -0.1975  0.9591  0.2026
    38 H(1)   Bbb    -0.0000    -0.000    -0.000    -0.000 -0.4267 -0.2702  0.8631
              Bcc     0.0000     0.000     0.000     0.000  0.8826  0.0840  0.4626
 
              Baa    -0.0000    -0.000    -0.000    -0.000  0.7696  0.5414  0.3384
    39 H(1)   Bbb    -0.0000    -0.000    -0.000    -0.000 -0.0256 -0.5034  0.8637
              Bcc     0.0000     0.000     0.000     0.000 -0.6380  0.6734  0.3736
 
              Baa    -0.0000    -0.000    -0.000    -0.000  0.5279  0.6078  0.5932
    40 H(1)   Bbb     0.0000     0.000     0.000     0.000 -0.2901 -0.5274  0.7985
              Bcc     0.0000     0.000     0.000     0.000  0.7982 -0.5936 -0.1021
 

 ---------------------------------------------------------------------------------

 No NMR shielding tensors so no spin-rotation constants.
 Leave Link  601 at Fri May 17 06:40:41 2019, MaxMem=   104857600 cpu:              10.3 elap:               0.4
 (Enter /opt/software/gaussian/g16.b01/l9999.exe)
 1\1\GINC-GRA482\FOpt\UB3LYP\6-31G(d,p)\C16H20N2O2\RZK\17-May-2019\0\\#
 p opt ub3lyp/6-31g(d,p) scrf=(iefpcm,solvent=acetonitrile) guess=(mix,
 always) empiricaldispersion=gd3\\Title Card Required\\0,1\C,0.77092100
 44,-0.6004576382,-0.4647891595\H,5.4974490277,-0.5766811061,-0.9531534
 832\C,0.7248126453,0.6155415876,0.5815608256\O,1.8669119253,1.44538326
 9,0.3525654603\O,1.9131971561,-1.4020461577,-0.147164194\N,4.575438786
 2,0.4102884642,0.3991761704\H,2.6755435528,0.9677036126,0.6134256531\N
 ,4.5584805665,-0.3642675971,-0.5674497211\H,2.712338949,-1.0123405987,
 -0.547036186\H,5.526636517,0.7261271745,0.6658057159\C,0.9300286904,-0
 .0738629706,-1.8981886451\H,1.0116537926,-0.9196126327,-2.5857638811\H
 ,0.0945961565,0.5540932423,-2.2096821629\H,1.8372963522,0.5312893669,-
 1.9595419042\C,0.7955547078,0.0841824032,2.0212224438\H,0.7954067154,0
 .926987237,2.716960024\H,-0.0358406472,-0.5779419179,2.2677505076\H,1.
 7185336529,-0.4861562128,2.1453257661\C,-0.4507358094,-1.51225137,-0.3
 29330799\C,-0.3875194926,-2.6646567021,0.4683605665\C,-1.6615773552,-1
 .2257308309,-0.9772070755\C,-1.4976767989,-3.4969148712,0.6215300991\H
 ,0.5435267596,-2.9075094761,0.965544123\C,-2.7724975043,-2.0580808536,
 -0.8297209845\H,-1.7515687638,-0.339123825,-1.5936960028\C,-2.69744514
 21,-3.1978272094,-0.0272918955\H,-1.4221272122,-4.3826195535,1.2463146
 115\H,-3.6976509173,-1.8115684859,-1.3429632251\H,-3.5614447674,-3.845
 7936296,0.0883654239\C,-0.4971476779,1.5093023917,0.3636693527\C,-0.40
 9235265,2.6348378738,-0.4696512822\C,-1.7328911979,1.2313559658,0.9662
 485541\C,-1.5200472355,3.447221551,-0.7028916167\H,0.5411726463,2.8712
 837505,-0.9320749603\C,-2.8450111274,2.0436709279,0.7381443189\H,-1.84
 12421768,0.3660775233,1.6094829195\C,-2.7454648857,3.1552809322,-0.100
 2164169\H,-1.4253123629,4.3118257394,-1.3540462304\H,-3.7902410603,1.8
 036127414,1.216674534\H,-3.610323204,3.787668885,-0.278623244\\Version
 =ES64L-G16RevB.01\State=1-A\HF=-881.7173807\S2=0.\S2-1=0.\S2A=0.\RMSD=
 6.596e-09\RMSF=2.434e-05\Dipole=2.4876483,0.0155979,-0.2522188\Quadrup
 ole=29.1108792,-16.6716577,-12.4392215,0.5880386,-1.5993712,-4.1130348
 \PG=C01 [X(C16H20N2O2)]\\@


 THERE IS AN OLD, OLD RECIPE IN MAINE FOR STEWING COOT. PLACE THE
 BIRD IN A KETTLE OF WATER WITH A RED BUILDING BRICK FREE OF MORTAR AND
 BLEMISHES. PARBOIL THE COOT AND BRICK TOGETHER FOR THREE HOURS.
 POUR OFF THE WATER, REFILL THE KETTLE, AND AGAIN PARBOIL FOR THREE HOURS.
 ONCE AGAIN POUR OFF THE WATER, FOR THE LAST TIME ADD FRESH WATER,
 AND LET THE COOT AND BRICK SIMMER TOGETHER OVERNIGHT. IN THE MORNING,
 THROW AWAY THE COOT AND EAT THE BRICK.
 Job cpu time:       0 days  3 hours 54 minutes 39.9 seconds.
 Elapsed time:       0 days  0 hours  7 minutes 30.4 seconds.
 File lengths (MBytes):  RWF=    303 Int=      0 D2E=      0 Chk=     20 Scr=      1
 Normal termination of Gaussian 16 at Fri May 17 06:40:42 2019.
