 Entering Gaussian System, Link 0=g16
 Initial command:
 /project/6004141/group/g16/g16/l1.exe "/scratch/rzk/Gau-95858.inp" -scrdir="/scratch/rzk/"
 Entering Link 1 = /project/6004141/group/g16/g16/l1.exe PID=     95860.
  
 Copyright (c) 1988,1990,1992,1993,1995,1998,2003,2009,2016,
            Gaussian, Inc.  All Rights Reserved.
  
 This is part of the Gaussian(R) 16 program.  It is based on
 the Gaussian(R) 09 system (copyright 2009, Gaussian, Inc.),
 the Gaussian(R) 03 system (copyright 2003, Gaussian, Inc.),
 the Gaussian(R) 98 system (copyright 1998, Gaussian, Inc.),
 the Gaussian(R) 94 system (copyright 1995, Gaussian, Inc.),
 the Gaussian 92(TM) system (copyright 1992, Gaussian, Inc.),
 the Gaussian 90(TM) system (copyright 1990, Gaussian, Inc.),
 the Gaussian 88(TM) system (copyright 1988, Gaussian, Inc.),
 the Gaussian 86(TM) system (copyright 1986, Carnegie Mellon
 University), and the Gaussian 82(TM) system (copyright 1983,
 Carnegie Mellon University). Gaussian is a federally registered
 trademark of Gaussian, Inc.
  
 This software contains proprietary and confidential information,
 including trade secrets, belonging to Gaussian, Inc.
  
 This software is provided under written license and may be
 used, copied, transmitted, or stored only in accord with that
 written license.
  
 The following legend is applicable only to US Government
 contracts under FAR:
  
                    RESTRICTED RIGHTS LEGEND
  
 Use, reproduction and disclosure by the US Government is
 subject to restrictions as set forth in subparagraphs (a)
 and (c) of the Commercial Computer Software - Restricted
 Rights clause in FAR 52.227-19.
  
 Gaussian, Inc.
 340 Quinnipiac St., Bldg. 40, Wallingford CT 06492
  
  
 ---------------------------------------------------------------
 Warning -- This program may not be used in any manner that
 competes with the business of Gaussian, Inc. or will provide
 assistance to any competitor of Gaussian, Inc.  The licensee
 of this program is prohibited from giving any competitor of
 Gaussian, Inc. access to this program.  By using this program,
 the user acknowledges that Gaussian, Inc. is engaged in the
 business of creating and licensing software in the field of
 computational chemistry and represents and warrants to the
 licensee that it is not a competitor of Gaussian, Inc. and that
 it will not use this program in any manner prohibited above.
 ---------------------------------------------------------------
  

 Cite this work as:
 Gaussian 16, Revision A.03,
 M. J. Frisch, G. W. Trucks, H. B. Schlegel, G. E. Scuseria, 
 M. A. Robb, J. R. Cheeseman, G. Scalmani, V. Barone, 
 G. A. Petersson, H. Nakatsuji, X. Li, M. Caricato, A. V. Marenich, 
 J. Bloino, B. G. Janesko, R. Gomperts, B. Mennucci, H. P. Hratchian, 
 J. V. Ortiz, A. F. Izmaylov, J. L. Sonnenberg, D. Williams-Young, 
 F. Ding, F. Lipparini, F. Egidi, J. Goings, B. Peng, A. Petrone, 
 T. Henderson, D. Ranasinghe, V. G. Zakrzewski, J. Gao, N. Rega, 
 G. Zheng, W. Liang, M. Hada, M. Ehara, K. Toyota, R. Fukuda, 
 J. Hasegawa, M. Ishida, T. Nakajima, Y. Honda, O. Kitao, H. Nakai, 
 T. Vreven, K. Throssell, J. A. Montgomery, Jr., J. E. Peralta, 
 F. Ogliaro, M. J. Bearpark, J. J. Heyd, E. N. Brothers, K. N. Kudin, 
 V. N. Staroverov, T. A. Keith, R. Kobayashi, J. Normand, 
 K. Raghavachari, A. P. Rendell, J. C. Burant, S. S. Iyengar, 
 J. Tomasi, M. Cossi, J. M. Millam, M. Klene, C. Adamo, R. Cammi, 
 J. W. Ochterski, R. L. Martin, K. Morokuma, O. Farkas, 
 J. B. Foresman, and D. J. Fox, Gaussian, Inc., Wallingford CT, 2016.
 
 ******************************************
 Gaussian 16:  ES64L-G16RevA.03 25-Dec-2016
                11-Jun-2019 
 ******************************************
 %NProcShared=40
 Will use up to   40 processors via shared memory.
 %chk=AABH.chk
 ----------------------------------------------------------------------
 #p opt ub3lyp/6-31g(d,p) scrf=(iefpcm,solvent=acetonitrile) guess=(mix
 ,always) empiricaldispersion=gd3
 ----------------------------------------------------------------------
 1/18=20,19=15,26=3,38=1/1,3;
 2/9=110,12=2,17=6,18=5,40=1/2;
 3/5=1,6=6,7=101,11=2,25=1,30=1,70=2201,71=1,72=2,74=-5,116=2,124=31/1,2,3;
 4/13=-1/1;
 5/5=2,38=5,53=2/2;
 6/7=2,8=2,9=2,10=2,28=1/1;
 7//1,2,3,16;
 1/18=20,19=15,26=3/3(2);
 2/9=110/2;
 99//99;
 2/9=110/2;
 3/5=1,6=6,7=101,11=2,25=1,30=1,70=2205,71=1,72=2,74=-5,116=2,124=31/1,2,3;
 4/13=-1/1;
 5/5=2,38=5,53=2/2;
 7//1,2,3,16;
 1/18=20,19=15,26=3/3(-5);
 2/9=110/2;
 6/7=2,8=2,9=2,10=2,19=2,28=1/1;
 99/9=1/99;
 Leave Link    1 at Tue Jun 11 19:02:20 2019, MaxMem=           0 cpu:               9.4 elap:               0.2
 (Enter /project/6004141/group/g16/g16/l101.exe)
 -------------------
 Title Card Required
 -------------------
 Symbolic Z-matrix:
 Charge =  0 Multiplicity = 1
 C                    -0.45271  -1.16228  -0.58118 
 H                     2.40261  -1.32712   0.78653 
 C                     0.54036  -0.68533   0.37504 
 O                     1.72778  -1.46255   0.07249 
 O                    -0.55835  -2.59686  -0.43802 
 N                     4.3056   -1.59352  -0.2277 
 H                     5.17607  -1.7541   -0.76754 
 N                     4.28749  -1.34495   0.97365 
 H                     0.39193  -2.88979  -0.33238 
 H                     3.4075   -1.65156  -0.76067 
 C                    -0.04658  -0.90359  -2.05221 
 H                     0.04451   0.15653  -2.29227 
 H                     0.91518  -1.37943  -2.25443 
 H                    -0.80307  -1.34837  -2.70181 
 C                     0.16896  -1.02014   1.83755 
 H                     0.97511  -0.69312   2.50004 
 H                    -0.75396  -0.53543   2.15615 
 H                     0.03756  -2.09805   1.93687 
 C                    -1.86206  -0.60094  -0.32102 
 C                    -2.79257  -1.34551   0.41741 
 C                    -2.25482   0.65391  -0.80881 
 C                    -4.07275  -0.84864   0.66868 
 H                    -2.50492  -2.32072   0.78962 
 C                    -3.53376   1.1539   -0.55724 
 H                    -1.55959   1.25887  -1.3784 
 C                    -4.44959   0.40511   0.18375 
 H                    -4.77604  -1.4449    1.24318 
 H                    -3.81186   2.13029  -0.94336 
 H                    -5.44537   0.79276   0.37793 
 C                     0.87001   0.81647   0.24246 
 C                     1.92879   1.23765  -0.57377 
 C                     0.13769   1.79604   0.92929 
 C                     2.2448    2.59046  -0.70603 
 H                     2.50833   0.49848  -1.11201 
 C                     0.45043   3.15038   0.80004 
 H                    -0.69459   1.51065   1.56123 
 C                     1.50633   3.55498  -0.01825 
 H                     3.07075   2.8883   -1.3455 
 H                    -0.13394   3.88809   1.34221 
 H                     1.75165   4.60826  -0.11691 
 
 Add virtual bond connecting atoms N8         and H2         Dist= 3.58D+00.
 Add virtual bond connecting atoms H10        and H2         Dist= 3.54D+00.
 Add virtual bond connecting atoms H10        and O4         Dist= 3.56D+00.
 ITRead=  0  0  0  0  0  0  0  0  0  0  0  0  0  0  0  0  0  0  0  0
 ITRead=  0  0  0  0  0  0  0  0  0  0  0  0  0  0  0  0  0  0  0  0
 MicOpt= -1 -1 -1 -1 -1 -1 -1 -1 -1 -1 -1 -1 -1 -1 -1 -1 -1 -1 -1 -1
 MicOpt= -1 -1 -1 -1 -1 -1 -1 -1 -1 -1 -1 -1 -1 -1 -1 -1 -1 -1 -1 -1
 NAtoms=     40 NQM=       40 NQMF=       0 NMMI=      0 NMMIF=      0
                NMic=       0 NMicF=      0.
                    Isotopes and Nuclear Properties:
 (Nuclear quadrupole moments (NQMom) in fm**2, nuclear magnetic moments (NMagM)
  in nuclear magnetons)

  Atom         1           2           3           4           5           6           7           8           9          10
 IAtWgt=          12           1          12          16          16          14           1          14           1           1
 AtmWgt=  12.0000000   1.0078250  12.0000000  15.9949146  15.9949146  14.0030740   1.0078250  14.0030740   1.0078250   1.0078250
 NucSpn=           0           1           0           0           0           2           1           2           1           1
 AtZEff=  -0.0000000  -0.0000000  -0.0000000  -0.0000000  -0.0000000  -0.0000000  -0.0000000  -0.0000000  -0.0000000  -0.0000000
 NQMom=    0.0000000   0.0000000   0.0000000   0.0000000   0.0000000   2.0440000   0.0000000   2.0440000   0.0000000   0.0000000
 NMagM=    0.0000000   2.7928460   0.0000000   0.0000000   0.0000000   0.4037610   2.7928460   0.4037610   2.7928460   2.7928460
 AtZNuc=   6.0000000   1.0000000   6.0000000   8.0000000   8.0000000   7.0000000   1.0000000   7.0000000   1.0000000   1.0000000

  Atom        11          12          13          14          15          16          17          18          19          20
 IAtWgt=          12           1           1           1          12           1           1           1          12          12
 AtmWgt=  12.0000000   1.0078250   1.0078250   1.0078250  12.0000000   1.0078250   1.0078250   1.0078250  12.0000000  12.0000000
 NucSpn=           0           1           1           1           0           1           1           1           0           0
 AtZEff=  -0.0000000  -0.0000000  -0.0000000  -0.0000000  -0.0000000  -0.0000000  -0.0000000  -0.0000000  -0.0000000  -0.0000000
 NQMom=    0.0000000   0.0000000   0.0000000   0.0000000   0.0000000   0.0000000   0.0000000   0.0000000   0.0000000   0.0000000
 NMagM=    0.0000000   2.7928460   2.7928460   2.7928460   0.0000000   2.7928460   2.7928460   2.7928460   0.0000000   0.0000000
 AtZNuc=   6.0000000   1.0000000   1.0000000   1.0000000   6.0000000   1.0000000   1.0000000   1.0000000   6.0000000   6.0000000

  Atom        21          22          23          24          25          26          27          28          29          30
 IAtWgt=          12          12           1          12           1          12           1           1           1          12
 AtmWgt=  12.0000000  12.0000000   1.0078250  12.0000000   1.0078250  12.0000000   1.0078250   1.0078250   1.0078250  12.0000000
 NucSpn=           0           0           1           0           1           0           1           1           1           0
 AtZEff=  -0.0000000  -0.0000000  -0.0000000  -0.0000000  -0.0000000  -0.0000000  -0.0000000  -0.0000000  -0.0000000  -0.0000000
 NQMom=    0.0000000   0.0000000   0.0000000   0.0000000   0.0000000   0.0000000   0.0000000   0.0000000   0.0000000   0.0000000
 NMagM=    0.0000000   0.0000000   2.7928460   0.0000000   2.7928460   0.0000000   2.7928460   2.7928460   2.7928460   0.0000000
 AtZNuc=   6.0000000   6.0000000   1.0000000   6.0000000   1.0000000   6.0000000   1.0000000   1.0000000   1.0000000   6.0000000

  Atom        31          32          33          34          35          36          37          38          39          40
 IAtWgt=          12          12          12           1          12           1          12           1           1           1
 AtmWgt=  12.0000000  12.0000000  12.0000000   1.0078250  12.0000000   1.0078250  12.0000000   1.0078250   1.0078250   1.0078250
 NucSpn=           0           0           0           1           0           1           0           1           1           1
 AtZEff=  -0.0000000  -0.0000000  -0.0000000  -0.0000000  -0.0000000  -0.0000000  -0.0000000  -0.0000000  -0.0000000  -0.0000000
 NQMom=    0.0000000   0.0000000   0.0000000   0.0000000   0.0000000   0.0000000   0.0000000   0.0000000   0.0000000   0.0000000
 NMagM=    0.0000000   0.0000000   0.0000000   2.7928460   0.0000000   2.7928460   0.0000000   2.7928460   2.7928460   2.7928460
 AtZNuc=   6.0000000   6.0000000   6.0000000   1.0000000   6.0000000   1.0000000   6.0000000   1.0000000   1.0000000   1.0000000
 Leave Link  101 at Tue Jun 11 19:02:20 2019, MaxMem=   104857600 cpu:              12.6 elap:               0.4
 (Enter /project/6004141/group/g16/g16/l103.exe)

 GradGradGradGradGradGradGradGradGradGradGradGradGradGradGradGradGradGrad
 Berny optimization.
 Initialization pass.
                           ----------------------------
                           !    Initial Parameters    !
                           ! (Angstroms and Degrees)  !
 --------------------------                            --------------------------
 ! Name  Definition              Value          Derivative Info.                !
 --------------------------------------------------------------------------------
 ! R1    R(1,3)                  1.4588         estimate D2E/DX2                !
 ! R2    R(1,5)                  1.4456         estimate D2E/DX2                !
 ! R3    R(1,11)                 1.5478         estimate D2E/DX2                !
 ! R4    R(1,19)                 1.5392         estimate D2E/DX2                !
 ! R5    R(2,4)                  0.9918         estimate D2E/DX2                !
 ! R6    R(2,8)                  1.8942         estimate D2E/DX2                !
 ! R7    R(2,10)                 1.8732         estimate D2E/DX2                !
 ! R8    R(3,4)                  1.4511         estimate D2E/DX2                !
 ! R9    R(3,15)                 1.5456         estimate D2E/DX2                !
 ! R10   R(3,30)                 1.5433         estimate D2E/DX2                !
 ! R11   R(4,10)                 1.8845         estimate D2E/DX2                !
 ! R12   R(5,9)                  1.0            estimate D2E/DX2                !
 ! R13   R(6,7)                  1.0368         estimate D2E/DX2                !
 ! R14   R(6,8)                  1.2269         estimate D2E/DX2                !
 ! R15   R(6,10)                 1.0459         estimate D2E/DX2                !
 ! R16   R(11,12)                1.0908         estimate D2E/DX2                !
 ! R17   R(11,13)                1.0919         estimate D2E/DX2                !
 ! R18   R(11,14)                1.0918         estimate D2E/DX2                !
 ! R19   R(15,16)                1.0935         estimate D2E/DX2                !
 ! R20   R(15,17)                1.0901         estimate D2E/DX2                !
 ! R21   R(15,18)                1.0904         estimate D2E/DX2                !
 ! R22   R(19,20)                1.402          estimate D2E/DX2                !
 ! R23   R(19,21)                1.4024         estimate D2E/DX2                !
 ! R24   R(20,22)                1.396          estimate D2E/DX2                !
 ! R25   R(20,23)                1.0827         estimate D2E/DX2                !
 ! R26   R(21,24)                1.3961         estimate D2E/DX2                !
 ! R27   R(21,25)                1.0834         estimate D2E/DX2                !
 ! R28   R(22,26)                1.3961         estimate D2E/DX2                !
 ! R29   R(22,27)                1.0864         estimate D2E/DX2                !
 ! R30   R(24,26)                1.3959         estimate D2E/DX2                !
 ! R31   R(24,28)                1.0862         estimate D2E/DX2                !
 ! R32   R(26,29)                1.0861         estimate D2E/DX2                !
 ! R33   R(30,31)                1.4017         estimate D2E/DX2                !
 ! R34   R(30,32)                1.4027         estimate D2E/DX2                !
 ! R35   R(31,33)                1.3955         estimate D2E/DX2                !
 ! R36   R(31,34)                1.0826         estimate D2E/DX2                !
 ! R37   R(32,35)                1.396          estimate D2E/DX2                !
 ! R38   R(32,36)                1.0833         estimate D2E/DX2                !
 ! R39   R(33,37)                1.3959         estimate D2E/DX2                !
 ! R40   R(33,38)                1.0862         estimate D2E/DX2                !
 ! R41   R(35,37)                1.3958         estimate D2E/DX2                !
 ! R42   R(35,39)                1.0861         estimate D2E/DX2                !
 ! R43   R(37,40)                1.086          estimate D2E/DX2                !
 ! A1    A(3,1,5)              108.0175         estimate D2E/DX2                !
 ! A2    A(3,1,11)             112.9357         estimate D2E/DX2                !
 ! A3    A(3,1,19)             113.1603         estimate D2E/DX2                !
 ! A4    A(5,1,11)             106.2096         estimate D2E/DX2                !
 ! A5    A(5,1,19)             106.1574         estimate D2E/DX2                !
 ! A6    A(11,1,19)            109.8731         estimate D2E/DX2                !
 ! A7    A(4,2,8)              138.3233         estimate D2E/DX2                !
 ! A8    A(8,2,10)              63.0091         estimate D2E/DX2                !
 ! A9    A(1,3,4)              104.1981         estimate D2E/DX2                !
 ! A10   A(1,3,15)             112.6957         estimate D2E/DX2                !
 ! A11   A(1,3,30)             114.0337         estimate D2E/DX2                !
 ! A12   A(4,3,15)             106.1349         estimate D2E/DX2                !
 ! A13   A(4,3,30)             109.1792         estimate D2E/DX2                !
 ! A14   A(15,3,30)            110.085          estimate D2E/DX2                !
 ! A15   A(2,4,3)              109.4841         estimate D2E/DX2                !
 ! A16   A(3,4,10)             151.0799         estimate D2E/DX2                !
 ! A17   A(1,5,9)              103.3983         estimate D2E/DX2                !
 ! A18   A(7,6,8)              123.6139         estimate D2E/DX2                !
 ! A19   A(7,6,10)             116.5512         estimate D2E/DX2                !
 ! A20   A(8,6,10)             119.8349         estimate D2E/DX2                !
 ! A21   A(2,8,6)               85.4038         estimate D2E/DX2                !
 ! A22   A(2,10,6)              91.7274         estimate D2E/DX2                !
 ! A23   A(4,10,6)             122.31           estimate D2E/DX2                !
 ! A24   A(1,11,12)            113.1728         estimate D2E/DX2                !
 ! A25   A(1,11,13)            109.5289         estimate D2E/DX2                !
 ! A26   A(1,11,14)            108.394          estimate D2E/DX2                !
 ! A27   A(12,11,13)           108.0128         estimate D2E/DX2                !
 ! A28   A(12,11,14)           108.8353         estimate D2E/DX2                !
 ! A29   A(13,11,14)           108.8181         estimate D2E/DX2                !
 ! A30   A(3,15,16)            109.3496         estimate D2E/DX2                !
 ! A31   A(3,15,17)            112.562          estimate D2E/DX2                !
 ! A32   A(3,15,18)            109.2247         estimate D2E/DX2                !
 ! A33   A(16,15,17)           108.3085         estimate D2E/DX2                !
 ! A34   A(16,15,18)           109.2255         estimate D2E/DX2                !
 ! A35   A(17,15,18)           108.1144         estimate D2E/DX2                !
 ! A36   A(1,19,20)            120.2034         estimate D2E/DX2                !
 ! A37   A(1,19,21)            121.5987         estimate D2E/DX2                !
 ! A38   A(20,19,21)           118.1978         estimate D2E/DX2                !
 ! A39   A(19,20,22)           120.9587         estimate D2E/DX2                !
 ! A40   A(19,20,23)           118.8867         estimate D2E/DX2                !
 ! A41   A(22,20,23)           120.154          estimate D2E/DX2                !
 ! A42   A(19,21,24)           120.9536         estimate D2E/DX2                !
 ! A43   A(19,21,25)           120.1833         estimate D2E/DX2                !
 ! A44   A(24,21,25)           118.8575         estimate D2E/DX2                !
 ! A45   A(20,22,26)           120.3076         estimate D2E/DX2                !
 ! A46   A(20,22,27)           119.5704         estimate D2E/DX2                !
 ! A47   A(26,22,27)           120.1219         estimate D2E/DX2                !
 ! A48   A(21,24,26)           120.3038         estimate D2E/DX2                !
 ! A49   A(21,24,28)           119.5017         estimate D2E/DX2                !
 ! A50   A(26,24,28)           120.1944         estimate D2E/DX2                !
 ! A51   A(22,26,24)           119.2766         estimate D2E/DX2                !
 ! A52   A(22,26,29)           120.3927         estimate D2E/DX2                !
 ! A53   A(24,26,29)           120.3304         estimate D2E/DX2                !
 ! A54   A(3,30,31)            120.2513         estimate D2E/DX2                !
 ! A55   A(3,30,32)            121.7358         estimate D2E/DX2                !
 ! A56   A(31,30,32)           118.012          estimate D2E/DX2                !
 ! A57   A(30,31,33)           121.1668         estimate D2E/DX2                !
 ! A58   A(30,31,34)           119.258          estimate D2E/DX2                !
 ! A59   A(33,31,34)           119.575          estimate D2E/DX2                !
 ! A60   A(30,32,35)           121.0127         estimate D2E/DX2                !
 ! A61   A(30,32,36)           120.1835         estimate D2E/DX2                !
 ! A62   A(35,32,36)           118.7978         estimate D2E/DX2                !
 ! A63   A(31,33,37)           120.2196         estimate D2E/DX2                !
 ! A64   A(31,33,38)           119.5903         estimate D2E/DX2                !
 ! A65   A(37,33,38)           120.1899         estimate D2E/DX2                !
 ! A66   A(32,35,37)           120.3299         estimate D2E/DX2                !
 ! A67   A(32,35,39)           119.4859         estimate D2E/DX2                !
 ! A68   A(37,35,39)           120.1842         estimate D2E/DX2                !
 ! A69   A(33,37,35)           119.2585         estimate D2E/DX2                !
 ! A70   A(33,37,40)           120.3898         estimate D2E/DX2                !
 ! A71   A(35,37,40)           120.3515         estimate D2E/DX2                !
 ! D1    D(5,1,3,4)             55.1382         estimate D2E/DX2                !
 ! D2    D(5,1,3,15)           -59.4774         estimate D2E/DX2                !
 ! D3    D(5,1,3,30)           174.0763         estimate D2E/DX2                !
 ! D4    D(11,1,3,4)           -62.0154         estimate D2E/DX2                !
 ! D5    D(11,1,3,15)         -176.631          estimate D2E/DX2                !
 ! D6    D(11,1,3,30)           56.9227         estimate D2E/DX2                !
 ! D7    D(19,1,3,4)           172.3587         estimate D2E/DX2                !
 ! D8    D(19,1,3,15)           57.7431         estimate D2E/DX2                !
 ! D9    D(19,1,3,30)          -68.7032         estimate D2E/DX2                !
 ! D10   D(3,1,5,9)            -41.5735         estimate D2E/DX2                !
 ! D11   D(11,1,5,9)            79.8468         estimate D2E/DX2                !
 ! D12   D(19,1,5,9)          -163.2302         estimate D2E/DX2                !
 ! D13   D(3,1,11,12)          -63.0506         estimate D2E/DX2                !
 ! D14   D(3,1,11,13)           57.5279         estimate D2E/DX2                !
 ! D15   D(3,1,11,14)          176.1236         estimate D2E/DX2                !
 ! D16   D(5,1,11,12)          178.7348         estimate D2E/DX2                !
 ! D17   D(5,1,11,13)          -60.6868         estimate D2E/DX2                !
 ! D18   D(5,1,11,14)           57.909          estimate D2E/DX2                !
 ! D19   D(19,1,11,12)          64.327          estimate D2E/DX2                !
 ! D20   D(19,1,11,13)        -175.0946         estimate D2E/DX2                !
 ! D21   D(19,1,11,14)         -56.4988         estimate D2E/DX2                !
 ! D22   D(3,1,19,20)          -95.9493         estimate D2E/DX2                !
 ! D23   D(3,1,19,21)           84.1377         estimate D2E/DX2                !
 ! D24   D(5,1,19,20)           22.3574         estimate D2E/DX2                !
 ! D25   D(5,1,19,21)         -157.5556         estimate D2E/DX2                !
 ! D26   D(11,1,19,20)         136.7986         estimate D2E/DX2                !
 ! D27   D(11,1,19,21)         -43.1144         estimate D2E/DX2                !
 ! D28   D(8,2,4,3)           -151.253          estimate D2E/DX2                !
 ! D29   D(4,2,8,6)              0.6995         estimate D2E/DX2                !
 ! D30   D(10,2,8,6)            -0.8431         estimate D2E/DX2                !
 ! D31   D(8,2,10,6)             0.9863         estimate D2E/DX2                !
 ! D32   D(1,3,4,2)           -169.2792         estimate D2E/DX2                !
 ! D33   D(1,3,4,10)            98.5258         estimate D2E/DX2                !
 ! D34   D(15,3,4,2)           -50.1024         estimate D2E/DX2                !
 ! D35   D(15,3,4,10)         -142.2974         estimate D2E/DX2                !
 ! D36   D(30,3,4,2)            68.5262         estimate D2E/DX2                !
 ! D37   D(30,3,4,10)          -23.6688         estimate D2E/DX2                !
 ! D38   D(1,3,15,16)          176.6235         estimate D2E/DX2                !
 ! D39   D(1,3,15,17)          -62.9498         estimate D2E/DX2                !
 ! D40   D(1,3,15,18)           57.1466         estimate D2E/DX2                !
 ! D41   D(4,3,15,16)           63.1857         estimate D2E/DX2                !
 ! D42   D(4,3,15,17)         -176.3875         estimate D2E/DX2                !
 ! D43   D(4,3,15,18)          -56.2912         estimate D2E/DX2                !
 ! D44   D(30,3,15,16)         -54.8435         estimate D2E/DX2                !
 ! D45   D(30,3,15,17)          65.5833         estimate D2E/DX2                !
 ! D46   D(30,3,15,18)        -174.3204         estimate D2E/DX2                !
 ! D47   D(1,3,30,31)          -91.858          estimate D2E/DX2                !
 ! D48   D(1,3,30,32)           88.4988         estimate D2E/DX2                !
 ! D49   D(4,3,30,31)           24.2108         estimate D2E/DX2                !
 ! D50   D(4,3,30,32)         -155.4325         estimate D2E/DX2                !
 ! D51   D(15,3,30,31)         140.3445         estimate D2E/DX2                !
 ! D52   D(15,3,30,32)         -39.2988         estimate D2E/DX2                !
 ! D53   D(3,4,10,6)           103.9931         estimate D2E/DX2                !
 ! D54   D(7,6,8,2)           -178.5022         estimate D2E/DX2                !
 ! D55   D(10,6,8,2)             1.5512         estimate D2E/DX2                !
 ! D56   D(7,6,10,2)           178.4854         estimate D2E/DX2                !
 ! D57   D(7,6,10,4)           177.2528         estimate D2E/DX2                !
 ! D58   D(8,6,10,2)            -1.5643         estimate D2E/DX2                !
 ! D59   D(8,6,10,4)            -2.7969         estimate D2E/DX2                !
 ! D60   D(1,19,20,22)         179.6635         estimate D2E/DX2                !
 ! D61   D(1,19,20,23)          -0.6119         estimate D2E/DX2                !
 ! D62   D(21,19,20,22)         -0.4206         estimate D2E/DX2                !
 ! D63   D(21,19,20,23)        179.304          estimate D2E/DX2                !
 ! D64   D(1,19,21,24)        -179.5693         estimate D2E/DX2                !
 ! D65   D(1,19,21,25)          -0.4422         estimate D2E/DX2                !
 ! D66   D(20,19,21,24)          0.516          estimate D2E/DX2                !
 ! D67   D(20,19,21,25)        179.6432         estimate D2E/DX2                !
 ! D68   D(19,20,22,26)          0.0888         estimate D2E/DX2                !
 ! D69   D(19,20,22,27)        179.9766         estimate D2E/DX2                !
 ! D70   D(23,20,22,26)       -179.6323         estimate D2E/DX2                !
 ! D71   D(23,20,22,27)          0.2555         estimate D2E/DX2                !
 ! D72   D(19,21,24,26)         -0.2806         estimate D2E/DX2                !
 ! D73   D(19,21,24,28)        179.7782         estimate D2E/DX2                !
 ! D74   D(25,21,24,26)       -179.419          estimate D2E/DX2                !
 ! D75   D(25,21,24,28)          0.6398         estimate D2E/DX2                !
 ! D76   D(20,22,26,24)          0.1578         estimate D2E/DX2                !
 ! D77   D(20,22,26,29)        179.9647         estimate D2E/DX2                !
 ! D78   D(27,22,26,24)       -179.7294         estimate D2E/DX2                !
 ! D79   D(27,22,26,29)          0.0775         estimate D2E/DX2                !
 ! D80   D(21,24,26,22)         -0.063          estimate D2E/DX2                !
 ! D81   D(21,24,26,29)       -179.8701         estimate D2E/DX2                !
 ! D82   D(28,24,26,22)        179.8777         estimate D2E/DX2                !
 ! D83   D(28,24,26,29)          0.0707         estimate D2E/DX2                !
 ! D84   D(3,30,31,33)        -179.9054         estimate D2E/DX2                !
 ! D85   D(3,30,31,34)           0.2575         estimate D2E/DX2                !
 ! D86   D(32,30,31,33)         -0.2491         estimate D2E/DX2                !
 ! D87   D(32,30,31,34)        179.9138         estimate D2E/DX2                !
 ! D88   D(3,30,32,35)         179.8918         estimate D2E/DX2                !
 ! D89   D(3,30,32,36)          -1.0166         estimate D2E/DX2                !
 ! D90   D(31,30,32,35)          0.2408         estimate D2E/DX2                !
 ! D91   D(31,30,32,36)        179.3324         estimate D2E/DX2                !
 ! D92   D(30,31,33,37)          0.1578         estimate D2E/DX2                !
 ! D93   D(30,31,33,38)        179.9972         estimate D2E/DX2                !
 ! D94   D(34,31,33,37)        179.9943         estimate D2E/DX2                !
 ! D95   D(34,31,33,38)         -0.1662         estimate D2E/DX2                !
 ! D96   D(30,32,35,37)         -0.1417         estimate D2E/DX2                !
 ! D97   D(30,32,35,39)        179.9145         estimate D2E/DX2                !
 ! D98   D(36,32,35,37)       -179.2457         estimate D2E/DX2                !
 ! D99   D(36,32,35,39)          0.8106         estimate D2E/DX2                !
 ! D100  D(31,33,37,35)         -0.0506         estimate D2E/DX2                !
 ! D101  D(31,33,37,40)        179.823          estimate D2E/DX2                !
 ! D102  D(38,33,37,35)       -179.889          estimate D2E/DX2                !
 ! D103  D(38,33,37,40)         -0.0155         estimate D2E/DX2                !
 ! D104  D(32,35,37,33)          0.0428         estimate D2E/DX2                !
 ! D105  D(32,35,37,40)       -179.8308         estimate D2E/DX2                !
 ! D106  D(39,35,37,33)        179.9862         estimate D2E/DX2                !
 ! D107  D(39,35,37,40)          0.1126         estimate D2E/DX2                !
 --------------------------------------------------------------------------------
 Trust Radius=3.00D-01 FncErr=1.00D-07 GrdErr=1.00D-06 EigMax=2.50D+02 EigMin=1.00D-04
 Number of steps in this run=    231 maximum allowed number of steps=    240.
 GradGradGradGradGradGradGradGradGradGradGradGradGradGradGradGradGradGrad

 Leave Link  103 at Tue Jun 11 19:02:21 2019, MaxMem=   104857600 cpu:               1.4 elap:               0.1
 (Enter /project/6004141/group/g16/g16/l202.exe)
                          Input orientation:                          
 ---------------------------------------------------------------------
 Center     Atomic      Atomic             Coordinates (Angstroms)
 Number     Number       Type             X           Y           Z
 ---------------------------------------------------------------------
      1          6           0       -0.452711   -1.162282   -0.581175
      2          1           0        2.402605   -1.327116    0.786533
      3          6           0        0.540360   -0.685330    0.375038
      4          8           0        1.727777   -1.462547    0.072486
      5          8           0       -0.558353   -2.596861   -0.438024
      6          7           0        4.305597   -1.593516   -0.227703
      7          1           0        5.176066   -1.754099   -0.767539
      8          7           0        4.287493   -1.344945    0.973650
      9          1           0        0.391927   -2.889791   -0.332380
     10          1           0        3.407499   -1.651559   -0.760667
     11          6           0       -0.046575   -0.903586   -2.052214
     12          1           0        0.044509    0.156532   -2.292269
     13          1           0        0.915180   -1.379425   -2.254433
     14          1           0       -0.803071   -1.348371   -2.701807
     15          6           0        0.168958   -1.020142    1.837552
     16          1           0        0.975112   -0.693117    2.500037
     17          1           0       -0.753962   -0.535432    2.156151
     18          1           0        0.037563   -2.098046    1.936872
     19          6           0       -1.862063   -0.600939   -0.321020
     20          6           0       -2.792571   -1.345506    0.417409
     21          6           0       -2.254824    0.653905   -0.808811
     22          6           0       -4.072745   -0.848638    0.668678
     23          1           0       -2.504916   -2.320717    0.789617
     24          6           0       -3.533763    1.153901   -0.557244
     25          1           0       -1.559587    1.258865   -1.378400
     26          6           0       -4.449588    0.405110    0.183750
     27          1           0       -4.776041   -1.444904    1.243182
     28          1           0       -3.811860    2.130293   -0.943361
     29          1           0       -5.445374    0.792763    0.377928
     30          6           0        0.870009    0.816467    0.242461
     31          6           0        1.928792    1.237646   -0.573772
     32          6           0        0.137693    1.796039    0.929285
     33          6           0        2.244800    2.590464   -0.706026
     34          1           0        2.508331    0.498475   -1.112010
     35          6           0        0.450425    3.150381    0.800038
     36          1           0       -0.694589    1.510651    1.561227
     37          6           0        1.506325    3.554983   -0.018254
     38          1           0        3.070754    2.888300   -1.345496
     39          1           0       -0.133943    3.888090    1.342213
     40          1           0        1.751649    4.608256   -0.116909
 ---------------------------------------------------------------------
                    Distance matrix (angstroms):
                    1          2          3          4          5
     1  C    0.000000
     2  H    3.170272   0.000000
     3  C    1.458772   2.012256   0.000000
     4  O    2.296075   0.991765   1.451056   0.000000
     5  O    1.445569   3.446602   2.349934   2.602629   0.000000
     6  N    4.790866   2.172791   3.919835   2.598542   4.970809
     7  H    5.662871   3.207731   4.892598   3.561087   5.805376
     8  N    4.992032   1.894237   3.851550   2.716261   5.200225
     9  H    1.938969   2.781501   2.319940   1.996356   1.000000
    10  H    3.895232   1.873207   3.231704   1.884499   4.089704
    11  C    1.547846   3.773108   2.506727   2.824024   2.394725
    12  H    2.216831   4.152210   2.840621   3.323684   3.373846
    13  H    2.172112   3.385653   2.745246   2.466126   2.636815
    14  H    2.157420   4.737650   3.422193   3.756984   2.596792
    15  C    2.501383   2.487580   1.545634   2.396059   2.862389
    16  H    3.428216   2.318574   2.169030   2.655472   3.822036
    17  H    2.824296   3.530798   2.206831   3.370494   3.319261
    18  H    2.730675   2.740627   2.165155   2.595499   2.498812
    19  C    1.539175   4.465579   2.502650   3.712703   2.386850
    20  C    2.550625   5.208305   3.397949   4.534999   2.699886
    21  C    2.568650   5.306714   3.317846   4.595342   3.685509
    22  C    3.842545   6.494073   4.625325   5.863308   4.078238
    23  H    2.726277   5.007096   3.481389   4.377947   2.317858
    24  C    3.854628   6.572796   4.566224   5.909836   4.789102
    25  H    2.778974   5.203191   3.356221   4.507540   4.093092
    26  C    4.360832   7.093413   5.111285   6.454484   4.953801
    27  H    4.700993   7.194120   5.440105   6.608365   4.684266
    28  H    4.717638   7.318865   5.348619   6.680421   5.760786
    29  H    5.446904   8.139510   6.165532   7.525544   6.003191
    30  C    2.518613   2.690690   1.543256   2.441017   3.762192
    31  C    3.381015   2.941587   2.554569   2.783720   4.572501
    32  C    3.373682   3.860609   2.574203   3.725702   4.653126
    33  C    4.623338   4.195243   3.847680   4.159362   5.902358
    34  H    3.436229   2.635987   2.735985   2.420310   4.409072
    35  C    4.617626   4.884585   3.860232   4.841494   5.965000
    36  H    3.434088   4.271497   2.784686   4.113893   4.570254
    37  C    5.138803   5.028508   4.366695   5.023234   6.502637
    38  H    5.422749   4.770923   4.704675   4.769081   6.639346
    39  H    5.413621   5.825910   4.722953   5.805818   6.738246
    40  H    6.194663   6.038923   5.452640   6.073804   7.573172
                    6          7          8          9         10
     6  N    0.000000
     7  H    1.036786   0.000000
     8  N    1.226933   1.997175   0.000000
     9  H    4.124088   4.936309   4.389499   0.000000
    10  H    1.045944   1.771550   1.968821   3.287906   0.000000
    11  C    4.769302   5.445158   5.304224   2.663667   3.762736
    12  H    5.047967   5.684029   5.560897   3.638949   4.113964
    13  H    3.955805   4.528397   4.668426   2.499857   2.918398
    14  H    5.681529   6.297308   6.278761   3.068905   4.646380
    15  C    4.658950   5.691777   4.220682   2.872961   4.199712
    16  H    4.398115   5.426855   3.704943   3.631538   4.179391
    17  H    5.692226   6.722971   5.241172   3.612320   5.203011
    18  H    4.812073   5.816902   4.422314   2.429391   4.339647
    19  C    6.247715   7.145937   6.328250   3.212389   5.391231
    20  C    7.131737   8.066612   7.101881   3.617738   6.318417
    21  C    6.959002   7.811422   7.069263   4.448602   6.113868
    22  C    8.459016   9.403355   8.380508   5.010162   7.657791
    23  H    6.924366   7.857689   6.864606   3.158231   6.148805
    24  C    8.313391   9.184868   8.352240   5.640306   7.489533
    25  H    6.622731   7.404061   6.819114   4.702543   5.790000
    26  C    8.989831   9.910618   8.945570   5.879033   8.176529
    27  H    9.201181  10.157905   9.068092   5.592673   8.427837
    28  H    8.959466   9.792968   9.019519   6.576197   8.151989
    29  H   10.056965  10.982422   9.982654   6.938287   9.254430
    30  C    4.222835   5.115666   4.109201   3.780920   3.679168
    31  C    3.712741   4.419601   3.824626   4.410891   3.251001
    32  C    5.495373   6.392800   5.204670   4.859366   5.043164
    33  C    4.688429   5.241310   4.741450   5.797063   4.398820
    34  H    2.896306   3.508498   3.303573   4.070299   2.356818
    35  C    6.198642   6.988770   5.912799   6.145687   5.851386
    36  H    6.151259   7.109594   5.772419   4.912245   5.676080
    37  C    5.864029   6.497290   5.720845   6.547952   5.592291
    38  H    4.781315   5.130131   4.977877   6.448942   4.589743
    39  H    7.226490   8.030040   6.860728   7.001462   6.903016
    40  H    6.707973   7.254620   6.562044   7.623384   6.507038
                   11         12         13         14         15
    11  C    0.000000
    12  H    1.090767   0.000000
    13  H    1.091919   1.765974   0.000000
    14  H    1.091829   1.775062   1.775808   0.000000
    15  C    3.897476   4.295983   4.174958   4.653854   0.000000
    16  H    4.670239   4.955212   4.804123   5.536287   1.093488
    17  H    4.283255   4.572178   4.790784   4.925752   1.090060
    18  H    4.164927   4.792578   4.342081   4.773471   1.090416
    19  C    2.526781   2.845101   3.472349   2.710768   2.993361
    20  C    3.719519   4.200892   4.570263   3.699679   3.300503
    21  C    2.974591   2.781180   4.034003   3.114503   3.959847
    22  C    4.859662   5.170044   5.805662   4.722359   4.403149
    23  H    4.015931   4.704716   4.674326   4.003970   3.152660
    24  C    4.316094   4.099889   5.393634   4.279859   4.916468
    25  H    2.723862   2.150214   3.721892   3.020166   4.303962
    26  C    5.108693   5.137058   6.157113   4.969730   5.108559
    27  H    5.789690   6.188838   6.680389   5.599710   4.998671
    28  H    4.960983   4.537275   6.031744   4.924027   5.788405
    29  H    6.158752   6.137879   7.218336   5.968266   6.077652
    30  C    3.010688   2.746238   3.325427   4.019258   2.531585
    31  C    3.266916   2.769939   3.271252   4.321932   3.742874
    32  C    4.026322   3.615948   4.563345   4.894607   2.959189
    33  C    4.389876   3.644375   4.463796   5.365359   4.880101
    34  H    3.062238   2.753244   2.714732   4.111408   4.059406
    35  C    4.981666   4.323224   5.483150   5.837203   4.306846
    36  H    4.393793   4.150823   5.050065   5.134124   2.688305
    37  C    5.140752   4.342525   5.449618   6.047946   5.115109
    38  H    4.959394   4.185343   4.866841   5.898769   5.816196
    39  H    5.872813   5.212085   6.463995   6.649989   4.942454
    40  H    6.112235   5.240645   6.412567   6.977800   6.164714
                   16         17         18         19         20
    16  H    0.000000
    17  H    1.769977   0.000000
    18  H    1.780443   1.765321   0.000000
    19  C    4.002052   2.714508   3.308774   0.000000
    20  C    4.354123   2.799173   3.299203   1.401964   0.000000
    21  C    4.816163   3.529605   4.512987   1.402439   2.406332
    22  C    5.372050   3.650342   4.479282   2.434743   1.396016
    23  H    4.205379   2.849649   2.798209   2.145789   1.082738
    24  C    5.752251   4.235995   5.436004   2.435128   2.783226
    25  H    5.027644   4.044946   4.981041   2.160652   3.395280
    26  C    5.999888   4.293325   5.428973   2.821739   2.421768
    27  H    5.934697   4.223479   4.906993   3.413250   2.150799
    28  H    6.537869   5.105272   6.402550   3.413011   3.869344
    29  H    6.923426   5.189945   6.391376   3.907819   3.407509
    30  C    2.717819   2.850811   3.472518   3.129020   4.256668
    31  C    3.753086   4.218229   4.583331   4.220765   5.472329
    32  C    3.060136   2.781368   4.023575   3.362706   4.326404
    33  C    4.761602   5.191903   5.817124   5.215324   6.490691
    34  H    4.100919   4.732060   4.705560   4.575448   5.817126
    35  C    4.235300   4.107896   5.385985   4.547172   5.556656
    36  H    2.919907   2.131646   3.701331   3.060173   3.723907
    37  C    4.966924   5.154457   6.159263   5.358115   6.533384
    38  H    5.657419   6.213849   6.696106   6.128379   7.443892
    39  H    4.853660   4.540316   6.018044   5.089609   5.942566
    40  H    5.962883   6.156494   7.220152   6.343208   7.508842
                   21         22         23         24         25
    21  C    0.000000
    22  C    2.783064   0.000000
    23  H    3.386133   2.154003   0.000000
    24  C    1.396054   2.409056   3.865945   0.000000
    25  H    1.083403   3.866272   4.290379   2.140721   0.000000
    26  C    2.421583   1.396084   3.402787   1.395885   3.394306
    27  H    3.869394   1.086376   2.476041   3.396848   4.952639
    28  H    2.149927   3.397170   4.952051   1.086170   2.453850
    29  H    3.406940   2.159362   4.302271   2.158524   4.289671
    30  C    3.300936   5.233073   4.640196   4.488496   2.953954
    31  C    4.230678   6.474157   5.846242   5.463222   3.580037
    32  C    3.170108   4.978958   4.893932   4.012692   2.914571
    33  C    4.899739   7.323156   6.994030   5.956311   4.086392
    34  H    4.775326   6.949541   6.057778   6.102807   4.146940
    35  C    4.017357   6.038913   6.218285   4.658530   3.516187
    36  H    2.964022   4.216020   4.307209   3.560351   3.074577
    37  C    4.815338   7.140713   7.160067   5.608760   4.064723
    38  H    5.800201   8.309704   7.923425   6.873800   4.908788
    39  H    4.425494   6.197129   6.669045   4.758414   4.043145
    40  H    5.671635   8.019876   8.182347   6.329458   4.875865
                   26         27         28         29         30
    26  C    0.000000
    27  H    2.156738   0.000000
    28  H    2.157158   4.300308   0.000000
    29  H    1.086080   2.490748   2.490614   0.000000
    30  C    5.335801   6.163856   5.005218   6.316880   0.000000
    31  C    6.476935   7.446622   5.821383   7.448623   1.401660
    32  C    4.851150   5.894661   4.383777   5.699228   1.402703
    33  C    7.098049   8.329215   6.078751   7.971541   2.436543
    34  H    7.078160   7.898464   6.529631   8.097404   2.149374
    35  C    5.650350   6.973447   4.716682   6.363724   2.436000
    36  H    4.149660   5.049228   4.046516   4.948284   2.160787
    37  C    6.740579   8.127620   5.582890   7.490857   2.823533
    38  H    8.066001   9.330064   6.935897   8.937891   3.414290
    39  H    5.665508   7.071047   4.673411   6.222716   3.413538
    40  H    7.497478   9.005628   6.146215   8.160882   3.909488
                   31         32         33         34         35
    31  C    0.000000
    32  C    2.403959   0.000000
    33  C    1.395517   2.783029   0.000000
    34  H    1.082561   3.386810   2.147252   0.000000
    35  C    2.780554   1.395976   2.408634   3.863096   0.000000
    36  H    3.393358   1.083278   3.866063   4.292947   2.139902
    37  C    2.420151   2.421749   1.395949   3.397434   1.395790
    38  H    2.150417   3.869174   1.086199   2.466191   3.396782
    39  H    3.866617   2.149645   3.396695   4.949173   1.086119
    40  H    3.406041   3.407043   2.159107   4.295706   2.158559
                   36         37         38         39         40
    36  H    0.000000
    37  C    3.393829   0.000000
    38  H    4.952248   2.157192   0.000000
    39  H    2.452449   2.156921   4.300400   0.000000
    40  H    4.288983   1.085956   2.491528   2.490609   0.000000
 Stoichiometry    C16H20N2O2
 Framework group  C1[X(C16H20N2O2)]
 Deg. of freedom   114
 Full point group                 C1      NOp   1
 Largest Abelian subgroup         C1      NOp   1
 Largest concise Abelian subgroup C1      NOp   1
                         Standard orientation:                         
 ---------------------------------------------------------------------
 Center     Atomic      Atomic             Coordinates (Angstroms)
 Number     Number       Type             X           Y           Z
 ---------------------------------------------------------------------
      1          6           0        0.452711   -1.162282    0.581175
      2          1           0       -2.402605   -1.327116   -0.786533
      3          6           0       -0.540360   -0.685330   -0.375038
      4          8           0       -1.727777   -1.462547   -0.072486
      5          8           0        0.558353   -2.596861    0.438024
      6          7           0       -4.305597   -1.593516    0.227703
      7          1           0       -5.176066   -1.754099    0.767539
      8          7           0       -4.287493   -1.344945   -0.973650
      9          1           0       -0.391927   -2.889791    0.332380
     10          1           0       -3.407499   -1.651559    0.760667
     11          6           0        0.046575   -0.903586    2.052214
     12          1           0       -0.044509    0.156532    2.292269
     13          1           0       -0.915180   -1.379425    2.254433
     14          1           0        0.803071   -1.348371    2.701807
     15          6           0       -0.168958   -1.020142   -1.837552
     16          1           0       -0.975112   -0.693117   -2.500037
     17          1           0        0.753962   -0.535432   -2.156151
     18          1           0       -0.037563   -2.098046   -1.936872
     19          6           0        1.862063   -0.600939    0.321020
     20          6           0        2.792571   -1.345506   -0.417409
     21          6           0        2.254824    0.653905    0.808811
     22          6           0        4.072745   -0.848638   -0.668678
     23          1           0        2.504916   -2.320717   -0.789617
     24          6           0        3.533763    1.153901    0.557244
     25          1           0        1.559587    1.258865    1.378400
     26          6           0        4.449588    0.405110   -0.183750
     27          1           0        4.776041   -1.444904   -1.243182
     28          1           0        3.811860    2.130293    0.943361
     29          1           0        5.445374    0.792763   -0.377928
     30          6           0       -0.870009    0.816467   -0.242461
     31          6           0       -1.928792    1.237646    0.573772
     32          6           0       -0.137693    1.796039   -0.929285
     33          6           0       -2.244800    2.590464    0.706026
     34          1           0       -2.508331    0.498475    1.112010
     35          6           0       -0.450425    3.150381   -0.800038
     36          1           0        0.694589    1.510651   -1.561227
     37          6           0       -1.506325    3.554983    0.018254
     38          1           0       -3.070754    2.888300    1.345496
     39          1           0        0.133943    3.888090   -1.342213
     40          1           0       -1.751649    4.608256    0.116909
 ---------------------------------------------------------------------
 Rotational constants (GHZ):           0.4963222           0.2722144           0.2058841
 Leave Link  202 at Tue Jun 11 19:02:21 2019, MaxMem=   104857600 cpu:               5.7 elap:               0.2
 (Enter /project/6004141/group/g16/g16/l301.exe)
 Standard basis: 6-31G(d,p) (6D, 7F)
 Ernie: Thresh=  0.10000D-02 Tol=  0.10000D-05 Strict=F.
 There are   400 symmetry adapted cartesian basis functions of A   symmetry.
 There are   400 symmetry adapted basis functions of A   symmetry.
   400 basis functions,   700 primitive gaussians,   400 cartesian basis functions
    73 alpha electrons       73 beta electrons
       nuclear repulsion energy      1603.9029792836 Hartrees.
 IExCor=  402 DFT=T Ex+Corr=B3LYP ExCW=0 ScaHFX=  0.200000
 ScaDFX=  0.800000  0.720000  1.000000  0.810000 ScalE2=  1.000000  1.000000
 IRadAn=      5 IRanWt=     -1 IRanGd=            0 ICorTp=0 IEmpDi=131
 NAtoms=   40 NActive=   40 NUniq=   40 SFac= 1.00D+00 NAtFMM=   60 NAOKFM=F Big=F
 Integral buffers will be    131072 words long.
 Raffenetti 2 integral format.
 Two-electron integral symmetry is turned on.
 R6Disp:  Grimme-D3 Dispersion energy=       -0.0483831987 Hartrees.
 Nuclear repulsion after empirical dispersion term =     1603.8545960849 Hartrees.
 ------------------------------------------------------------------------------
 Polarizable Continuum Model (PCM)
 =================================
 Model                : PCM.
 Atomic radii         : UFF (Universal Force Field).
 Polarization charges : Total charges.
 Charge compensation  : None.
 Solution method      : On-the-fly selection.
 Cavity type          : Scaled VdW (van der Waals Surface) (Alpha=1.100).
 Cavity algorithm     : GePol (No added spheres)
                        Default sphere list used, NSphG=   40.
                        Lebedev-Laikov grids with approx.  5.0 points / Ang**2.
                        Smoothing algorithm: York/Karplus (Gamma=1.0000).
                        Polarization charges: spherical gaussians, with
                                              point-specific exponents (IZeta= 3).
                        Self-potential: point-specific (ISelfS= 7).
                        Self-field    : sphere-specific E.n sum rule (ISelfD= 2).
 1st derivatives      : Analytical E(r).r(x)/FMM algorithm (CHGder, D1EAlg=3).
                        Cavity 1st derivative terms included.
 Solvent              : Acetonitrile, Eps=  35.688000 Eps(inf)=   1.806874
 ------------------------------------------------------------------------------
 GePol: Number of generator spheres                  =      40
 GePol: Total number of spheres                      =      40
 GePol: Number of exposed spheres                    =      40 (100.00%)
 GePol: Number of points                             =    2704
 GePol: Average weight of points                     =       0.13
 GePol: Minimum weight of points                     =   0.13D-09
 GePol: Maximum weight of points                     =    0.20577
 GePol: Number of points with low weight             =     189
 GePol: Fraction of low-weight points (<1% of avg)   =       6.99%
 GePol: Cavity surface area                          =    351.261 Ang**2
 GePol: Cavity volume                                =    397.545 Ang**3
 Leave Link  301 at Tue Jun 11 19:02:22 2019, MaxMem=   104857600 cpu:              12.3 elap:               0.3
 (Enter /project/6004141/group/g16/g16/l302.exe)
 NPDir=0 NMtPBC=     1 NCelOv=     1 NCel=       1 NClECP=     1 NCelD=      1
         NCelK=      1 NCelE2=     1 NClLst=     1 CellRange=     0.0.
 One-electron integrals computed using PRISM.
 One-electron integral symmetry used in STVInt
 PrsmSu:  requested number of processors reduced to:  27 ShMem   1 Linda.
 NBasis=   400 RedAO= T EigKep=  4.38D-04  NBF=   400
 NBsUse=   400 1.00D-06 EigRej= -1.00D+00 NBFU=   400
 Precomputing XC quadrature grid using
 IXCGrd= 4 IRadAn=           5 IRanWt=          -1 IRanGd=           0 AccXCQ= 0.00D+00.
 Generated NRdTot=       0 NPtTot=           0 NUsed=           0 NTot=          32
 NSgBfM=   398   397   398   398   398 MxSgAt=    40 MxSgA2=    40.
 Leave Link  302 at Tue Jun 11 19:02:23 2019, MaxMem=   104857600 cpu:              26.0 elap:               0.7
 (Enter /project/6004141/group/g16/g16/l303.exe)
 DipDrv:  MaxL=1.
 Leave Link  303 at Tue Jun 11 19:02:23 2019, MaxMem=   104857600 cpu:               5.3 elap:               0.2
 (Enter /project/6004141/group/g16/g16/l401.exe)
 ExpMin= 1.61D-01 ExpMax= 5.48D+03 ExpMxC= 8.25D+02 IAcc=3 IRadAn=         5 AccDes= 0.00D+00
 Harris functional with IExCor=  402 and IRadAn=       5 diagonalized for initial guess.
 HarFok:  IExCor=  402 AccDes= 0.00D+00 IRadAn=         5 IDoV= 1 UseB2=F ITyADJ=14
 ICtDFT=  3500011 ScaDFX=  1.000000  1.000000  1.000000  1.000000
 FoFCou: FMM=F IPFlag=           0 FMFlag=      100000 FMFlg1=           0
         NFxFlg=           0 DoJE=T BraDBF=F KetDBF=T FulRan=T
         wScrn=  0.000000 ICntrl=       500 IOpCl=  0 I1Cent=   200000004 NGrid=           0
         NMat0=    1 NMatS0=      1 NMatT0=    0 NMatD0=    1 NMtDS0=    0 NMtDT0=    0
 Petite list used in FoFCou.
 Harris En= -881.708443358606    
 JPrj=0 DoOrth=F DoCkMO=T.
 Mixing orbitals, IMix= 1 IMixAn=  0 NRI=1 NE=   73 Coef=  7.07106781D-01  7.07106781D-01
 Mixing orbitals, IMix= 1 IMixAn=  0 NRI=1 NE=   73 Coef= -7.07106781D-01  7.07106781D-01
 Initial guess <Sx>= 0.0000 <Sy>= 0.0000 <Sz>= 0.0000 <S**2>= 1.0000 S= 0.6180
 Leave Link  401 at Tue Jun 11 19:02:24 2019, MaxMem=   104857600 cpu:              42.4 elap:               1.1
 (Enter /project/6004141/group/g16/g16/l502.exe)
 Integral symmetry usage will be decided dynamically.
 UHF open shell SCF:
 Using DIIS extrapolation, IDIIS=  1040.
 NGot=   104857600 LenX=   104517248 LenY=   104356807
 Requested convergence on RMS density matrix=1.00D-08 within 128 cycles.
 Requested convergence on MAX density matrix=1.00D-06.
 Requested convergence on             energy=1.00D-06.
 No special actions if energy rises.
 Fock matrices will be formed incrementally for  20 cycles.

 Cycle   1  Pass 1  IDiag  1:
 FoFJK:  IHMeth= 1 ICntrl=       0 DoSepK=F KAlg= 0 I1Cent=           0 FoldK=F
 IRaf= 800000000 NMat=       1 IRICut=       1 DoRegI=T DoRafI=F ISym2E= 0 IDoP0=0 IntGTp=1.
 FoFCou: FMM=F IPFlag=           0 FMFlag=      100000 FMFlg1=           0
         NFxFlg=           0 DoJE=F BraDBF=F KetDBF=F FulRan=T
         wScrn=  0.000000 ICntrl=         0 IOpCl=  1 I1Cent=           0 NGrid=           0
         NMat0=    1 NMatS0=      1 NMatT0=    0 NMatD0=    1 NMtDS0=    0 NMtDT0=    0
 Symmetry not used in FoFCou.
 CoulSu:  requested number of processors reduced to:  39 ShMem   1 Linda.
 Inv3:  Mode=1 IEnd=    21934848.
 Iteration    1 A*A^-1 deviation from unit magnitude is 3.77D-15 for   2170.
 Iteration    1 A*A^-1 deviation from orthogonality  is 1.90D-15 for   1704    375.
 Iteration    1 A^-1*A deviation from unit magnitude is 3.77D-15 for   2170.
 Iteration    1 A^-1*A deviation from orthogonality  is 1.80D-15 for   2314   2137.
 CoulSu:  requested number of processors reduced to:  39 ShMem   1 Linda.
 CoulSu:  requested number of processors reduced to:  39 ShMem   1 Linda.
 E= -880.819623642628    
 DIIS: error= 3.08D-02 at cycle   1 NSaved=   1.
 NSaved= 1 IEnMin= 1 EnMin= -880.819623642628     IErMin= 1 ErrMin= 3.08D-02
 ErrMax= 3.08D-02  0.00D+00 EMaxC= 1.00D-01 BMatC= 2.59D+00 BMatP= 2.59D+00
 IDIUse=3 WtCom= 6.92D-01 WtEn= 3.08D-01
 Coeff-Com:  0.100D+01
 Coeff-En:   0.100D+01
 Coeff:      0.100D+01
 Gap=     0.013 Goal=   None    Shift=    0.000
 Gap=     0.024 Goal=   None    Shift=    0.000
 GapD=    0.013 DampG=0.250 DampE=0.500 DampFc=0.2500 IDamp=-1.
 Damping current iteration by 2.50D-01
 RMSDP=5.44D-03 MaxDP=3.77D-01              OVMax= 7.33D-01

 Cycle   2  Pass 1  IDiag  1:
 RMSU=  1.34D-03    CP:  9.85D-01
 E= -881.098043931826     Delta-E=       -0.278420289198 Rises=F Damp=T
 DIIS: error= 1.57D-02 at cycle   2 NSaved=   2.
 NSaved= 2 IEnMin= 2 EnMin= -881.098043931826     IErMin= 2 ErrMin= 1.57D-02
 ErrMax= 1.57D-02  0.00D+00 EMaxC= 1.00D-01 BMatC= 5.57D-01 BMatP= 2.59D+00
 IDIUse=3 WtCom= 8.43D-01 WtEn= 1.57D-01
 Coeff-Com: -0.418D+00 0.142D+01
 Coeff-En:   0.000D+00 0.100D+01
 Coeff:     -0.353D+00 0.135D+01
 Gap=     0.006 Goal=   None    Shift=    0.000
 Gap=     0.007 Goal=   None    Shift=    0.000
 RMSDP=2.46D-03 MaxDP=1.52D-01 DE=-2.78D-01 OVMax= 7.87D-01

 Cycle   3  Pass 1  IDiag  1:
 RMSU=  2.33D-03    CP:  9.57D-01  1.49D+00
 E= -881.586879761130     Delta-E=       -0.488835829304 Rises=F Damp=F
 DIIS: error= 2.65D-02 at cycle   3 NSaved=   3.
 NSaved= 3 IEnMin= 3 EnMin= -881.586879761130     IErMin= 2 ErrMin= 1.57D-02
 ErrMax= 2.65D-02  0.00D+00 EMaxC= 1.00D-01 BMatC= 4.02D-01 BMatP= 5.57D-01
 IDIUse=3 WtCom= 7.35D-01 WtEn= 2.65D-01
 Coeff-Com: -0.241D+00 0.754D+00 0.487D+00
 Coeff-En:   0.000D+00 0.000D+00 0.100D+01
 Coeff:     -0.177D+00 0.554D+00 0.623D+00
 Gap=     0.213 Goal=   None    Shift=    0.000
 Gap=     0.215 Goal=   None    Shift=    0.000
 RMSDP=1.11D-03 MaxDP=1.14D-01 DE=-4.89D-01 OVMax= 1.40D-01

 Cycle   4  Pass 1  IDiag  1:
 RMSU=  9.37D-04    CP:  9.61D-01  1.41D+00  7.51D-01
 E= -881.672590066942     Delta-E=       -0.085710305812 Rises=F Damp=F
 DIIS: error= 7.86D-03 at cycle   4 NSaved=   4.
 NSaved= 4 IEnMin= 4 EnMin= -881.672590066942     IErMin= 4 ErrMin= 7.86D-03
 ErrMax= 7.86D-03  0.00D+00 EMaxC= 1.00D-01 BMatC= 5.66D-02 BMatP= 4.02D-01
 IDIUse=3 WtCom= 9.21D-01 WtEn= 7.86D-02
 Coeff-Com: -0.666D-01 0.176D+00 0.290D+00 0.601D+00
 Coeff-En:   0.000D+00 0.000D+00 0.389D-01 0.961D+00
 Coeff:     -0.614D-01 0.162D+00 0.270D+00 0.629D+00
 Gap=     0.152 Goal=   None    Shift=    0.000
 Gap=     0.152 Goal=   None    Shift=    0.000
 RMSDP=3.68D-04 MaxDP=3.31D-02 DE=-8.57D-02 OVMax= 3.70D-02

 Cycle   5  Pass 1  IDiag  1:
 RMSU=  2.19D-04    CP:  9.60D-01  1.46D+00  8.22D-01  7.49D-01
 E= -881.682409625739     Delta-E=       -0.009819558797 Rises=F Damp=F
 DIIS: error= 5.28D-03 at cycle   5 NSaved=   5.
 NSaved= 5 IEnMin= 5 EnMin= -881.682409625739     IErMin= 5 ErrMin= 5.28D-03
 ErrMax= 5.28D-03  0.00D+00 EMaxC= 1.00D-01 BMatC= 1.51D-02 BMatP= 5.66D-02
 IDIUse=3 WtCom= 9.47D-01 WtEn= 5.28D-02
 Coeff-Com: -0.247D-01 0.442D-01 0.124D+00 0.420D+00 0.436D+00
 Coeff-En:   0.000D+00 0.000D+00 0.000D+00 0.186D+00 0.814D+00
 Coeff:     -0.234D-01 0.419D-01 0.118D+00 0.408D+00 0.456D+00
 Gap=     0.159 Goal=   None    Shift=    0.000
 Gap=     0.159 Goal=   None    Shift=    0.000
 RMSDP=1.48D-04 MaxDP=1.38D-02 DE=-9.82D-03 OVMax= 2.15D-02

 Cycle   6  Pass 1  IDiag  1:
 RMSU=  7.75D-05    CP:  9.60D-01  1.46D+00  8.07D-01  8.15D-01  5.21D-01
 E= -881.685587356782     Delta-E=       -0.003177731043 Rises=F Damp=F
 DIIS: error= 1.35D-03 at cycle   6 NSaved=   6.
 NSaved= 6 IEnMin= 6 EnMin= -881.685587356782     IErMin= 6 ErrMin= 1.35D-03
 ErrMax= 1.35D-03  0.00D+00 EMaxC= 1.00D-01 BMatC= 6.12D-04 BMatP= 1.51D-02
 IDIUse=3 WtCom= 9.87D-01 WtEn= 1.35D-02
 Coeff-Com: -0.422D-02 0.131D-02 0.119D-01 0.103D+00 0.217D+00 0.671D+00
 Coeff-En:   0.000D+00 0.000D+00 0.000D+00 0.000D+00 0.000D+00 0.100D+01
 Coeff:     -0.416D-02 0.130D-02 0.117D-01 0.101D+00 0.214D+00 0.675D+00
 Gap=     0.159 Goal=   None    Shift=    0.000
 Gap=     0.159 Goal=   None    Shift=    0.000
 RMSDP=3.22D-05 MaxDP=3.24D-03 DE=-3.18D-03 OVMax= 3.34D-03

 Cycle   7  Pass 1  IDiag  1:
 RMSU=  1.99D-05    CP:  9.60D-01  1.46D+00  8.07D-01  8.22D-01  5.95D-01
                    CP:  7.69D-01
 E= -881.685711398744     Delta-E=       -0.000124041962 Rises=F Damp=F
 DIIS: error= 2.29D-04 at cycle   7 NSaved=   7.
 NSaved= 7 IEnMin= 7 EnMin= -881.685711398744     IErMin= 7 ErrMin= 2.29D-04
 ErrMax= 2.29D-04  0.00D+00 EMaxC= 1.00D-01 BMatC= 6.91D-05 BMatP= 6.12D-04
 IDIUse=3 WtCom= 9.98D-01 WtEn= 2.29D-03
 Coeff-Com: -0.154D-02 0.107D-03-0.119D-02 0.269D-01 0.813D-01 0.372D+00
 Coeff-Com:  0.523D+00
 Coeff-En:   0.000D+00 0.000D+00 0.000D+00 0.000D+00 0.000D+00 0.961D-02
 Coeff-En:   0.990D+00
 Coeff:     -0.154D-02 0.107D-03-0.118D-02 0.269D-01 0.811D-01 0.371D+00
 Coeff:      0.524D+00
 Gap=     0.160 Goal=   None    Shift=    0.000
 Gap=     0.160 Goal=   None    Shift=    0.000
 RMSDP=1.14D-05 MaxDP=6.33D-04 DE=-1.24D-04 OVMax= 7.74D-04

 Cycle   8  Pass 1  IDiag  1:
 RMSU=  8.01D-06    CP:  9.60D-01  1.46D+00  8.07D-01  8.23D-01  6.02D-01
                    CP:  8.05D-01  6.34D-01
 E= -881.685726179779     Delta-E=       -0.000014781035 Rises=F Damp=F
 DIIS: error= 3.56D-05 at cycle   8 NSaved=   8.
 NSaved= 8 IEnMin= 8 EnMin= -881.685726179779     IErMin= 8 ErrMin= 3.56D-05
 ErrMax= 3.56D-05  0.00D+00 EMaxC= 1.00D-01 BMatC= 4.59D-06 BMatP= 6.91D-05
 IDIUse=1 WtCom= 1.00D+00 WtEn= 0.00D+00
 Coeff-Com: -0.245D-03 0.183D-04-0.208D-02-0.165D-02 0.335D-02 0.707D-01
 Coeff-Com:  0.233D+00 0.697D+00
 Coeff:     -0.245D-03 0.183D-04-0.208D-02-0.165D-02 0.335D-02 0.707D-01
 Coeff:      0.233D+00 0.697D+00
 Gap=     0.160 Goal=   None    Shift=    0.000
 Gap=     0.160 Goal=   None    Shift=    0.000
 RMSDP=3.53D-06 MaxDP=1.64D-04 DE=-1.48D-05 OVMax= 5.15D-04

 Cycle   9  Pass 1  IDiag  1:
 RMSU=  2.60D-06    CP:  9.60D-01  1.46D+00  8.06D-01  8.24D-01  6.01D-01
                    CP:  8.12D-01  7.12D-01  8.45D-01
 E= -881.685727239840     Delta-E=       -0.000001060062 Rises=F Damp=F
 DIIS: error= 1.89D-05 at cycle   9 NSaved=   9.
 NSaved= 9 IEnMin= 9 EnMin= -881.685727239840     IErMin= 9 ErrMin= 1.89D-05
 ErrMax= 1.89D-05  0.00D+00 EMaxC= 1.00D-01 BMatC= 6.43D-07 BMatP= 4.59D-06
 IDIUse=1 WtCom= 1.00D+00 WtEn= 0.00D+00
 Coeff-Com: -0.405D-04 0.266D-04-0.991D-03-0.225D-02-0.305D-02 0.171D-01
 Coeff-Com:  0.941D-01 0.376D+00 0.519D+00
 Coeff:     -0.405D-04 0.266D-04-0.991D-03-0.225D-02-0.305D-02 0.171D-01
 Coeff:      0.941D-01 0.376D+00 0.519D+00
 Gap=     0.160 Goal=   None    Shift=    0.000
 Gap=     0.160 Goal=   None    Shift=    0.000
 RMSDP=1.41D-06 MaxDP=1.05D-04 DE=-1.06D-06 OVMax= 2.88D-04

 Cycle  10  Pass 1  IDiag  1:
 RMSU=  1.27D-06    CP:  9.60D-01  1.46D+00  8.06D-01  8.24D-01  6.01D-01
                    CP:  8.15D-01  7.19D-01  9.08D-01  9.51D-01
 E= -881.685727480455     Delta-E=       -0.000000240615 Rises=F Damp=F
 DIIS: error= 1.74D-05 at cycle  10 NSaved=  10.
 NSaved=10 IEnMin=10 EnMin= -881.685727480455     IErMin=10 ErrMin= 1.74D-05
 ErrMax= 1.74D-05  0.00D+00 EMaxC= 1.00D-01 BMatC= 7.04D-08 BMatP= 6.43D-07
 IDIUse=1 WtCom= 1.00D+00 WtEn= 0.00D+00
 Coeff-Com:  0.334D-04-0.170D-04-0.158D-04-0.430D-03-0.142D-02-0.318D-02
 Coeff-Com: -0.296D-03 0.288D-01 0.166D+00 0.810D+00
 Coeff:      0.334D-04-0.170D-04-0.158D-04-0.430D-03-0.142D-02-0.318D-02
 Coeff:     -0.296D-03 0.288D-01 0.166D+00 0.810D+00
 Gap=     0.160 Goal=   None    Shift=    0.000
 Gap=     0.160 Goal=   None    Shift=    0.000
 RMSDP=1.34D-06 MaxDP=1.53D-04 DE=-2.41D-07 OVMax= 4.17D-04

 Cycle  11  Pass 1  IDiag  1:
 RMSU=  5.96D-07    CP:  9.60D-01  1.46D+00  8.06D-01  8.24D-01  6.01D-01
                    CP:  8.16D-01  7.28D-01  9.50D-01  1.29D+00  1.57D+00
 E= -881.685727621023     Delta-E=       -0.000000140568 Rises=F Damp=F
 DIIS: error= 1.54D-05 at cycle  11 NSaved=  11.
 NSaved=11 IEnMin=11 EnMin= -881.685727621023     IErMin=11 ErrMin= 1.54D-05
 ErrMax= 1.54D-05  0.00D+00 EMaxC= 1.00D-01 BMatC= 4.30D-08 BMatP= 7.04D-08
 IDIUse=1 WtCom= 1.00D+00 WtEn= 0.00D+00
 Coeff-Com:  0.337D-04-0.422D-04 0.202D-03 0.341D-03 0.256D-03-0.426D-02
 Coeff-Com: -0.194D-01-0.692D-01-0.516D-01 0.302D+00 0.842D+00
 Coeff:      0.337D-04-0.422D-04 0.202D-03 0.341D-03 0.256D-03-0.426D-02
 Coeff:     -0.194D-01-0.692D-01-0.516D-01 0.302D+00 0.842D+00
 Gap=     0.160 Goal=   None    Shift=    0.000
 Gap=     0.160 Goal=   None    Shift=    0.000
 RMSDP=1.38D-06 MaxDP=1.61D-04 DE=-1.41D-07 OVMax= 4.37D-04

 Cycle  12  Pass 1  IDiag  1:
 RMSU=  3.22D-07    CP:  9.60D-01  1.46D+00  8.06D-01  8.24D-01  6.01D-01
                    CP:  8.17D-01  7.34D-01  9.91D-01  1.58D+00  2.32D+00
                    CP:  1.70D+00
 E= -881.685727744639     Delta-E=       -0.000000123615 Rises=F Damp=F
 DIIS: error= 1.34D-05 at cycle  12 NSaved=  12.
 NSaved=12 IEnMin=12 EnMin= -881.685727744639     IErMin=12 ErrMin= 1.34D-05
 ErrMax= 1.34D-05  0.00D+00 EMaxC= 1.00D-01 BMatC= 3.10D-08 BMatP= 4.30D-08
 IDIUse=1 WtCom= 1.00D+00 WtEn= 0.00D+00
 Coeff-Com: -0.306D-04 0.318D-04 0.169D-03 0.649D-03 0.171D-02 0.703D-03
 Coeff-Com: -0.114D-01-0.734D-01-0.208D+00-0.686D+00 0.556D+00 0.142D+01
 Coeff:     -0.306D-04 0.318D-04 0.169D-03 0.649D-03 0.171D-02 0.703D-03
 Coeff:     -0.114D-01-0.734D-01-0.208D+00-0.686D+00 0.556D+00 0.142D+01
 Gap=     0.160 Goal=   None    Shift=    0.000
 Gap=     0.160 Goal=   None    Shift=    0.000
 RMSDP=3.05D-06 MaxDP=3.60D-04 DE=-1.24D-07 OVMax= 9.77D-04

 Cycle  13  Pass 1  IDiag  1:
 RMSU=  1.24D-06    CP:  9.60D-01  1.46D+00  8.06D-01  8.24D-01  6.01D-01
                    CP:  8.18D-01  7.51D-01  1.07D+00  2.27D+00  3.00D+00
                    CP:  3.00D+00  2.05D+00
 E= -881.685727952411     Delta-E=       -0.000000207773 Rises=F Damp=F
 DIIS: error= 8.89D-06 at cycle  13 NSaved=  13.
 NSaved=13 IEnMin=13 EnMin= -881.685727952411     IErMin=13 ErrMin= 8.89D-06
 ErrMax= 8.89D-06  0.00D+00 EMaxC= 1.00D-01 BMatC= 1.75D-08 BMatP= 3.10D-08
 IDIUse=1 WtCom= 1.00D+00 WtEn= 0.00D+00
 Coeff-Com: -0.405D-04 0.374D-04-0.237D-04 0.275D-03 0.103D-02 0.278D-02
 Coeff-Com:  0.316D-02-0.978D-02-0.107D+00-0.631D+00-0.106D+00 0.939D+00
 Coeff-Com:  0.907D+00
 Coeff:     -0.405D-04 0.374D-04-0.237D-04 0.275D-03 0.103D-02 0.278D-02
 Coeff:      0.316D-02-0.978D-02-0.107D+00-0.631D+00-0.106D+00 0.939D+00
 Coeff:      0.907D+00
 Gap=     0.160 Goal=   None    Shift=    0.000
 Gap=     0.160 Goal=   None    Shift=    0.000
 RMSDP=2.41D-06 MaxDP=2.85D-04 DE=-2.08D-07 OVMax= 7.71D-04

 Cycle  14  Pass 1  IDiag  1:
 RMSU=  5.44D-07    CP:  9.60D-01  1.46D+00  8.06D-01  8.24D-01  6.01D-01
                    CP:  8.19D-01  7.62D-01  1.14D+00  2.78D+00  3.00D+00
                    CP:  3.00D+00  3.00D+00  2.44D+00
 E= -881.685728055161     Delta-E=       -0.000000102749 Rises=F Damp=F
 DIIS: error= 5.24D-06 at cycle  14 NSaved=  14.
 NSaved=14 IEnMin=14 EnMin= -881.685728055161     IErMin=14 ErrMin= 5.24D-06
 ErrMax= 5.24D-06  0.00D+00 EMaxC= 1.00D-01 BMatC= 8.19D-09 BMatP= 1.75D-08
 IDIUse=1 WtCom= 1.00D+00 WtEn= 0.00D+00
 Coeff-Com: -0.225D-04 0.333D-04-0.121D-03-0.206D-03-0.435D-03 0.113D-02
 Coeff-Com:  0.890D-02 0.399D-01 0.634D-01 0.214D-01-0.417D+00-0.299D+00
 Coeff-Com:  0.594D+00 0.989D+00
 Coeff:     -0.225D-04 0.333D-04-0.121D-03-0.206D-03-0.435D-03 0.113D-02
 Coeff:      0.890D-02 0.399D-01 0.634D-01 0.214D-01-0.417D+00-0.299D+00
 Coeff:      0.594D+00 0.989D+00
 Gap=     0.160 Goal=   None    Shift=    0.000
 Gap=     0.160 Goal=   None    Shift=    0.000
 RMSDP=1.99D-06 MaxDP=2.36D-04 DE=-1.03D-07 OVMax= 6.39D-04

 Cycle  15  Pass 1  IDiag  1:
 RMSU=  1.03D-06    CP:  9.60D-01  1.46D+00  8.06D-01  8.24D-01  6.01D-01
                    CP:  8.20D-01  7.72D-01  1.19D+00  3.00D+00  3.00D+00
                    CP:  3.00D+00  3.00D+00  3.00D+00  1.68D+00
 E= -881.685728100918     Delta-E=       -0.000000045757 Rises=F Damp=F
 DIIS: error= 2.19D-06 at cycle  15 NSaved=  15.
 NSaved=15 IEnMin=15 EnMin= -881.685728100918     IErMin=15 ErrMin= 2.19D-06
 ErrMax= 2.19D-06  0.00D+00 EMaxC= 1.00D-01 BMatC= 2.18D-09 BMatP= 8.19D-09
 IDIUse=1 WtCom= 1.00D+00 WtEn= 0.00D+00
 Coeff-Com:  0.710D-05-0.857D-05-0.442D-04-0.135D-03-0.452D-03-0.284D-03
 Coeff-Com:  0.244D-02 0.183D-01 0.581D-01 0.215D+00-0.135D+00-0.433D+00
 Coeff-Com: -0.625D-01 0.422D+00 0.916D+00
 Coeff:      0.710D-05-0.857D-05-0.442D-04-0.135D-03-0.452D-03-0.284D-03
 Coeff:      0.244D-02 0.183D-01 0.581D-01 0.215D+00-0.135D+00-0.433D+00
 Coeff:     -0.625D-01 0.422D+00 0.916D+00
 Gap=     0.160 Goal=   None    Shift=    0.000
 Gap=     0.160 Goal=   None    Shift=    0.000
 RMSDP=8.81D-07 MaxDP=1.04D-04 DE=-4.58D-08 OVMax= 2.82D-04

 Cycle  16  Pass 1  IDiag  1:
 RMSU=  1.84D-07    CP:  9.60D-01  1.46D+00  8.06D-01  8.25D-01  6.01D-01
                    CP:  8.20D-01  7.76D-01  1.21D+00  3.00D+00  3.00D+00
                    CP:  3.00D+00  3.00D+00  3.00D+00  2.03D+00  1.79D+00
 E= -881.685728110016     Delta-E=       -0.000000009099 Rises=F Damp=F
 DIIS: error= 8.75D-07 at cycle  16 NSaved=  16.
 NSaved=16 IEnMin=16 EnMin= -881.685728110016     IErMin=16 ErrMin= 8.75D-07
 ErrMax= 8.75D-07  0.00D+00 EMaxC= 1.00D-01 BMatC= 1.14D-09 BMatP= 2.18D-09
 IDIUse=1 WtCom= 1.00D+00 WtEn= 0.00D+00
 Coeff-Com:  0.132D-04-0.161D-04 0.101D-04-0.415D-04-0.185D-03-0.486D-03
 Coeff-Com: -0.905D-03 0.618D-03 0.192D-01 0.137D+00 0.364D-01-0.192D+00
 Coeff-Com: -0.224D+00-0.385D-01 0.583D+00 0.680D+00
 Coeff:      0.132D-04-0.161D-04 0.101D-04-0.415D-04-0.185D-03-0.486D-03
 Coeff:     -0.905D-03 0.618D-03 0.192D-01 0.137D+00 0.364D-01-0.192D+00
 Coeff:     -0.224D+00-0.385D-01 0.583D+00 0.680D+00
 Gap=     0.160 Goal=   None    Shift=    0.000
 Gap=     0.160 Goal=   None    Shift=    0.000
 RMSDP=3.53D-07 MaxDP=4.11D-05 DE=-9.10D-09 OVMax= 1.12D-04

 Cycle  17  Pass 1  IDiag  1:
 RMSU=  6.69D-08    CP:  9.60D-01  1.46D+00  8.06D-01  8.25D-01  6.01D-01
                    CP:  8.20D-01  7.77D-01  1.22D+00  3.00D+00  3.00D+00
                    CP:  3.00D+00  3.00D+00  3.00D+00  2.16D+00  2.11D+00
                    CP:  1.21D+00
 E= -881.685728111976     Delta-E=       -0.000000001959 Rises=F Damp=F
 DIIS: error= 4.20D-07 at cycle  17 NSaved=  17.
 NSaved=17 IEnMin=17 EnMin= -881.685728111976     IErMin=17 ErrMin= 4.20D-07
 ErrMax= 4.20D-07  0.00D+00 EMaxC= 1.00D-01 BMatC= 2.29D-10 BMatP= 1.14D-09
 IDIUse=1 WtCom= 1.00D+00 WtEn= 0.00D+00
 Coeff-Com:  0.229D-05-0.366D-05 0.147D-04 0.209D-04 0.108D-03 0.204D-03
 Coeff-Com: -0.266D-03-0.359D-02-0.133D-01-0.454D-01 0.370D-01 0.104D+00
 Coeff-Com: -0.459D-02-0.138D+00-0.222D+00 0.127D+00 0.116D+01
 Coeff:      0.229D-05-0.366D-05 0.147D-04 0.209D-04 0.108D-03 0.204D-03
 Coeff:     -0.266D-03-0.359D-02-0.133D-01-0.454D-01 0.370D-01 0.104D+00
 Coeff:     -0.459D-02-0.138D+00-0.222D+00 0.127D+00 0.116D+01
 Gap=     0.160 Goal=   None    Shift=    0.000
 Gap=     0.160 Goal=   None    Shift=    0.000
 RMSDP=1.78D-07 MaxDP=1.93D-05 DE=-1.96D-09 OVMax= 5.28D-05

 Cycle  18  Pass 1  IDiag  1:
 RMSU=  4.99D-08    CP:  9.60D-01  1.46D+00  8.06D-01  8.24D-01  6.01D-01
                    CP:  8.20D-01  7.78D-01  1.23D+00  3.00D+00  3.00D+00
                    CP:  3.00D+00  3.00D+00  3.00D+00  2.22D+00  2.26D+00
                    CP:  1.41D+00  1.51D+00
 E= -881.685728112555     Delta-E=       -0.000000000580 Rises=F Damp=F
 DIIS: error= 2.04D-07 at cycle  18 NSaved=  18.
 NSaved=18 IEnMin=18 EnMin= -881.685728112555     IErMin=18 ErrMin= 2.04D-07
 ErrMax= 2.04D-07  0.00D+00 EMaxC= 1.00D-01 BMatC= 7.65D-11 BMatP= 2.29D-10
 IDIUse=1 WtCom= 1.00D+00 WtEn= 0.00D+00
 Coeff-Com: -0.297D-05 0.312D-05 0.485D-05 0.211D-04 0.988D-04 0.207D-03
 Coeff-Com:  0.804D-04-0.198D-02-0.115D-01-0.588D-01 0.920D-02 0.101D+00
 Coeff-Com:  0.586D-01-0.560D-01-0.271D+00-0.139D+00 0.556D+00 0.813D+00
 Coeff:     -0.297D-05 0.312D-05 0.485D-05 0.211D-04 0.988D-04 0.207D-03
 Coeff:      0.804D-04-0.198D-02-0.115D-01-0.588D-01 0.920D-02 0.101D+00
 Coeff:      0.586D-01-0.560D-01-0.271D+00-0.139D+00 0.556D+00 0.813D+00
 Gap=     0.160 Goal=   None    Shift=    0.000
 Gap=     0.160 Goal=   None    Shift=    0.000
 RMSDP=7.12D-08 MaxDP=7.05D-06 DE=-5.80D-10 OVMax= 1.94D-05

 Cycle  19  Pass 1  IDiag  1:
 RMSU=  2.13D-08    CP:  9.60D-01  1.46D+00  8.06D-01  8.24D-01  6.01D-01
                    CP:  8.20D-01  7.78D-01  1.23D+00  3.00D+00  3.00D+00
                    CP:  3.00D+00  3.00D+00  3.00D+00  2.25D+00  2.32D+00
                    CP:  1.49D+00  1.86D+00  1.36D+00
 E= -881.685728112671     Delta-E=       -0.000000000116 Rises=F Damp=F
 DIIS: error= 9.45D-08 at cycle  19 NSaved=  19.
 NSaved=19 IEnMin=19 EnMin= -881.685728112671     IErMin=19 ErrMin= 9.45D-08
 ErrMax= 9.45D-08  0.00D+00 EMaxC= 1.00D-01 BMatC= 2.20D-11 BMatP= 7.65D-11
 IDIUse=1 WtCom= 1.00D+00 WtEn= 0.00D+00
 Coeff-Com: -0.249D-05 0.329D-05-0.163D-05 0.727D-05 0.171D-04-0.777D-05
 Coeff-Com: -0.614D-04-0.479D-03-0.202D-02-0.140D-01-0.223D-02 0.178D-01
 Coeff-Com:  0.242D-01 0.950D-02-0.572D-01-0.102D+00-0.784D-01 0.373D+00
 Coeff-Com:  0.832D+00
 Coeff:     -0.249D-05 0.329D-05-0.163D-05 0.727D-05 0.171D-04-0.777D-05
 Coeff:     -0.614D-04-0.479D-03-0.202D-02-0.140D-01-0.223D-02 0.178D-01
 Coeff:      0.242D-01 0.950D-02-0.572D-01-0.102D+00-0.784D-01 0.373D+00
 Coeff:      0.832D+00
 Gap=     0.160 Goal=   None    Shift=    0.000
 Gap=     0.160 Goal=   None    Shift=    0.000
 RMSDP=2.83D-08 MaxDP=2.44D-06 DE=-1.16D-10 OVMax= 6.70D-06

 Cycle  20  Pass 1  IDiag  1:
 RMSU=  7.14D-09    CP:  9.60D-01  1.46D+00  8.06D-01  8.24D-01  6.01D-01
                    CP:  8.20D-01  7.79D-01  1.23D+00  3.00D+00  3.00D+00
                    CP:  3.00D+00  3.00D+00  3.00D+00  2.25D+00  2.34D+00
                    CP:  1.52D+00  2.03D+00  1.62D+00  1.04D+00
 E= -881.685728112701     Delta-E=       -0.000000000030 Rises=F Damp=F
 DIIS: error= 5.22D-08 at cycle  20 NSaved=  20.
 NSaved=20 IEnMin=20 EnMin= -881.685728112701     IErMin=20 ErrMin= 5.22D-08
 ErrMax= 5.22D-08  0.00D+00 EMaxC= 1.00D-01 BMatC= 3.85D-12 BMatP= 2.20D-11
 IDIUse=1 WtCom= 1.00D+00 WtEn= 0.00D+00
 Coeff-Com: -0.685D-06 0.112D-05-0.116D-05 0.137D-05-0.908D-05-0.607D-04
 Coeff-Com: -0.118D-03-0.101D-03 0.897D-03 0.477D-02-0.542D-03-0.961D-02
 Coeff-Com: -0.396D-02 0.108D-01 0.293D-01-0.802D-02-0.126D+00-0.278D-01
 Coeff-Com:  0.288D+00 0.842D+00
 Coeff:     -0.685D-06 0.112D-05-0.116D-05 0.137D-05-0.908D-05-0.607D-04
 Coeff:     -0.118D-03-0.101D-03 0.897D-03 0.477D-02-0.542D-03-0.961D-02
 Coeff:     -0.396D-02 0.108D-01 0.293D-01-0.802D-02-0.126D+00-0.278D-01
 Coeff:      0.288D+00 0.842D+00
 Gap=     0.160 Goal=   None    Shift=    0.000
 Gap=     0.160 Goal=   None    Shift=    0.000
 RMSDP=7.93D-09 MaxDP=4.87D-07 DE=-2.98D-11 OVMax= 1.31D-06

 Error on total polarization charges =  0.00996
 SCF Done:  E(UB3LYP) =  -881.685728113     A.U. after   20 cycles
            NFock= 20  Conv=0.79D-08     -V/T= 2.0094
 <Sx>= 0.0000 <Sy>= 0.0000 <Sz>= 0.0000 <S**2>= 0.0000 S= 0.0000
 <L.S>=  0.00000000000    
 KE= 8.734907138615D+02 PE=-5.258137616097D+03 EE= 1.899106578038D+03
 Annihilation of the first spin contaminant:
 S**2 before annihilation     0.0000,   after     0.0000
 Leave Link  502 at Tue Jun 11 19:03:16 2019, MaxMem=   104857600 cpu:            1990.5 elap:              51.0
 (Enter /project/6004141/group/g16/g16/l601.exe)
 Copying SCF densities to generalized density rwf, IOpCl= 1 IROHF=0.

 **********************************************************************

            Population analysis using the SCF density.

 **********************************************************************

 Orbital symmetries:
 Alpha Orbitals:
       Occupied  (A) (A) (A) (A) (A) (A) (A) (A) (A) (A) (A) (A)
                 (A) (A) (A) (A) (A) (A) (A) (A) (A) (A) (A) (A)
                 (A) (A) (A) (A) (A) (A) (A) (A) (A) (A) (A) (A)
                 (A) (A) (A) (A) (A) (A) (A) (A) (A) (A) (A) (A)
                 (A) (A) (A) (A) (A) (A) (A) (A) (A) (A) (A) (A)
                 (A) (A) (A) (A) (A) (A) (A) (A) (A) (A) (A) (A)
                 (A)
       Virtual   (A) (A) (A) (A) (A) (A) (A) (A) (A) (A) (A) (A)
                 (A) (A) (A) (A) (A) (A) (A) (A) (A) (A) (A) (A)
                 (A) (A) (A) (A) (A) (A) (A) (A) (A) (A) (A) (A)
                 (A) (A) (A) (A) (A) (A) (A) (A) (A) (A) (A) (A)
                 (A) (A) (A) (A) (A) (A) (A) (A) (A) (A) (A) (A)
                 (A) (A) (A) (A) (A) (A) (A) (A) (A) (A) (A) (A)
                 (A) (A) (A) (A) (A) (A) (A) (A) (A) (A) (A) (A)
                 (A) (A) (A) (A) (A) (A) (A) (A) (A) (A) (A) (A)
                 (A) (A) (A) (A) (A) (A) (A) (A) (A) (A) (A) (A)
                 (A) (A) (A) (A) (A) (A) (A) (A) (A) (A) (A) (A)
                 (A) (A) (A) (A) (A) (A) (A) (A) (A) (A) (A) (A)
                 (A) (A) (A) (A) (A) (A) (A) (A) (A) (A) (A) (A)
                 (A) (A) (A) (A) (A) (A) (A) (A) (A) (A) (A) (A)
                 (A) (A) (A) (A) (A) (A) (A) (A) (A) (A) (A) (A)
                 (A) (A) (A) (A) (A) (A) (A) (A) (A) (A) (A) (A)
                 (A) (A) (A) (A) (A) (A) (A) (A) (A) (A) (A) (A)
                 (A) (A) (A) (A) (A) (A) (A) (A) (A) (A) (A) (A)
                 (A) (A) (A) (A) (A) (A) (A) (A) (A) (A) (A) (A)
                 (A) (A) (A) (A) (A) (A) (A) (A) (A) (A) (A) (A)
                 (A) (A) (A) (A) (A) (A) (A) (A) (A) (A) (A) (A)
                 (A) (A) (A) (A) (A) (A) (A) (A) (A) (A) (A) (A)
                 (A) (A) (A) (A) (A) (A) (A) (A) (A) (A) (A) (A)
                 (A) (A) (A) (A) (A) (A) (A) (A) (A) (A) (A) (A)
                 (A) (A) (A) (A) (A) (A) (A) (A) (A) (A) (A) (A)
                 (A) (A) (A) (A) (A) (A) (A) (A) (A) (A) (A) (A)
                 (A) (A) (A) (A) (A) (A) (A) (A) (A) (A) (A) (A)
                 (A) (A) (A) (A) (A) (A) (A) (A) (A) (A) (A) (A)
                 (A) (A) (A)
 Beta  Orbitals:
       Occupied  (A) (A) (A) (A) (A) (A) (A) (A) (A) (A) (A) (A)
                 (A) (A) (A) (A) (A) (A) (A) (A) (A) (A) (A) (A)
                 (A) (A) (A) (A) (A) (A) (A) (A) (A) (A) (A) (A)
                 (A) (A) (A) (A) (A) (A) (A) (A) (A) (A) (A) (A)
                 (A) (A) (A) (A) (A) (A) (A) (A) (A) (A) (A) (A)
                 (A) (A) (A) (A) (A) (A) (A) (A) (A) (A) (A) (A)
                 (A)
       Virtual   (A) (A) (A) (A) (A) (A) (A) (A) (A) (A) (A) (A)
                 (A) (A) (A) (A) (A) (A) (A) (A) (A) (A) (A) (A)
                 (A) (A) (A) (A) (A) (A) (A) (A) (A) (A) (A) (A)
                 (A) (A) (A) (A) (A) (A) (A) (A) (A) (A) (A) (A)
                 (A) (A) (A) (A) (A) (A) (A) (A) (A) (A) (A) (A)
                 (A) (A) (A) (A) (A) (A) (A) (A) (A) (A) (A) (A)
                 (A) (A) (A) (A) (A) (A) (A) (A) (A) (A) (A) (A)
                 (A) (A) (A) (A) (A) (A) (A) (A) (A) (A) (A) (A)
                 (A) (A) (A) (A) (A) (A) (A) (A) (A) (A) (A) (A)
                 (A) (A) (A) (A) (A) (A) (A) (A) (A) (A) (A) (A)
                 (A) (A) (A) (A) (A) (A) (A) (A) (A) (A) (A) (A)
                 (A) (A) (A) (A) (A) (A) (A) (A) (A) (A) (A) (A)
                 (A) (A) (A) (A) (A) (A) (A) (A) (A) (A) (A) (A)
                 (A) (A) (A) (A) (A) (A) (A) (A) (A) (A) (A) (A)
                 (A) (A) (A) (A) (A) (A) (A) (A) (A) (A) (A) (A)
[...]
    20  C(13)              0.00000       0.00003       0.00001       0.00001
    21  C(13)             -0.00000      -0.00012      -0.00004      -0.00004
    22  C(13)             -0.00000      -0.00000      -0.00000      -0.00000
    23  H(1)              -0.00000      -0.00006      -0.00002      -0.00002
    24  C(13)              0.00000       0.00009       0.00003       0.00003
    25  H(1)               0.00000       0.00011       0.00004       0.00004
    26  C(13)             -0.00000      -0.00004      -0.00002      -0.00001
    27  H(1)               0.00000       0.00001       0.00000       0.00000
    28  H(1)              -0.00000      -0.00006      -0.00002      -0.00002
    29  H(1)               0.00000       0.00002       0.00001       0.00001
    30  C(13)             -0.00000      -0.00009      -0.00003      -0.00003
    31  C(13)             -0.00000      -0.00004      -0.00001      -0.00001
    32  C(13)              0.00000       0.00002       0.00001       0.00001
    33  C(13)              0.00000       0.00004       0.00002       0.00001
    34  H(1)               0.00000       0.00008       0.00003       0.00003
    35  C(13)              0.00000       0.00001       0.00000       0.00000
    36  H(1)               0.00000       0.00001       0.00000       0.00000
    37  C(13)              0.00000       0.00004       0.00001       0.00001
    38  H(1)              -0.00000      -0.00007      -0.00002      -0.00002
    39  H(1)              -0.00000      -0.00003      -0.00001      -0.00001
    40  H(1)              -0.00000      -0.00006      -0.00002      -0.00002
 --------------------------------------------------------
       Center         ----  Spin Dipole Couplings  ----
                      3XX-RR        3YY-RR        3ZZ-RR
 --------------------------------------------------------
     1   Atom       -0.000000      0.000000      0.000000
     2   Atom        0.000000      0.000000     -0.000000
     3   Atom        0.000000      0.000000     -0.000000
     4   Atom        0.000000     -0.000000      0.000000
     5   Atom       -0.000000      0.000000     -0.000000
     6   Atom       -0.000000     -0.000001      0.000001
     7   Atom        0.000000     -0.000000     -0.000000
     8   Atom       -0.000001      0.000000      0.000000
     9   Atom        0.000000     -0.000000     -0.000000
    10   Atom       -0.000000      0.000000     -0.000000
    11   Atom       -0.000000     -0.000000      0.000000
    12   Atom       -0.000000      0.000000     -0.000000
    13   Atom        0.000000     -0.000000     -0.000000
    14   Atom        0.000000     -0.000000      0.000000
    15   Atom        0.000000      0.000000     -0.000000
    16   Atom       -0.000000      0.000000      0.000000
    17   Atom       -0.000000     -0.000000      0.000000
    18   Atom        0.000000     -0.000000      0.000000
    19   Atom       -0.000000     -0.000000      0.000000
    20   Atom        0.000000      0.000000     -0.000000
    21   Atom       -0.000000      0.000000     -0.000000
    22   Atom       -0.000000     -0.000000      0.000000
    23   Atom       -0.000000      0.000000     -0.000000
    24   Atom       -0.000000     -0.000000      0.000000
    25   Atom       -0.000000      0.000000     -0.000000
    26   Atom        0.000000      0.000000     -0.000000
    27   Atom        0.000000     -0.000000      0.000000
    28   Atom       -0.000000      0.000000     -0.000000
    29   Atom       -0.000000      0.000000      0.000000
    30   Atom        0.000000      0.000000     -0.000000
    31   Atom        0.000000     -0.000000     -0.000000
    32   Atom        0.000000     -0.000000      0.000000
    33   Atom        0.000000     -0.000000      0.000000
    34   Atom        0.000000     -0.000000     -0.000000
    35   Atom       -0.000000      0.000000     -0.000000
    36   Atom        0.000000     -0.000000     -0.000000
    37   Atom        0.000000     -0.000000      0.000000
    38   Atom        0.000000     -0.000000      0.000000
    39   Atom       -0.000000      0.000000      0.000000
    40   Atom       -0.000000      0.000000     -0.000000
 --------------------------------------------------------
                        XY            XZ            YZ
 --------------------------------------------------------
     1   Atom        0.000000     -0.000000      0.000000
     2   Atom       -0.000000     -0.000000      0.000000
     3   Atom       -0.000000      0.000000      0.000000
     4   Atom       -0.000000      0.000000      0.000000
     5   Atom       -0.000000     -0.000000     -0.000000
     6   Atom        0.000000     -0.000001     -0.000000
     7   Atom       -0.000000      0.000000     -0.000000
     8   Atom       -0.000000      0.000001      0.000000
     9   Atom        0.000000      0.000000     -0.000000
    10   Atom        0.000000      0.000000      0.000000
    11   Atom       -0.000000     -0.000000      0.000000
    12   Atom       -0.000000     -0.000000      0.000000
    13   Atom        0.000000     -0.000000     -0.000000
    14   Atom       -0.000000      0.000000     -0.000000
    15   Atom        0.000000      0.000000     -0.000000
    16   Atom       -0.000000     -0.000000     -0.000000
    17   Atom       -0.000000      0.000000      0.000000
    18   Atom        0.000000     -0.000000      0.000000
    19   Atom       -0.000000      0.000000     -0.000000
    20   Atom        0.000000     -0.000000      0.000000
    21   Atom        0.000000     -0.000000      0.000000
    22   Atom       -0.000000      0.000000     -0.000000
    23   Atom        0.000000     -0.000000      0.000000
    24   Atom       -0.000000      0.000000     -0.000000
    25   Atom        0.000000      0.000000     -0.000000
    26   Atom        0.000000     -0.000000      0.000000
    27   Atom       -0.000000      0.000000     -0.000000
    28   Atom       -0.000000      0.000000      0.000000
    29   Atom       -0.000000      0.000000      0.000000
    30   Atom       -0.000000     -0.000000     -0.000000
    31   Atom       -0.000000      0.000000      0.000000
    32   Atom        0.000000      0.000000      0.000000
    33   Atom       -0.000000     -0.000000     -0.000000
    34   Atom       -0.000000      0.000000      0.000000
    35   Atom       -0.000000     -0.000000     -0.000000
    36   Atom       -0.000000      0.000000      0.000000
    37   Atom        0.000000      0.000000      0.000000
    38   Atom       -0.000000     -0.000000      0.000000
    39   Atom        0.000000     -0.000000     -0.000000
    40   Atom       -0.000000      0.000000      0.000000
 --------------------------------------------------------


 ---------------------------------------------------------------------------------
              Anisotropic Spin Dipole Couplings in Principal Axis System
 ---------------------------------------------------------------------------------

       Atom             a.u.   MegaHertz   Gauss  10(-4) cm-1        Axes

              Baa    -0.0000    -0.000    -0.000    -0.000  0.8628 -0.1251  0.4899
     1 C(13)  Bbb     0.0000     0.000     0.000     0.000  0.4149  0.7288 -0.5446
              Bcc     0.0000     0.000     0.000     0.000 -0.2889  0.6731  0.6807
 
              Baa    -0.0000    -0.000    -0.000    -0.000  0.2789 -0.1647  0.9461
     2 H(1)   Bbb     0.0000     0.000     0.000     0.000  0.3300  0.9416  0.0667
              Bcc     0.0000     0.000     0.000     0.000  0.9019 -0.2936 -0.3169
 
              Baa    -0.0000    -0.000    -0.000    -0.000 -0.5778 -0.4397  0.6876
     3 C(13)  Bbb    -0.0000    -0.000    -0.000    -0.000  0.3799  0.6008  0.7033
              Bcc     0.0000     0.000     0.000     0.000  0.7224 -0.6676  0.1801
 
              Baa    -0.0000     0.000     0.000     0.000  0.4215  0.7305 -0.5373
     4 O(17)  Bbb     0.0000    -0.000    -0.000    -0.000 -0.3591  0.6785  0.6409
              Bcc     0.0000    -0.000    -0.000    -0.000  0.8327 -0.0772  0.5483
 
              Baa    -0.0000     0.000     0.000     0.000  0.6951  0.1657  0.6996
     5 O(17)  Bbb    -0.0000     0.000     0.000     0.000 -0.6953 -0.0926  0.7127
              Bcc     0.0000    -0.000    -0.000    -0.000 -0.1829  0.9818 -0.0508
 
              Baa    -0.0000    -0.000    -0.000    -0.000 -0.6668  0.7103 -0.2255
     6 N(14)  Bbb    -0.0000    -0.000    -0.000    -0.000  0.5247  0.6623  0.5348
              Bcc     0.0000     0.000     0.000     0.000 -0.5292 -0.2383  0.8143
 
              Baa    -0.0000    -0.000    -0.000    -0.000  0.0046  0.9447  0.3279
     7 H(1)   Bbb    -0.0000    -0.000    -0.000    -0.000 -0.4820 -0.2852  0.8285
              Bcc     0.0000     0.000     0.000     0.000  0.8762 -0.1619  0.4540
 
              Baa    -0.0000    -0.000    -0.000    -0.000  0.8057  0.3170 -0.5003
     8 N(14)  Bbb     0.0000     0.000     0.000     0.000 -0.4380  0.8875 -0.1431
              Bcc     0.0000     0.000     0.000     0.000  0.3987  0.3345  0.8539
 
              Baa    -0.0000    -0.000    -0.000    -0.000 -0.0878  0.3300  0.9399
     9 H(1)   Bbb    -0.0000    -0.000    -0.000    -0.000 -0.2106  0.9161 -0.3413
              Bcc     0.0000     0.000     0.000     0.000  0.9736  0.2279  0.0109
 
              Baa    -0.0000    -0.000    -0.000    -0.000  0.7355 -0.6125  0.2898
    10 H(1)   Bbb    -0.0000    -0.000    -0.000    -0.000 -0.5096 -0.2182  0.8323
              Bcc     0.0000     0.000     0.000     0.000  0.4465  0.7598  0.4726
 
              Baa    -0.0000    -0.000    -0.000    -0.000  0.8235  0.5618  0.0791
    11 C(13)  Bbb    -0.0000    -0.000    -0.000    -0.000 -0.4833  0.7677 -0.4207
              Bcc     0.0000     0.000     0.000     0.000 -0.2970  0.3082  0.9037
 
              Baa    -0.0000    -0.000    -0.000    -0.000  0.4352 -0.0032  0.9003
    12 H(1)   Bbb    -0.0000    -0.000    -0.000    -0.000  0.8655  0.2771 -0.4173
              Bcc     0.0000     0.000     0.000     0.000 -0.2482  0.9608  0.1233
 
              Baa    -0.0000    -0.000    -0.000    -0.000  0.5440 -0.4408  0.7140
    13 H(1)   Bbb    -0.0000    -0.000    -0.000    -0.000 -0.2226  0.7446  0.6293
              Bcc     0.0000     0.000     0.000     0.000  0.8090  0.5012 -0.3069
 
              Baa    -0.0000    -0.000    -0.000    -0.000  0.2651  0.9576 -0.1125
    14 H(1)   Bbb    -0.0000    -0.000    -0.000    -0.000 -0.5366  0.2435  0.8079
              Bcc     0.0000     0.000     0.000     0.000  0.8011 -0.1538  0.5784
 
              Baa    -0.0000    -0.000    -0.000    -0.000 -0.1951  0.3284  0.9242
    15 C(13)  Bbb     0.0000     0.000     0.000     0.000  0.9599 -0.1296  0.2487
              Bcc     0.0000     0.000     0.000     0.000  0.2015  0.9356 -0.2899
 
              Baa    -0.0000    -0.000    -0.000    -0.000  0.9180  0.0857  0.3872
    16 H(1)   Bbb     0.0000     0.000     0.000     0.000 -0.3770 -0.1144  0.9191
              Bcc     0.0000     0.000     0.000     0.000 -0.1231  0.9897  0.0727
 
              Baa    -0.0000    -0.000    -0.000    -0.000  0.7145  0.5866 -0.3812
    17 H(1)   Bbb     0.0000     0.000     0.000     0.000 -0.4513  0.8028  0.3896
              Bcc     0.0000     0.000     0.000     0.000  0.5346 -0.1063  0.8384
 
              Baa    -0.0000    -0.000    -0.000    -0.000 -0.4291  0.9008 -0.0661
    18 H(1)   Bbb     0.0000     0.000     0.000     0.000  0.8979  0.4175 -0.1393
              Bcc     0.0000     0.000     0.000     0.000  0.0979  0.1191  0.9880
 
              Baa    -0.0000    -0.000    -0.000    -0.000 -0.5317  0.6648  0.5247
    19 C(13)  Bbb    -0.0000    -0.000    -0.000    -0.000  0.6708  0.7088 -0.2183
              Bcc     0.0000     0.000     0.000     0.000  0.5170 -0.2359  0.8228
 
              Baa    -0.0000    -0.000    -0.000    -0.000  0.4192 -0.2174  0.8815
    20 C(13)  Bbb     0.0000     0.000     0.000     0.000  0.8897 -0.0951 -0.4466
              Bcc     0.0000     0.000     0.000     0.000  0.1810  0.9714  0.1535
 
              Baa    -0.0000    -0.000    -0.000    -0.000  0.5589 -0.1831  0.8088
    21 C(13)  Bbb     0.0000     0.000     0.000     0.000  0.6886 -0.4409 -0.5757
              Bcc     0.0000     0.000     0.000     0.000  0.4621  0.8787 -0.1203
 
              Baa    -0.0000    -0.000    -0.000    -0.000  0.7924  0.3116 -0.5244
    22 C(13)  Bbb    -0.0000    -0.000    -0.000    -0.000 -0.1705  0.9386  0.3000
              Bcc     0.0000     0.000     0.000     0.000  0.5857 -0.1483  0.7969
 
              Baa    -0.0000    -0.000    -0.000    -0.000  0.5012 -0.1098  0.8583
    23 H(1)   Bbb    -0.0000    -0.000    -0.000    -0.000  0.8649  0.0306 -0.5011
              Bcc     0.0000     0.000     0.000     0.000  0.0288  0.9935  0.1103
 
              Baa    -0.0000    -0.000    -0.000    -0.000  0.8037 -0.2089 -0.5571
    24 C(13)  Bbb    -0.0000    -0.000    -0.000    -0.000  0.2824  0.9581  0.0482
              Bcc     0.0000     0.000     0.000     0.000  0.5237 -0.1961  0.8290
 
              Baa    -0.0000    -0.000    -0.000    -0.000  0.6647 -0.4819 -0.5709
    25 H(1)   Bbb     0.0000     0.000     0.000     0.000  0.5733 -0.1609  0.8034
              Bcc     0.0000     0.000     0.000     0.000  0.4790  0.8613 -0.1693
 
              Baa    -0.0000    -0.000    -0.000    -0.000  0.5360 -0.1895  0.8227
    26 C(13)  Bbb     0.0000     0.000     0.000     0.000  0.8377 -0.0017 -0.5461
              Bcc     0.0000     0.000     0.000     0.000  0.1049  0.9819  0.1579
 
              Baa    -0.0000    -0.000    -0.000    -0.000  0.2895  0.9571 -0.0137
    27 H(1)   Bbb     0.0000     0.000     0.000     0.000  0.7503 -0.2358 -0.6177
              Bcc     0.0000     0.000     0.000     0.000  0.5944 -0.1686  0.7863
 
              Baa    -0.0000    -0.000    -0.000    -0.000  0.8451  0.0767 -0.5291
    28 H(1)   Bbb    -0.0000    -0.000    -0.000    -0.000  0.5333 -0.1918  0.8239
              Bcc     0.0000     0.000     0.000     0.000  0.0383  0.9784  0.2030
 
              Baa    -0.0000    -0.000    -0.000    -0.000  0.7414  0.5724 -0.3503
    29 H(1)   Bbb    -0.0000    -0.000    -0.000    -0.000  0.5355 -0.1900  0.8228
              Bcc     0.0000     0.000     0.000     0.000 -0.4044  0.7976  0.4475
 
              Baa    -0.0000    -0.000    -0.000    -0.000  0.5778  0.3735  0.7257
    30 C(13)  Bbb     0.0000     0.000     0.000     0.000 -0.4749  0.8770 -0.0732
              Bcc     0.0000     0.000     0.000     0.000 -0.6638 -0.3023  0.6841
 
              Baa    -0.0000    -0.000    -0.000    -0.000  0.2740  0.8723 -0.4051
    31 C(13)  Bbb    -0.0000    -0.000    -0.000    -0.000 -0.3765  0.4849  0.7894
              Bcc     0.0000     0.000     0.000     0.000  0.8850 -0.0638  0.4612
 
              Baa    -0.0000    -0.000    -0.000    -0.000  0.7771 -0.2290 -0.5863
    32 C(13)  Bbb    -0.0000    -0.000    -0.000    -0.000 -0.0517  0.9050 -0.4222
              Bcc     0.0000     0.000     0.000     0.000  0.6273  0.3584  0.6914
 
              Baa    -0.0000    -0.000    -0.000    -0.000  0.5145  0.6933  0.5045
    33 C(13)  Bbb     0.0000     0.000     0.000     0.000 -0.3558  0.7080 -0.6101
              Bcc     0.0000     0.000     0.000     0.000  0.7802 -0.1344 -0.6109
 
              Baa    -0.0000    -0.000    -0.000    -0.000 -0.2840 -0.6632  0.6925
    34 H(1)   Bbb     0.0000     0.000     0.000     0.000 -0.3461  0.7444  0.5710
              Bcc     0.0000     0.000     0.000     0.000  0.8942  0.0775  0.4409
 
              Baa    -0.0000    -0.000    -0.000    -0.000  0.7590  0.1658  0.6297
    35 C(13)  Bbb     0.0000     0.000     0.000     0.000 -0.5596  0.6604  0.5006
              Bcc     0.0000     0.000     0.000     0.000  0.3328  0.7323 -0.5941
 
              Baa    -0.0000    -0.000    -0.000    -0.000 -0.1223 -0.6400  0.7586
    36 H(1)   Bbb     0.0000     0.000     0.000     0.000 -0.0015  0.7644  0.6447
              Bcc     0.0000     0.000     0.000     0.000  0.9925 -0.0777  0.0944
 
              Baa    -0.0000    -0.000    -0.000    -0.000 -0.5876 -0.3616  0.7238
    37 C(13)  Bbb    -0.0000    -0.000    -0.000    -0.000 -0.4510  0.8891  0.0781
              Bcc     0.0000     0.000     0.000     0.000  0.6718  0.2806  0.6856
 
              Baa    -0.0000    -0.000    -0.000    -0.000  0.5811  0.5924  0.5580
    38 H(1)   Bbb    -0.0000    -0.000    -0.000    -0.000 -0.3529  0.8013 -0.4831
              Bcc     0.0000     0.000     0.000     0.000  0.7333 -0.0838 -0.6747
 
              Baa    -0.0000    -0.000    -0.000    -0.000  0.7427  0.2018  0.6385
    39 H(1)   Bbb    -0.0000    -0.000    -0.000    -0.000 -0.5211  0.7729  0.3619
              Bcc     0.0000     0.000     0.000     0.000 -0.4205 -0.6015  0.6793
 
              Baa    -0.0000    -0.000    -0.000    -0.000 -0.5902 -0.3507  0.7271
    40 H(1)   Bbb    -0.0000    -0.000    -0.000    -0.000  0.6723  0.2850  0.6832
              Bcc     0.0000     0.000     0.000     0.000 -0.4469  0.8920  0.0676
 

 ---------------------------------------------------------------------------------

 No NMR shielding tensors so no spin-rotation constants.
 Leave Link  601 at Tue Jun 11 19:45:08 2019, MaxMem=   104857600 cpu:              14.0 elap:               0.4
 (Enter /project/6004141/group/g16/g16/l9999.exe)
 1\1\GINC-BLG9226\FOpt\UB3LYP\6-31G(d,p)\C16H20N2O2\RZK\11-Jun-2019\0\\
 #p opt ub3lyp/6-31g(d,p) scrf=(iefpcm,solvent=acetonitrile) guess=(mix
 ,always) empiricaldispersion=gd3\\Title Card Required\\0,1\C,-0.711424
 7627,-1.2402137992,-0.8923268908\H,2.3564992463,-1.736391423,0.0858864
 619\C,0.5478554919,-0.9228927113,0.0319311166\O,1.5550179079,-1.786439
 2981,-0.5059194002\O,-0.8699688197,-2.6642588492,-0.8684007907\N,4.146
 5054573,-0.314068898,1.147680748\H,4.9571240844,0.0263453605,1.6977989
 758\N,3.7984511529,-1.4879536967,1.1387338659\H,0.0450948295,-2.995122
 0645,-0.8886725623\H,3.6630652985,0.4327895738,0.6069715155\C,-0.45061
 10145,-0.8259406684,-2.3507625199\H,-0.3212472874,0.2506290691,-2.4723
 861447\H,0.4563712131,-1.3185877562,-2.7073344118\H,-1.2951592704,-1.1
 498853127,-2.9641422139\C,0.2730482756,-1.3443667871,1.4854784132\H,1.
 1733333707,-1.1961279662,2.0879532843\H,-0.5442146792,-0.7827642873,1.
 9397392216\H,0.0062972524,-2.4023518287,1.5012731376\C,-1.9971892152,-
 0.6194406858,-0.3517191659\C,-2.8861197038,-1.3846806994,0.4170048822\
 C,-2.318363063,0.7249559069,-0.5935133566\C,-4.0546778325,-0.823403147
 4,0.9346942551\H,-2.6528789567,-2.4259038901,0.6018114228\C,-3.4845086
 583,1.289417852,-0.0734422414\H,-1.6525779189,1.3460603691,-1.18089891
 16\C,-4.3590523811,0.5179065666,0.6939855036\H,-4.7283299741,-1.437117
 6869,1.5262539577\H,-3.7083802125,2.3336577934,-0.271913692\H,-5.26795
 62315,0.9558525628,1.0961332709\C,0.9998974952,0.5376843841,-0.0598462
 849\C,1.989340043,0.9046080814,-0.9877021491\C,0.4653352011,1.53996113
 78,0.7634083455\C,2.4280194227,2.2275119598,-1.0912709604\H,2.41267489
 53,0.1377205643,-1.6262364766\C,0.9003783132,2.8627704932,0.6603405437
 \H,-0.3040988754,1.2964050804,1.4860353509\C,1.8845346086,3.2138005318
 ,-0.2653738715\H,3.1950695299,2.4832239547,-1.816497438\H,0.4702126498
 ,3.6189786603,1.3105221065\H,2.2255211176,4.2418835545,-0.3406838972\\
 Version=ES64L-G16RevA.03\State=1-A\HF=-881.7021518\S2=0.\S2-1=0.\S2A=0
 .\RMSD=2.823e-09\RMSF=1.097e-05\Dipole=1.8492858,2.359275,0.8117931\Qu
 adrupole=10.3669161,-6.427118,-3.9397981,6.5492021,-0.870153,0.1016124
 \PG=C01 [X(C16H20N2O2)]\\@


 HICKORY, DICKORY, DOCK
 TWO MICE RAN UP THE CLOCK
 THE CLOCK STRUCK ONE...
 THE OTHER ESCAPED WITH MINOR INJURIES.
 Job cpu time:       1 days  3 hours 38 minutes 30.3 seconds.
 Elapsed time:       0 days  0 hours 42 minutes 38.9 seconds.
 File lengths (MBytes):  RWF=    413 Int=      0 D2E=      0 Chk=     22 Scr=      2
 Normal termination of Gaussian 16 at Tue Jun 11 19:45:09 2019.
