 Entering Gaussian System, Link 0=g16
 Initial command:
 /opt/software/gaussian/g16.b01/l1.exe "/localscratch/rzk.14623930.0/Gau-14288.inp" -scrdir="/localscratch/rzk.14623930.0/"
 Entering Link 1 = /opt/software/gaussian/g16.b01/l1.exe PID=     14289.
  
 Copyright (c) 1988-2017, Gaussian, Inc.  All Rights Reserved.
  
 This is part of the Gaussian(R) 16 program.  It is based on
 the Gaussian(R) 09 system (copyright 2009, Gaussian, Inc.),
 the Gaussian(R) 03 system (copyright 2003, Gaussian, Inc.),
 the Gaussian(R) 98 system (copyright 1998, Gaussian, Inc.),
 the Gaussian(R) 94 system (copyright 1995, Gaussian, Inc.),
 the Gaussian 92(TM) system (copyright 1992, Gaussian, Inc.),
 the Gaussian 90(TM) system (copyright 1990, Gaussian, Inc.),
 the Gaussian 88(TM) system (copyright 1988, Gaussian, Inc.),
 the Gaussian 86(TM) system (copyright 1986, Carnegie Mellon
 University), and the Gaussian 82(TM) system (copyright 1983,
 Carnegie Mellon University). Gaussian is a federally registered
 trademark of Gaussian, Inc.
  
 This software contains proprietary and confidential information,
 including trade secrets, belonging to Gaussian, Inc.
  
 This software is provided under written license and may be
 used, copied, transmitted, or stored only in accord with that
 written license.
  
 The following legend is applicable only to US Government
 contracts under FAR:
  
                    RESTRICTED RIGHTS LEGEND
  
 Use, reproduction and disclosure by the US Government is
 subject to restrictions as set forth in subparagraphs (a)
 and (c) of the Commercial Computer Software - Restricted
 Rights clause in FAR 52.227-19.
  
 Gaussian, Inc.
 340 Quinnipiac St., Bldg. 40, Wallingford CT 06492
  
  
 ---------------------------------------------------------------
 Warning -- This program may not be used in any manner that
 competes with the business of Gaussian, Inc. or will provide
 assistance to any competitor of Gaussian, Inc.  The licensee
 of this program is prohibited from giving any competitor of
 Gaussian, Inc. access to this program.  By using this program,
 the user acknowledges that Gaussian, Inc. is engaged in the
 business of creating and licensing software in the field of
 computational chemistry and represents and warrants to the
 licensee that it is not a competitor of Gaussian, Inc. and that
 it will not use this program in any manner prohibited above.
 ---------------------------------------------------------------
  

 Cite this work as:
 Gaussian 16, Revision B.01,
 M. J. Frisch, G. W. Trucks, H. B. Schlegel, G. E. Scuseria, 
 M. A. Robb, J. R. Cheeseman, G. Scalmani, V. Barone, 
 G. A. Petersson, H. Nakatsuji, X. Li, M. Caricato, A. V. Marenich, 
 J. Bloino, B. G. Janesko, R. Gomperts, B. Mennucci, H. P. Hratchian, 
 J. V. Ortiz, A. F. Izmaylov, J. L. Sonnenberg, D. Williams-Young, 
 F. Ding, F. Lipparini, F. Egidi, J. Goings, B. Peng, A. Petrone, 
 T. Henderson, D. Ranasinghe, V. G. Zakrzewski, J. Gao, N. Rega, 
 G. Zheng, W. Liang, M. Hada, M. Ehara, K. Toyota, R. Fukuda, 
 J. Hasegawa, M. Ishida, T. Nakajima, Y. Honda, O. Kitao, H. Nakai, 
 T. Vreven, K. Throssell, J. A. Montgomery, Jr., J. E. Peralta, 
 F. Ogliaro, M. J. Bearpark, J. J. Heyd, E. N. Brothers, K. N. Kudin, 
 V. N. Staroverov, T. A. Keith, R. Kobayashi, J. Normand, 
 K. Raghavachari, A. P. Rendell, J. C. Burant, S. S. Iyengar, 
 J. Tomasi, M. Cossi, J. M. Millam, M. Klene, C. Adamo, R. Cammi, 
 J. W. Ochterski, R. L. Martin, K. Morokuma, O. Farkas, 
 J. B. Foresman, and D. J. Fox, Gaussian, Inc., Wallingford CT, 2016.
 
 ******************************************
 Gaussian 16:  ES64L-G16RevB.01 20-Dec-2017
                10-May-2019 
 ******************************************
 %NProcShared=32
 Will use up to   32 processors via shared memory.
 %chk=AAH.chk
 ----------------------------------------------------------------------
 #p td=(nstates=24) ub3lyp/6-31g(d,p) scrf=(iefpcm,solvent=acetonitrile
 ) guess=(core,mix) empiricaldispersion=gd3
 ----------------------------------------------------------------------
 1/38=1,172=1/1;
 2/12=2,17=6,18=5,40=1/2;
 3/5=1,6=6,7=101,11=2,25=1,30=1,70=2201,72=2,74=-5,116=2,124=31/1,2,3,8;
 4/5=2,13=-1/1;
 5/5=2,38=5,53=2/2;
 8/6=1,10=2,108=24/1;
 9/41=24,42=1,70=2/14;
 6/7=2,8=2,9=2,10=2/1;
 99/5=1,9=1/99;
 Leave Link    1 at Fri May 10 18:01:26 2019, MaxMem=           0 cpu:               4.4 elap:               0.1
 (Enter /opt/software/gaussian/g16.b01/l101.exe)
 -------------------
 Title Card Required
 -------------------
 Symbolic Z-matrix:
 Charge =  0 Multiplicity = 1
 C                    -0.06092  -1.87351   0.64592 
 C                    -2.70936  -0.0104   -0.41659 
 O                    -3.46427  -0.24333   0.52282 
 O                    -0.68654  -2.51634  -0.19389 
 C                    -0.59005  -1.74531   2.05864 
 H                     0.12902  -2.14462   2.7813 
 H                    -0.75885  -0.69332   2.30681 
 H                    -1.53158  -2.28871   2.1346 
 C                    -2.88763  -0.71377  -1.7452 
 H                    -2.98106   0.00539  -2.56498 
 H                    -2.01562  -1.3444   -1.94406 
 H                    -3.78059  -1.3378   -1.69931 
 C                     1.22381  -1.19957   0.28792 
 C                     1.72564  -1.36192  -1.01417 
 C                     1.92687  -0.39486   1.19652 
 C                     2.90394  -0.73274  -1.40071 
 H                     1.16988  -1.98251  -1.70864 
 C                     3.10693   0.2391    0.80759 
 H                     1.55395  -0.24763   2.20364 
 C                     3.59663   0.07185  -0.48896 
 H                     3.28387  -0.86304  -2.40944 
 H                     3.64045   0.86639   1.51483 
 H                     4.51471   0.56743  -0.79033 
 C                    -1.58289   0.9631   -0.26213 
 C                    -1.44906   1.64546   0.95908 
 C                    -0.64414   1.19487  -1.27921 
 C                    -0.3968    2.53231   1.16213 
 H                    -2.18149   1.45988   1.73739 
 C                     0.41084   2.08335  -1.07544 
 H                    -0.71805   0.6703   -2.22496 
 C                     0.53808   2.7498    0.14405 
 H                    -0.29911   3.05104   2.11088 
 H                     1.14328   2.23955  -1.86045 
 H                     1.36654   3.4329    0.30465 
 
 ITRead=  0  0  0  0  0  0  0  0  0  0  0  0  0  0  0  0  0  0  0  0
 ITRead=  0  0  0  0  0  0  0  0  0  0  0  0  0  0
 MicOpt= -1 -1 -1 -1 -1 -1 -1 -1 -1 -1 -1 -1 -1 -1 -1 -1 -1 -1 -1 -1
 MicOpt= -1 -1 -1 -1 -1 -1 -1 -1 -1 -1 -1 -1 -1 -1
 NAtoms=     34 NQM=       34 NQMF=       0 NMMI=      0 NMMIF=      0
                NMic=       0 NMicF=      0.
                    Isotopes and Nuclear Properties:
 (Nuclear quadrupole moments (NQMom) in fm**2, nuclear magnetic moments (NMagM)
  in nuclear magnetons)

  Atom         1           2           3           4           5           6           7           8           9          10
 IAtWgt=          12          12          16          16          12           1           1           1          12           1
 AtmWgt=  12.0000000  12.0000000  15.9949146  15.9949146  12.0000000   1.0078250   1.0078250   1.0078250  12.0000000   1.0078250
 NucSpn=           0           0           0           0           0           1           1           1           0           1
 AtZEff=  -0.0000000  -0.0000000  -0.0000000  -0.0000000  -0.0000000  -0.0000000  -0.0000000  -0.0000000  -0.0000000  -0.0000000
 NQMom=    0.0000000   0.0000000   0.0000000   0.0000000   0.0000000   0.0000000   0.0000000   0.0000000   0.0000000   0.0000000
 NMagM=    0.0000000   0.0000000   0.0000000   0.0000000   0.0000000   2.7928460   2.7928460   2.7928460   0.0000000   2.7928460
 AtZNuc=   6.0000000   6.0000000   8.0000000   8.0000000   6.0000000   1.0000000   1.0000000   1.0000000   6.0000000   1.0000000

  Atom        11          12          13          14          15          16          17          18          19          20
 IAtWgt=           1           1          12          12          12          12           1          12           1          12
 AtmWgt=   1.0078250   1.0078250  12.0000000  12.0000000  12.0000000  12.0000000   1.0078250  12.0000000   1.0078250  12.0000000
 NucSpn=           1           1           0           0           0           0           1           0           1           0
 AtZEff=  -0.0000000  -0.0000000  -0.0000000  -0.0000000  -0.0000000  -0.0000000  -0.0000000  -0.0000000  -0.0000000  -0.0000000
 NQMom=    0.0000000   0.0000000   0.0000000   0.0000000   0.0000000   0.0000000   0.0000000   0.0000000   0.0000000   0.0000000
 NMagM=    2.7928460   2.7928460   0.0000000   0.0000000   0.0000000   0.0000000   2.7928460   0.0000000   2.7928460   0.0000000
 AtZNuc=   1.0000000   1.0000000   6.0000000   6.0000000   6.0000000   6.0000000   1.0000000   6.0000000   1.0000000   6.0000000

  Atom        21          22          23          24          25          26          27          28          29          30
 IAtWgt=           1           1           1          12          12          12          12           1          12           1
 AtmWgt=   1.0078250   1.0078250   1.0078250  12.0000000  12.0000000  12.0000000  12.0000000   1.0078250  12.0000000   1.0078250
 NucSpn=           1           1           1           0           0           0           0           1           0           1
 AtZEff=  -0.0000000  -0.0000000  -0.0000000  -0.0000000  -0.0000000  -0.0000000  -0.0000000  -0.0000000  -0.0000000  -0.0000000
 NQMom=    0.0000000   0.0000000   0.0000000   0.0000000   0.0000000   0.0000000   0.0000000   0.0000000   0.0000000   0.0000000
 NMagM=    2.7928460   2.7928460   2.7928460   0.0000000   0.0000000   0.0000000   0.0000000   2.7928460   0.0000000   2.7928460
 AtZNuc=   1.0000000   1.0000000   1.0000000   6.0000000   6.0000000   6.0000000   6.0000000   1.0000000   6.0000000   1.0000000

  Atom        31          32          33          34
 IAtWgt=          12           1           1           1
 AtmWgt=  12.0000000   1.0078250   1.0078250   1.0078250
 NucSpn=           0           1           1           1
 AtZEff=  -0.0000000  -0.0000000  -0.0000000  -0.0000000
 NQMom=    0.0000000   0.0000000   0.0000000   0.0000000
 NMagM=    0.0000000   2.7928460   2.7928460   2.7928460
 AtZNuc=   6.0000000   1.0000000   1.0000000   1.0000000
 Leave Link  101 at Fri May 10 18:01:27 2019, MaxMem=   104857600 cpu:               3.6 elap:               0.1
 (Enter /opt/software/gaussian/g16.b01/l202.exe)
                          Input orientation:                          
 ---------------------------------------------------------------------
 Center     Atomic      Atomic             Coordinates (Angstroms)
 Number     Number       Type             X           Y           Z
 ---------------------------------------------------------------------
      1          6           0       -0.060921   -1.873512    0.645917
      2          6           0       -2.709361   -0.010400   -0.416587
      3          8           0       -3.464273   -0.243331    0.522822
      4          8           0       -0.686544   -2.516338   -0.193889
      5          6           0       -0.590049   -1.745309    2.058644
      6          1           0        0.129016   -2.144621    2.781296
      7          1           0       -0.758850   -0.693322    2.306807
      8          1           0       -1.531584   -2.288709    2.134602
      9          6           0       -2.887627   -0.713773   -1.745200
     10          1           0       -2.981057    0.005389   -2.564978
     11          1           0       -2.015617   -1.344402   -1.944055
     12          1           0       -3.780593   -1.337803   -1.699308
     13          6           0        1.223811   -1.199566    0.287918
     14          6           0        1.725636   -1.361920   -1.014173
     15          6           0        1.926867   -0.394857    1.196524
     16          6           0        2.903939   -0.732737   -1.400711
     17          1           0        1.169876   -1.982506   -1.708641
     18          6           0        3.106927    0.239095    0.807591
     19          1           0        1.553948   -0.247629    2.203638
     20          6           0        3.596626    0.071845   -0.488962
     21          1           0        3.283870   -0.863037   -2.409441
     22          1           0        3.640448    0.866394    1.514832
     23          1           0        4.514708    0.567430   -0.790326
     24          6           0       -1.582892    0.963098   -0.262130
     25          6           0       -1.449064    1.645456    0.959079
     26          6           0       -0.644138    1.194871   -1.279214
     27          6           0       -0.396803    2.532306    1.162130
     28          1           0       -2.181490    1.459884    1.737393
     29          6           0        0.410839    2.083354   -1.075440
     30          1           0       -0.718054    0.670298   -2.224956
     31          6           0        0.538079    2.749799    0.144047
     32          1           0       -0.299112    3.051040    2.110882
     33          1           0        1.143275    2.239546   -1.860447
     34          1           0        1.366539    3.432904    0.304654
 ---------------------------------------------------------------------
                    Distance matrix (angstroms):
                    1          2          3          4          5
     1  C    0.000000
     2  C    3.407981   0.000000
     3  O    3.775639   1.227452   0.000000
     4  O    1.228781   3.228174   3.660057   0.000000
     5  C    1.514005   3.691634   3.588294   2.382793   0.000000
     6  H    2.160884   4.778885   4.650520   3.107256   1.094865
     7  H    2.153720   3.418735   3.271759   3.095496   1.093963
     8  H    2.133406   3.617515   3.242945   2.487524   1.089744
     9  C    3.879781   1.513844   2.386998   3.240459   4.562035
    10  H    4.729409   2.165560   3.135262   4.152826   5.491789
    11  H    3.287666   2.143362   3.065362   2.490572   4.267853
    12  H    4.429788   2.134223   2.497156   3.637083   4.946497
    13  C    1.494290   4.168967   4.790375   2.369701   2.592951
    14  C    2.491869   4.674710   5.527092   2.797170   3.866728
    15  C    2.537891   4.923875   5.435184   3.641956   2.983595
    16  C    3.778948   5.744511   6.670354   4.186791   5.019999
    17  H    2.659076   4.539503   5.429502   2.454739   4.164857
    18  C    3.811103   5.948955   6.595036   4.794350   4.378427
    19  H    2.770883   5.009757   5.292230   3.989358   2.619311
    20  C    4.295348   6.306939   7.139982   5.013113   5.226910
    21  H    4.641541   6.373168   7.383741   4.838002   5.979083
    22  H    4.686388   6.694716   7.258969   5.751996   5.001383
    23  H    5.381205   7.256772   8.126858   6.076050   6.286806
    24  C    3.344742   1.496826   2.368800   3.593685   3.702323
    25  C    3.795807   2.494527   2.796230   4.385351   3.666638
    26  C    3.668957   2.542036   3.642653   3.866885   4.448469
    27  C    4.448654   3.782278   4.185958   5.235603   4.374822
    28  H    4.098739   2.660829   2.453906   4.666375   3.592930
    29  C    4.340785   3.814910   4.794205   4.810254   5.048061
    30  H    3.891620   2.774680   3.990830   3.779005   4.919428
    31  C    4.688889   4.298706   5.012097   5.417204   5.014414
    32  H    5.143352   4.644331   4.836637   6.038027   4.805449
    33  H    4.964796   4.689328   5.751013   5.361351   5.851731
    34  H    5.505647   5.384189   6.074458   6.313254   5.806773
                    6          7          8          9         10
     6  H    0.000000
     7  H    1.766271   0.000000
     8  H    1.787895   1.781020   0.000000
     9  C    5.624645   4.577212   4.401379   0.000000
    10  H    6.548110   5.400064   5.426777   1.094513   0.000000
    11  H    5.250595   4.480312   4.214433   1.094366   1.771879
    12  H    6.000984   5.059174   4.545452   1.090370   1.786843
    13  C    2.882471   2.874568   3.491228   4.612319   5.222245
    14  C    4.191348   4.201024   4.624198   4.715580   5.140767
    15  C    2.967397   2.921453   4.053091   5.651088   6.196516
    16  C    5.213712   5.211839   5.881611   5.801833   6.044297
    17  H    4.611855   4.637435   4.707671   4.251394   4.681376
    18  C    4.294830   4.249857   5.446700   6.584784   6.963648
    19  H    2.441864   2.357609   3.700173   5.961392   6.585589
    20  C    5.256579   5.231823   6.225258   6.651381   6.897838
    21  H    6.208004   6.214128   6.772700   6.208935   6.326742
    22  H    4.795862   4.734317   6.090050   7.465956   7.824993
    23  H    6.272639   6.244369   7.298656   7.572835   7.723456
    24  C    4.674504   3.165787   4.039951   2.591086   2.859227
    25  C    4.491714   2.786153   4.106862   3.866335   4.178014
    26  C    5.313917   4.054378   4.957523   2.982165   2.920487
    27  C    4.977131   3.441808   5.047337   5.019343   5.191822
    28  H    4.406884   2.642808   3.825193   4.165557   4.611427
    29  C    5.729713   4.529646   5.761277   4.376343   4.247543
    30  H    5.805502   4.732653   5.331351   2.617798   2.383045
    31  C    5.574743   4.267861   5.799343   5.225040   5.220625
    32  H    5.256200   3.777564   5.480189   5.978595   6.191323
    33  H    6.464938   5.439283   6.604573   4.998354   4.743199
    34  H    6.226878   5.054863   6.669684   6.284486   6.235723
                   11         12         13         14         15
    11  H    0.000000
    12  H    1.781877   0.000000
    13  C    3.936569   5.386301   0.000000
    14  C    3.855121   5.548743   1.404859   0.000000
    15  C    5.129138   6.469165   1.402644   2.421340   0.000000
    16  C    4.987122   6.718499   2.427391   1.390569   2.795436
    17  H    3.257294   4.992281   2.145263   1.084565   3.396123
    18  C    6.026564   7.497272   2.426094   2.791064   1.394886
    19  H    5.581045   6.699164   2.164522   3.409608   1.083985
    20  C    5.968276   7.607589   2.801835   2.414981   2.418009
    21  H    5.341616   7.115921   3.410695   2.150291   3.881190
    22  H    6.988747   8.382185   3.407880   3.876565   2.151380
    23  H    6.901546   8.559683   3.887787   3.398738   3.401542
    24  C    2.888023   3.491349   3.585701   4.113105   4.036102
    25  C    4.205760   4.626325   3.960918   4.797578   3.951730
    26  C    2.961566   4.053180   3.417377   3.496177   3.907247
    27  C    5.224731   5.883503   4.161431   4.940247   3.737500
    28  H    4.630831   4.711167   4.557382   5.549714   4.539956
    29  C    4.288554   5.446249   3.646537   3.688137   3.688047
    30  H    2.412797   3.699719   3.685345   3.401107   4.453840
    31  C    5.257758   6.225542   4.011036   4.433734   3.595178
    32  H    6.221641   6.774969   4.869306   5.774062   4.203004
    33  H    4.778103   6.088339   4.055792   3.745114   4.110860
    34  H    6.270433   7.298526   4.634698   4.985839   3.970032
                   16         17         18         19         20
    16  C    0.000000
    17  H    2.159564   0.000000
    18  C    2.421210   3.875448   0.000000
    19  H    3.879322   4.296887   2.144199   0.000000
    20  C    1.399448   3.405450   1.396004   3.394804   0.000000
    21  H    1.085754   2.492650   3.405187   4.965063   2.158717
    22  H    3.405886   4.960921   1.085513   2.463531   2.156019
    23  H    2.158143   4.305041   2.154760   4.288851   1.085955
    24  C    4.929896   4.283306   4.864451   4.169609   5.260531
    25  C    5.493000   5.209384   4.770519   3.761752   5.480152
    26  C    4.039713   3.683854   4.397585   4.363788   4.457551
    27  C    5.303165   5.574884   4.202456   3.552212   4.972670
    28  H    6.365286   5.912432   5.506561   4.133580   6.345860
    29  C    3.775145   4.184292   3.770409   4.182407   3.813052
    30  H    3.970733   3.296700   4.900281   5.061327   4.689167
    31  C    4.484599   5.121165   3.652794   3.776040   4.114225
    32  H    6.075178   6.487162   4.605074   3.784660   5.550817
    33  H    3.485077   4.224864   3.869904   4.782413   3.549483
    34  H    4.756515   5.780891   3.671827   4.145791   4.110941
                   21         22         23         24         25
    21  H    0.000000
    22  H    4.303254   0.000000
    23  H    2.486510   2.483438   0.000000
    24  C    5.624152   5.518172   6.133210   0.000000
    25  C    6.327727   5.178700   6.307863   1.405302   0.000000
    26  C    4.576204   5.125648   5.219807   1.403367   2.420927
    27  C    6.150758   4.381673   5.638773   2.428526   1.391038
    28  H    7.243090   5.856341   7.212829   2.145509   1.084738
    29  C    4.326094   4.315191   4.384183   2.427223   2.791104
    30  H    4.289586   5.746391   5.426835   2.164801   3.409309
    31  C    5.206943   3.879557   4.631346   2.802820   2.415075
    32  H    6.970730   4.544017   6.144769   3.411565   2.150513
    33  H    3.809142   4.417457   3.912504   3.408214   3.875937
    34  H    5.431167   3.636230   4.395553   3.888487   3.398656
                   26         27         28         29         30
    26  C    0.000000
    27  C    2.794650   0.000000
    28  H    3.396116   2.160121   0.000000
    29  C    1.394239   2.420860   3.875682   0.000000
    30  H    1.084006   3.878483   4.297127   2.143015   0.000000
    31  C    2.416839   1.399214   3.405685   1.395524   3.393283
    32  H    3.880355   1.085707   2.492914   3.404863   4.964165
    33  H    2.150354   3.404926   4.960483   1.084940   2.461697
    34  H    3.400037   2.157711   4.305120   2.153905   4.286776
                   31         32         33         34
    31  C    0.000000
    32  H    2.158721   0.000000
    33  H    2.155137   4.302378   0.000000
    34  H    1.085713   2.486498   2.482260   0.000000
 Stoichiometry    C16H16O2
 Framework group  C1[X(C16H16O2)]
 Deg. of freedom    96
 Full point group                 C1      NOp   1
 Largest Abelian subgroup         C1      NOp   1
 Largest concise Abelian subgroup C1      NOp   1
                         Standard orientation:                         
 ---------------------------------------------------------------------
 Center     Atomic      Atomic             Coordinates (Angstroms)
 Number     Number       Type             X           Y           Z
 ---------------------------------------------------------------------
      1          6           0       -0.060921   -1.873512    0.645917
      2          6           0       -2.709361   -0.010400   -0.416587
      3          8           0       -3.464273   -0.243331    0.522822
      4          8           0       -0.686544   -2.516338   -0.193889
      5          6           0       -0.590049   -1.745309    2.058644
      6          1           0        0.129016   -2.144621    2.781296
      7          1           0       -0.758850   -0.693322    2.306807
      8          1           0       -1.531584   -2.288709    2.134602
      9          6           0       -2.887627   -0.713773   -1.745200
     10          1           0       -2.981057    0.005389   -2.564978
     11          1           0       -2.015617   -1.344402   -1.944055
     12          1           0       -3.780593   -1.337803   -1.699308
     13          6           0        1.223811   -1.199566    0.287918
     14          6           0        1.725636   -1.361920   -1.014173
     15          6           0        1.926867   -0.394857    1.196524
     16          6           0        2.903939   -0.732737   -1.400711
     17          1           0        1.169876   -1.982506   -1.708641
     18          6           0        3.106927    0.239095    0.807591
     19          1           0        1.553948   -0.247629    2.203638
     20          6           0        3.596626    0.071845   -0.488962
     21          1           0        3.283870   -0.863037   -2.409441
     22          1           0        3.640448    0.866394    1.514832
     23          1           0        4.514708    0.567430   -0.790326
     24          6           0       -1.582892    0.963098   -0.262130
     25          6           0       -1.449064    1.645456    0.959079
     26          6           0       -0.644138    1.194871   -1.279214
     27          6           0       -0.396803    2.532306    1.162130
     28          1           0       -2.181490    1.459884    1.737393
     29          6           0        0.410839    2.083354   -1.075440
     30          1           0       -0.718054    0.670298   -2.224956
     31          6           0        0.538079    2.749799    0.144047
     32          1           0       -0.299112    3.051040    2.110882
     33          1           0        1.143275    2.239546   -1.860447
     34          1           0        1.366539    3.432904    0.304654
 ---------------------------------------------------------------------
 Rotational constants (GHZ):           0.5915487           0.3864019           0.3193432
 Leave Link  202 at Fri May 10 18:01:27 2019, MaxMem=   104857600 cpu:               1.6 elap:               0.1
 (Enter /opt/software/gaussian/g16.b01/l301.exe)
 Standard basis: 6-31G(d,p) (6D, 7F)
 Ernie: Thresh=  0.10000D-02 Tol=  0.10000D-05 Strict=F.
 There are   350 symmetry adapted cartesian basis functions of A   symmetry.
 There are   350 symmetry adapted basis functions of A   symmetry.
   350 basis functions,   616 primitive gaussians,   350 cartesian basis functions
    64 alpha electrons       64 beta electrons
       nuclear repulsion energy      1289.3148390651 Hartrees.
 IExCor=  402 DFT=T Ex+Corr=B3LYP ExCW=0 ScaHFX=  0.200000
 ScaDFX=  0.800000  0.720000  1.000000  0.810000 ScalE2=  1.000000  1.000000
 IRadAn=      5 IRanWt=     -1 IRanGd=            0 ICorTp=0 IEmpDi=131
 NAtoms=   34 NActive=   34 NUniq=   34 SFac= 1.00D+00 NAtFMM=   60 NAOKFM=F Big=F
 Integral buffers will be    131072 words long.
 Raffenetti 2 integral format.
 Two-electron integral symmetry is turned on.
 R6Disp:  Grimme-D3 Dispersion energy=       -0.0391525932 Hartrees.
 Nuclear repulsion after empirical dispersion term =     1289.2756864718 Hartrees.
 ------------------------------------------------------------------------------
 Polarizable Continuum Model (PCM)
 =================================
 Model                : PCM.
 Atomic radii         : UFF (Universal Force Field).
 Polarization charges : Total charges.
 Charge compensation  : None.
 Solution method      : On-the-fly selection.
 Cavity type          : Scaled VdW (van der Waals Surface) (Alpha=1.100).
 Cavity algorithm     : GePol (No added spheres)
                        Default sphere list used, NSphG=   34.
                        Lebedev-Laikov grids with approx.  5.0 points / Ang**2.
                        Smoothing algorithm: York/Karplus (Gamma=1.0000).
                        Polarization charges: spherical gaussians, with
                                              point-specific exponents (IZeta= 3).
                        Self-potential: point-specific (ISelfS= 7).
                        Self-field    : sphere-specific E.n sum rule (ISelfD= 2).
 Solvent              : Acetonitrile, Eps=  35.688000 Eps(inf)=   1.806874
 ------------------------------------------------------------------------------
 GePol: Number of generator spheres                  =      34
 GePol: Total number of spheres                      =      34
 GePol: Number of exposed spheres                    =      34 (100.00%)
 GePol: Number of points                             =    2439
 GePol: Average weight of points                     =       0.13
 GePol: Minimum weight of points                     =   0.59D-11
 GePol: Maximum weight of points                     =    0.20577
 GePol: Number of points with low weight             =     185
 GePol: Fraction of low-weight points (<1% of avg)   =       7.59%
 GePol: Cavity surface area                          =    311.966 Ang**2
 GePol: Cavity volume                                =    361.143 Ang**3
 Leave Link  301 at Fri May 10 18:01:27 2019, MaxMem=   104857600 cpu:               2.5 elap:               0.1
 (Enter /opt/software/gaussian/g16.b01/l302.exe)
 NPDir=0 NMtPBC=     1 NCelOv=     1 NCel=       1 NClECP=     1 NCelD=      1
         NCelK=      1 NCelE2=     1 NClLst=     1 CellRange=     0.0.
 One-electron integrals computed using PRISM.
 One-electron integral symmetry used in STVInt
 PrsmSu:  requested number of processors reduced to:  28 ShMem   1 Linda.
 NBasis=   350 RedAO= T EigKep=  4.62D-04  NBF=   350
 NBsUse=   350 1.00D-06 EigRej= -1.00D+00 NBFU=   350
 Precomputing XC quadrature grid using
 IXCGrd= 4 IRadAn=           5 IRanWt=          -1 IRanGd=           0 AccXCQ= 0.00D+00.
 Generated NRdTot=       0 NPtTot=           0 NUsed=           0 NTot=          32
 NSgBfM=   349   349   349   349   349 MxSgAt=    34 MxSgA2=    34.
 Leave Link  302 at Fri May 10 18:01:27 2019, MaxMem=   104857600 cpu:              14.4 elap:               0.5
 (Enter /opt/software/gaussian/g16.b01/l303.exe)
 DipDrv:  MaxL=1.
 Leave Link  303 at Fri May 10 18:01:27 2019, MaxMem=   104857600 cpu:               1.4 elap:               0.1
 (Enter /opt/software/gaussian/g16.b01/l308.exe)
 Leave Link  308 at Fri May 10 18:01:28 2019, MaxMem=   104857600 cpu:               3.1 elap:               0.2
 (Enter /opt/software/gaussian/g16.b01/l401.exe)
 Core hamiltonian diagonalized for initial guess.
 JPrj=0 DoOrth=F DoCkMO=T.
 Mixing orbitals, IMix= 1 IMixAn=  0 NRI=1 NE=   64 Coef=  7.07106781D-01  7.07106781D-01
 Mixing orbitals, IMix= 1 IMixAn=  0 NRI=1 NE=   64 Coef= -7.07106781D-01  7.07106781D-01
 Initial guess <Sx>= 0.0000 <Sy>= 0.0000 <Sz>= 0.0000 <S**2>= 1.0000 S= 0.6180
 Leave Link  401 at Fri May 10 18:01:28 2019, MaxMem=   104857600 cpu:               4.4 elap:               0.2
 (Enter /opt/software/gaussian/g16.b01/l502.exe)
 Integral symmetry usage will be decided dynamically.
 UHF open shell SCF:
 Using DIIS extrapolation, IDIIS=  1040.
 NGot=   104857600 LenX=   104597610 LenY=   104474669
 Requested convergence on RMS density matrix=1.00D-08 within 128 cycles.
 Requested convergence on MAX density matrix=1.00D-06.
 Requested convergence on             energy=1.00D-06.
 No special actions if energy rises.
 Fock matrices will be formed incrementally for  20 cycles.

 Cycle   1  Pass 1  IDiag  1:
 FoFJK:  IHMeth= 1 ICntrl=       0 DoSepK=F KAlg= 0 I1Cent=           0 FoldK=F
 IRaf= 840000000 NMat=       1 IRICut=       1 DoRegI=T DoRafI=F ISym2E= 0 IDoP0=0 IntGTp=1.
 FoFCou: FMM=F IPFlag=           0 FMFlag=      100000 FMFlg1=           0
         NFxFlg=           0 DoJE=F BraDBF=F KetDBF=F FulRan=T
         wScrn=  0.000000 ICntrl=         0 IOpCl=  1 I1Cent=           0 NGrid=           0
         NMat0=    1 NMatS0=      1 NMatT0=    0 NMatD0=    1 NMtDS0=    0 NMtDT0=    0
 Symmetry not used in FoFCou.
 Inv3:  Mode=1 IEnd=    17846163.
 Iteration    1 A*A^-1 deviation from unit magnitude is 4.11D-15 for   1400.
 Iteration    1 A*A^-1 deviation from orthogonality  is 2.24D-15 for   2048   1419.
 Iteration    1 A^-1*A deviation from unit magnitude is 3.89D-15 for   1400.
 Iteration    1 A^-1*A deviation from orthogonality  is 7.50D-15 for   2131   2111.
 E= -565.514496517805    
 DIIS: error= 3.76D-01 at cycle   1 NSaved=   1.
 NSaved= 1 IEnMin= 1 EnMin= -565.514496517805     IErMin= 1 ErrMin= 3.76D-01
 ErrMax= 3.76D-01  0.00D+00 EMaxC= 1.00D-01 BMatC= 5.00D+02 BMatP= 5.00D+02
 IDIUse=3 WtCom= 0.00D+00 WtEn= 1.00D+00
 Coeff-Com:  0.100D+01
 Coeff-En:   0.100D+01
 Coeff:      0.100D+01
 Gap=     1.782 Goal=   None    Shift=    0.000
 Gap=    -1.671 Goal=   None    Shift=    0.000
 GapD=   -1.671 DampG=0.250 DampE=0.250 DampFc=0.2500 IDamp=-1.
 Damping current iteration by 2.50D-01
 RMSDP=2.13D-01 MaxDP=1.88D+01              OVMax= 9.95D-01

 Cycle   2  Pass 1  IDiag  1:
 RMSU=  5.10D-02    CP:  7.88D-01
 E= -662.460952777108     Delta-E=      -96.946456259303 Rises=F Damp=T
 DIIS: error= 2.49D-01 at cycle   2 NSaved=   2.
 NSaved= 2 IEnMin= 2 EnMin= -662.460952777108     IErMin= 2 ErrMin= 2.49D-01
 ErrMax= 2.49D-01  0.00D+00 EMaxC= 1.00D-01 BMatC= 1.74D+02 BMatP= 5.00D+02
 IDIUse=3 WtCom= 0.00D+00 WtEn= 1.00D+00
 Coeff-Com: -0.120D+01 0.220D+01
 Coeff-En:   0.000D+00 0.100D+01
 Coeff:      0.000D+00 0.100D+01
 Gap=    -0.535 Goal=   None    Shift=    0.000
 Gap=    -0.533 Goal=   None    Shift=    0.000
 RMSDP=1.34D-01 MaxDP=5.35D+00 DE=-9.69D+01 OVMax= 9.93D-01

 Cycle   3  Pass 1  IDiag  1:
 RMSU=  1.29D-01    CP:  2.96D-01  7.44D-01
 E= -670.236647693968     Delta-E=       -7.775694916861 Rises=F Damp=F
 DIIS: error= 1.65D-01 at cycle   3 NSaved=   3.
 NSaved= 3 IEnMin= 3 EnMin= -670.236647693968     IErMin= 3 ErrMin= 1.65D-01
 ErrMax= 1.65D-01  0.00D+00 EMaxC= 1.00D-01 BMatC= 1.52D+02 BMatP= 1.74D+02
 IDIUse=3 WtCom= 0.00D+00 WtEn= 1.00D+00
 EnCoef did   100 forward-backward iterations
 Coeff-Com: -0.963D+00 0.180D+01 0.164D+00
 Coeff-En:   0.360D+00 0.536D-02 0.634D+00
 Coeff:      0.360D+00 0.536D-02 0.634D+00
 Gap=    -0.140 Goal=   None    Shift=    0.000
 Gap=    -0.137 Goal=   None    Shift=    0.000
 RMSDP=1.37D-01 MaxDP=6.57D+00 DE=-7.78D+00 OVMax= 9.97D-01

 Cycle   4  Pass 1  IDiag  1:
 RMSU=  4.46D-02    CP:  1.46D-01  1.55D-01  2.53D-02
 E= -710.867217218553     Delta-E=      -40.630569524585 Rises=F Damp=F
 DIIS: error= 1.74D-01 at cycle   4 NSaved=   4.
 NSaved= 4 IEnMin= 4 EnMin= -710.867217218553     IErMin= 3 ErrMin= 1.65D-01
 ErrMax= 1.74D-01  0.00D+00 EMaxC= 1.00D-01 BMatC= 1.25D+02 BMatP= 1.52D+02
 IDIUse=3 WtCom= 0.00D+00 WtEn= 1.00D+00
 EnCoef did     8 forward-backward iterations
 Coeff-Com: -0.713D+00 0.132D+01 0.175D+00 0.218D+00
 Coeff-En:   0.828D-01 0.000D+00 0.400D+00 0.517D+00
 Coeff:      0.828D-01 0.000D+00 0.400D+00 0.517D+00
 Gap=     0.209 Goal=   None    Shift=    0.000
 Gap=     0.229 Goal=   None    Shift=    0.000
 RMSDP=5.96D-02 MaxDP=4.02D+00 DE=-4.06D+01 OVMax= 9.86D-01

 Cycle   5  Pass 1  IDiag  1:
 RMSU=  4.35D-02    CP:  2.08D-01  1.99D-02  2.92D-02  1.05D-01
 E= -674.213037965117     Delta-E=       36.654179253436 Rises=F Damp=F
 DIIS: error= 1.67D-01 at cycle   5 NSaved=   5.
 NSaved= 5 IEnMin= 4 EnMin= -710.867217218553     IErMin= 3 ErrMin= 1.65D-01
 ErrMax= 1.67D-01  0.00D+00 EMaxC= 1.00D-01 BMatC= 1.76D+02 BMatP= 1.25D+02
 IDIUse=2 WtCom= 0.00D+00 WtEn= 1.00D+00
 EnCoef did     4 forward-backward iterations
 Coeff-En:   0.000D+00 0.000D+00 0.226D+00 0.480D+00 0.294D+00
 Coeff:      0.000D+00 0.000D+00 0.226D+00 0.480D+00 0.294D+00
 Gap=     0.732 Goal=   None    Shift=    0.000
 Gap=     0.638 Goal=   None    Shift=    0.000
 RMSDP=4.29D-02 MaxDP=4.29D+00 DE= 3.67D+01 OVMax= 9.94D-01

 Cycle   6  Pass 1  IDiag  1:
 RMSU=  1.63D-02    CP:  8.01D-02  3.10D-02  1.99D-02  1.11D-01  1.14D-01
 E= -761.330680487173     Delta-E=      -87.117642522056 Rises=F Damp=F
 DIIS: error= 8.80D-02 at cycle   6 NSaved=   6.
 NSaved= 6 IEnMin= 6 EnMin= -761.330680487173     IErMin= 6 ErrMin= 8.80D-02
 ErrMax= 8.80D-02  0.00D+00 EMaxC= 1.00D-01 BMatC= 2.67D+01 BMatP= 1.25D+02
 IDIUse=3 WtCom= 1.20D-01 WtEn= 8.80D-01
 EnCoef did     4 forward-backward iterations
 Coeff-Com: -0.328D+00 0.579D+00 0.576D-01 0.136D+00 0.910D-01 0.464D+00
 Coeff-En:   0.000D+00 0.000D+00 0.000D+00 0.597D-01 0.723D-01 0.868D+00
 Coeff:     -0.394D-01 0.696D-01 0.692D-02 0.689D-01 0.746D-01 0.819D+00
 Gap=    -0.817 Goal=   None    Shift=    0.000
 Gap=    -0.818 Goal=   None    Shift=    0.000
 RMSDP=3.17D-02 MaxDP=3.94D+00 DE=-8.71D+01 OVMax= 8.87D-01

 Cycle   7  Pass 1  IDiag  1:
 RMSU=  2.31D-02    CP:  1.45D-01  3.29D-02  2.35D-02  1.07D-01  4.91D-01
                    CP:  1.78D-01
 E= -731.624300356715     Delta-E=       29.706380130458 Rises=F Damp=F
 DIIS: error= 1.84D-01 at cycle   7 NSaved=   7.
 NSaved= 7 IEnMin= 6 EnMin= -761.330680487173     IErMin= 6 ErrMin= 8.80D-02
 ErrMax= 1.84D-01  0.00D+00 EMaxC= 1.00D-01 BMatC= 1.00D+02 BMatP= 2.67D+01
 IDIUse=2 WtCom= 0.00D+00 WtEn= 1.00D+00
 Coeff-En:   0.000D+00 0.000D+00 0.000D+00 0.000D+00 0.000D+00 0.751D+00
 Coeff-En:   0.249D+00
 Coeff:      0.000D+00 0.000D+00 0.000D+00 0.000D+00 0.000D+00 0.751D+00
 Coeff:      0.249D+00
 Gap=    -0.206 Goal=   None    Shift=    0.000
 Gap=    -0.206 Goal=   None    Shift=    0.000
 RMSDP=2.86D-02 MaxDP=3.65D+00 DE= 2.97D+01 OVMax= 8.77D-01

 Cycle   8  Pass 1  IDiag  1:
 RMSU=  9.84D-03    CP:  7.02D-02  2.33D-02  9.30D-03  1.16D-01  1.07D-01
                    CP:  6.03D-01  1.79D-01
 E= -765.383844726705     Delta-E=      -33.759544369990 Rises=F Damp=F
 DIIS: error= 6.66D-02 at cycle   8 NSaved=   8.
 NSaved= 8 IEnMin= 8 EnMin= -765.383844726705     IErMin= 8 ErrMin= 6.66D-02
 ErrMax= 6.66D-02  0.00D+00 EMaxC= 1.00D-01 BMatC= 1.49D+01 BMatP= 2.67D+01
 IDIUse=3 WtCom= 3.34D-01 WtEn= 6.66D-01
 Coeff-Com: -0.932D-01 0.149D+00 0.135D-01-0.971D-02 0.199D-01 0.383D+00
 Coeff-Com:  0.292D-01 0.509D+00
 Coeff-En:   0.000D+00 0.000D+00 0.000D+00 0.000D+00 0.000D+00 0.363D+00
 Coeff-En:   0.000D+00 0.637D+00
 Coeff:     -0.312D-01 0.497D-01 0.450D-02-0.324D-02 0.666D-02 0.369D+00
 Coeff:      0.974D-02 0.594D+00
 Gap=    -0.275 Goal=   None    Shift=    0.000
 Gap=    -0.275 Goal=   None    Shift=    0.000
 RMSDP=8.71D-03 MaxDP=5.16D-01 DE=-3.38D+01 OVMax= 8.86D-01

 Cycle   9  Pass 1  IDiag  1:
 RMSU=  7.51D-03    CP:  6.75D-02  2.54D-02  1.29D-02  9.70D-02  1.06D-01
                    CP:  6.86D-01  1.14D-01  6.17D-01
 E= -761.732929999356     Delta-E=        3.650914727349 Rises=F Damp=F
 DIIS: error= 7.44D-02 at cycle   9 NSaved=   9.
 NSaved= 9 IEnMin= 8 EnMin= -765.383844726705     IErMin= 8 ErrMin= 6.66D-02
 ErrMax= 7.44D-02  0.00D+00 EMaxC= 1.00D-01 BMatC= 1.63D+01 BMatP= 1.49D+01
 IDIUse=3 WtCom= 3.34D-01 WtEn= 6.66D-01
 EnCoef did     5 forward-backward iterations
 Coeff-Com: -0.614D-01 0.990D-01 0.105D-01 0.260D-02-0.322D-02 0.278D+00
 Coeff-Com:  0.113D-02 0.445D+00 0.228D+00
 Coeff-En:   0.000D+00 0.000D+00 0.000D+00 0.000D+00 0.000D+00 0.249D+00
 Coeff-En:   0.000D+00 0.512D+00 0.239D+00
 Coeff:     -0.205D-01 0.331D-01 0.351D-02 0.867D-03-0.107D-02 0.259D+00
 Coeff:      0.376D-03 0.490D+00 0.235D+00
 Gap=     0.063 Goal=   None    Shift=    0.000
 Gap=     0.064 Goal=   None    Shift=    0.000
 RMSDP=6.93D-03 MaxDP=3.10D-01 DE= 3.65D+00 OVMax= 8.15D-01

 Cycle  10  Pass 1  IDiag  1:
 RMSU=  3.88D-03    CP:  6.49D-02  2.11D-02  9.80D-03  9.81D-02  9.46D-02
                    CP:  7.20D-01  1.11D-01  6.51D-01  2.47D-01
 E= -769.443659809046     Delta-E=       -7.710729809690 Rises=F Damp=F
 DIIS: error= 3.13D-02 at cycle  10 NSaved=  10.
 NSaved=10 IEnMin=10 EnMin= -769.443659809046     IErMin=10 ErrMin= 3.13D-02
 ErrMax= 3.13D-02  0.00D+00 EMaxC= 1.00D-01 BMatC= 1.95D+00 BMatP= 1.49D+01
 IDIUse=3 WtCom= 6.87D-01 WtEn= 3.13D-01
 Coeff-Com: -0.283D-01 0.429D-01 0.208D-02-0.241D-02-0.104D-01 0.995D-01
 Coeff-Com:  0.618D-02 0.250D+00 0.926D-01 0.548D+00
 Coeff-En:   0.000D+00 0.000D+00 0.000D+00 0.000D+00 0.000D+00 0.000D+00
 Coeff-En:   0.000D+00 0.345D-01 0.000D+00 0.966D+00
 Coeff:     -0.194D-01 0.295D-01 0.143D-02-0.165D-02-0.718D-02 0.683D-01
 Coeff:      0.425D-02 0.183D+00 0.636D-01 0.678D+00
 Gap=     0.158 Goal=   None    Shift=    0.000
 Gap=     0.159 Goal=   None    Shift=    0.000
 RMSDP=3.79D-03 MaxDP=2.07D-01 DE=-7.71D+00 OVMax= 3.47D-01

 Cycle  11  Pass 1  IDiag  1:
 RMSU=  3.52D-03    CP:  6.51D-02  2.14D-02  9.87D-03  1.05D-01  9.66D-02
                    CP:  7.19D-01  1.43D-01  6.41D-01  1.82D-01  7.36D-01
 E= -769.490768496966     Delta-E=       -0.047108687919 Rises=F Damp=F
 DIIS: error= 2.78D-02 at cycle  11 NSaved=  11.
 NSaved=11 IEnMin=11 EnMin= -769.490768496966     IErMin=11 ErrMin= 2.78D-02
 ErrMax= 2.78D-02  0.00D+00 EMaxC= 1.00D-01 BMatC= 1.91D+00 BMatP= 1.95D+00
 IDIUse=3 WtCom= 7.22D-01 WtEn= 2.78D-01
 Coeff-Com: -0.676D-02 0.105D-01 0.371D-02 0.383D-02-0.426D-02-0.253D-01
 Coeff-Com:  0.119D-02 0.255D-01-0.143D-01 0.523D+00 0.483D+00
 Coeff-En:   0.000D+00 0.000D+00 0.000D+00 0.000D+00 0.000D+00 0.000D+00
 Coeff-En:   0.000D+00 0.000D+00 0.000D+00 0.476D+00 0.524D+00
 Coeff:     -0.488D-02 0.756D-02 0.268D-02 0.276D-02-0.308D-02-0.183D-01
 Coeff:      0.863D-03 0.184D-01-0.104D-01 0.510D+00 0.494D+00
 Gap=     0.197 Goal=   None    Shift=    0.000
 Gap=     0.197 Goal=   None    Shift=    0.000
 RMSDP=2.21D-03 MaxDP=1.26D-01 DE=-4.71D-02 OVMax= 1.76D-01

 Cycle  12  Pass 1  IDiag  1:
 RMSU=  9.33D-04    CP:  6.49D-02  2.14D-02  9.56D-03  1.01D-01  9.39D-02
                    CP:  7.07D-01  1.35D-01  6.70D-01  2.19D-01  9.04D-01
                    CP:  4.83D-01
 E= -769.846404948102     Delta-E=       -0.355636451136 Rises=F Damp=F
 DIIS: error= 5.72D-03 at cycle  12 NSaved=  12.
 NSaved=12 IEnMin=12 EnMin= -769.846404948102     IErMin=12 ErrMin= 5.72D-03
 ErrMax= 5.72D-03  0.00D+00 EMaxC= 1.00D-01 BMatC= 7.63D-02 BMatP= 1.91D+00
 IDIUse=3 WtCom= 9.43D-01 WtEn= 5.72D-02
 Coeff-Com: -0.110D-03 0.623D-03 0.142D-03-0.750D-03 0.782D-04-0.193D-02
 Coeff-Com: -0.471D-03 0.711D-02-0.136D-01 0.190D+00 0.240D+00 0.580D+00
 Coeff-En:   0.000D+00 0.000D+00 0.000D+00 0.000D+00 0.000D+00 0.000D+00
 Coeff-En:   0.000D+00 0.000D+00 0.000D+00 0.000D+00 0.000D+00 0.100D+01
 Coeff:     -0.104D-03 0.588D-03 0.134D-03-0.707D-03 0.737D-04-0.182D-02
 Coeff:     -0.444D-03 0.670D-02-0.129D-01 0.179D+00 0.226D+00 0.604D+00
 Gap=     0.195 Goal=   None    Shift=    0.000
 Gap=     0.195 Goal=   None    Shift=    0.000
 RMSDP=5.44D-04 MaxDP=2.72D-02 DE=-3.56D-01 OVMax= 4.12D-02

 Cycle  13  Pass 1  IDiag  1:
 RMSU=  2.93D-04    CP:  6.48D-02  2.10D-02  9.44D-03  1.01D-01  9.44D-02
                    CP:  7.12D-01  1.34D-01  6.65D-01  2.07D-01  8.85D-01
                    CP:  5.42D-01  5.93D-01
 E= -769.862040825720     Delta-E=       -0.015635877618 Rises=F Damp=F
 DIIS: error= 2.15D-03 at cycle  13 NSaved=  13.
 NSaved=13 IEnMin=13 EnMin= -769.862040825720     IErMin=13 ErrMin= 2.15D-03
 ErrMax= 2.15D-03  0.00D+00 EMaxC= 1.00D-01 BMatC= 1.37D-02 BMatP= 7.63D-02
 IDIUse=3 WtCom= 9.78D-01 WtEn= 2.15D-02
 Coeff-Com:  0.948D-04 0.129D-03-0.137D-03-0.584D-03 0.381D-03 0.431D-03
 Coeff-Com: -0.629D-03 0.234D-02-0.829D-02 0.499D-01 0.610D-01 0.332D+00
 Coeff-Com:  0.564D+00
 Coeff-En:   0.000D+00 0.000D+00 0.000D+00 0.000D+00 0.000D+00 0.000D+00
 Coeff-En:   0.000D+00 0.000D+00 0.000D+00 0.000D+00 0.000D+00 0.150D+00
 Coeff-En:   0.850D+00
 Coeff:      0.928D-04 0.126D-03-0.134D-03-0.571D-03 0.373D-03 0.422D-03
 Coeff:     -0.615D-03 0.228D-02-0.811D-02 0.488D-01 0.597D-01 0.328D+00
 Coeff:      0.570D+00
 Gap=     0.192 Goal=   None    Shift=    0.000
 Gap=     0.192 Goal=   None    Shift=    0.000
 RMSDP=1.94D-04 MaxDP=8.27D-03 DE=-1.56D-02 OVMax= 1.87D-02

 Cycle  14  Pass 1  IDiag  1:
 RMSU=  1.16D-04    CP:  6.48D-02  2.10D-02  9.49D-03  1.01D-01  9.44D-02
                    CP:  7.11D-01  1.34D-01  6.64D-01  2.08D-01  8.94D-01
                    CP:  5.32D-01  7.13D-01  6.76D-01
 E= -769.864899351815     Delta-E=       -0.002858526095 Rises=F Damp=F
 DIIS: error= 8.32D-04 at cycle  14 NSaved=  14.
 NSaved=14 IEnMin=14 EnMin= -769.864899351815     IErMin=14 ErrMin= 8.32D-04
 ErrMax= 8.32D-04  0.00D+00 EMaxC= 1.00D-01 BMatC= 1.63D-03 BMatP= 1.37D-02
 IDIUse=3 WtCom= 9.92D-01 WtEn= 8.32D-03
 Coeff-Com:  0.948D-05 0.698D-04-0.913D-04 0.183D-03 0.152D-03 0.504D-03
 Coeff-Com: -0.415D-03 0.191D-02-0.179D-02 0.224D-02-0.135D-01 0.530D-01
 Coeff-Com:  0.288D+00 0.670D+00
 Coeff-En:   0.000D+00 0.000D+00 0.000D+00 0.000D+00 0.000D+00 0.000D+00
 Coeff-En:   0.000D+00 0.000D+00 0.000D+00 0.000D+00 0.000D+00 0.000D+00
 Coeff-En:   0.104D-01 0.990D+00
 Coeff:      0.940D-05 0.692D-04-0.905D-04 0.182D-03 0.151D-03 0.500D-03
 Coeff:     -0.411D-03 0.189D-02-0.177D-02 0.222D-02-0.134D-01 0.526D-01
 Coeff:      0.286D+00 0.672D+00
 Gap=     0.189 Goal=   None    Shift=    0.000
 Gap=     0.189 Goal=   None    Shift=    0.000
 RMSDP=6.54D-05 MaxDP=3.69D-03 DE=-2.86D-03 OVMax= 4.99D-03

 Cycle  15  Pass 1  IDiag  1:
 RMSU=  3.57D-05    CP:  6.48D-02  2.10D-02  9.47D-03  1.01D-01  9.43D-02
                    CP:  7.11D-01  1.34D-01  6.66D-01  2.07D-01  8.94D-01
                    CP:  5.23D-01  7.03D-01  7.67D-01  7.34D-01
 E= -769.865226399696     Delta-E=       -0.000327047881 Rises=F Damp=F
 DIIS: error= 3.14D-04 at cycle  15 NSaved=  15.
 NSaved=15 IEnMin=15 EnMin= -769.865226399696     IErMin=15 ErrMin= 3.14D-04
 ErrMax= 3.14D-04  0.00D+00 EMaxC= 1.00D-01 BMatC= 2.95D-04 BMatP= 1.63D-03
 IDIUse=3 WtCom= 9.97D-01 WtEn= 3.14D-03
 Coeff-Com:  0.617D-04-0.589D-04-0.799D-04 0.205D-03-0.755D-04 0.160D-04
 Coeff-Com:  0.548D-04 0.128D-02-0.103D-02-0.268D-03-0.121D-01-0.936D-02
 Coeff-Com:  0.983D-01 0.402D+00 0.521D+00
 Coeff-En:   0.000D+00 0.000D+00 0.000D+00 0.000D+00 0.000D+00 0.000D+00
 Coeff-En:   0.000D+00 0.000D+00 0.000D+00 0.000D+00 0.000D+00 0.000D+00
 Coeff-En:   0.000D+00 0.000D+00 0.100D+01
 Coeff:      0.615D-04-0.588D-04-0.797D-04 0.205D-03-0.753D-04 0.160D-04
 Coeff:      0.546D-04 0.128D-02-0.103D-02-0.267D-03-0.121D-01-0.933D-02
 Coeff:      0.980D-01 0.401D+00 0.523D+00
 Gap=     0.189 Goal=   None    Shift=    0.000
 Gap=     0.189 Goal=   None    Shift=    0.000
 RMSDP=1.96D-05 MaxDP=7.30D-04 DE=-3.27D-04 OVMax= 1.85D-03

 Cycle  16  Pass 1  IDiag  1:
 RMSU=  1.17D-05    CP:  6.48D-02  2.10D-02  9.47D-03  1.01D-01  9.43D-02
                    CP:  7.11D-01  1.34D-01  6.66D-01  2.07D-01  8.94D-01
                    CP:  5.22D-01  6.99D-01  7.81D-01  8.14D-01  7.03D-01
 E= -769.865281874222     Delta-E=       -0.000055474526 Rises=F Damp=F
 DIIS: error= 1.68D-04 at cycle  16 NSaved=  16.
 NSaved=16 IEnMin=16 EnMin= -769.865281874222     IErMin=16 ErrMin= 1.68D-04
 ErrMax= 1.68D-04  0.00D+00 EMaxC= 1.00D-01 BMatC= 4.35D-05 BMatP= 2.95D-04
 IDIUse=3 WtCom= 9.98D-01 WtEn= 1.68D-03
 Coeff-Com:  0.182D-04-0.426D-04 0.419D-05 0.379D-04-0.214D-04-0.151D-03
 Coeff-Com:  0.684D-04 0.751D-03-0.389D-03-0.209D-02-0.181D-02-0.144D-01
 Coeff-Com: -0.451D-01-0.271D-01 0.420D-01 0.105D+01
 Coeff-En:   0.000D+00 0.000D+00 0.000D+00 0.000D+00 0.000D+00 0.000D+00
 Coeff-En:   0.000D+00 0.000D+00 0.000D+00 0.000D+00 0.000D+00 0.000D+00
 Coeff-En:   0.000D+00 0.000D+00 0.000D+00 0.100D+01
 Coeff:      0.182D-04-0.426D-04 0.418D-05 0.378D-04-0.213D-04-0.151D-03
 Coeff:      0.683D-04 0.750D-03-0.388D-03-0.209D-02-0.181D-02-0.144D-01
 Coeff:     -0.450D-01-0.271D-01 0.419D-01 0.105D+01
 Gap=     0.189 Goal=   None    Shift=    0.000
 Gap=     0.189 Goal=   None    Shift=    0.000
 RMSDP=1.12D-05 MaxDP=3.46D-04 DE=-5.55D-05 OVMax= 6.70D-04

 Cycle  17  Pass 1  IDiag  1:
 RMSU=  6.38D-06    CP:  6.48D-02  2.10D-02  9.46D-03  1.01D-01  9.43D-02
                    CP:  7.11D-01  1.34D-01  6.66D-01  2.07D-01  8.94D-01
                    CP:  5.22D-01  7.02D-01  7.89D-01  8.61D-01  8.04D-01
                    CP:  1.09D+00
 E= -769.865291295488     Delta-E=       -0.000009421266 Rises=F Damp=F
 DIIS: error= 5.21D-05 at cycle  17 NSaved=  17.
 NSaved=17 IEnMin=17 EnMin= -769.865291295488     IErMin=17 ErrMin= 5.21D-05
 ErrMax= 5.21D-05  0.00D+00 EMaxC= 1.00D-01 BMatC= 7.59D-06 BMatP= 4.35D-05
 IDIUse=1 WtCom= 1.00D+00 WtEn= 0.00D+00
 Coeff-Com:  0.151D-05-0.135D-04 0.202D-04-0.883D-05 0.284D-05-0.879D-04
 Coeff-Com: -0.227D-05 0.317D-03-0.131D-03-0.135D-02 0.222D-03-0.227D-02
 Coeff-Com: -0.255D-01-0.415D-01-0.691D-01 0.362D+00 0.777D+00
 Coeff:      0.151D-05-0.135D-04 0.202D-04-0.883D-05 0.284D-05-0.879D-04
 Coeff:     -0.227D-05 0.317D-03-0.131D-03-0.135D-02 0.222D-03-0.227D-02
 Coeff:     -0.255D-01-0.415D-01-0.691D-01 0.362D+00 0.777D+00
 Gap=     0.189 Goal=   None    Shift=    0.000
 Gap=     0.189 Goal=   None    Shift=    0.000
 RMSDP=4.47D-06 MaxDP=1.83D-04 DE=-9.42D-06 OVMax= 2.50D-04

 Cycle  18  Pass 1  IDiag  1:
 RMSU=  2.83D-06    CP:  6.48D-02  2.10D-02  9.46D-03  1.01D-01  9.43D-02
                    CP:  7.11D-01  1.34D-01  6.66D-01  2.07D-01  8.94D-01
                    CP:  5.22D-01  7.04D-01  7.91D-01  8.72D-01  8.07D-01
                    CP:  1.25D+00  9.16D-01
 E= -769.865292807561     Delta-E=       -0.000001512073 Rises=F Damp=F
 DIIS: error= 1.74D-05 at cycle  18 NSaved=  18.
 NSaved=18 IEnMin=18 EnMin= -769.865292807561     IErMin=18 ErrMin= 1.74D-05
 ErrMax= 1.74D-05  0.00D+00 EMaxC= 1.00D-01 BMatC= 9.36D-07 BMatP= 7.59D-06
 IDIUse=1 WtCom= 1.00D+00 WtEn= 0.00D+00
 Coeff-Com:  0.103D-05-0.508D-05 0.667D-05-0.634D-05-0.152D-05 0.678D-05
 Coeff-Com:  0.111D-05 0.270D-04-0.383D-04-0.359D-03 0.331D-03 0.115D-02
 Coeff-Com: -0.549D-02-0.918D-02-0.325D-01-0.118D-01 0.363D+00 0.695D+00
 Coeff:      0.103D-05-0.508D-05 0.667D-05-0.634D-05-0.152D-05 0.678D-05
 Coeff:      0.111D-05 0.270D-04-0.383D-04-0.359D-03 0.331D-03 0.115D-02
 Coeff:     -0.549D-02-0.918D-02-0.325D-01-0.118D-01 0.363D+00 0.695D+00
 Gap=     0.189 Goal=   None    Shift=    0.000
 Gap=     0.189 Goal=   None    Shift=    0.000
 RMSDP=1.83D-06 MaxDP=7.62D-05 DE=-1.51D-06 OVMax= 1.75D-04

 Cycle  19  Pass 1  IDiag  1:
 RMSU=  1.07D-06    CP:  6.48D-02  2.10D-02  9.46D-03  1.01D-01  9.43D-02
                    CP:  7.11D-01  1.34D-01  6.66D-01  2.07D-01  8.94D-01
                    CP:  5.22D-01  7.04D-01  7.90D-01  8.78D-01  8.13D-01
                    CP:  1.27D+00  1.04D+00  7.50D-01
 E= -769.865293020315     Delta-E=       -0.000000212753 Rises=F Damp=F
 DIIS: error= 1.05D-05 at cycle  19 NSaved=  19.
 NSaved=19 IEnMin=19 EnMin= -769.865293020315     IErMin=19 ErrMin= 1.05D-05
 ErrMax= 1.05D-05  0.00D+00 EMaxC= 1.00D-01 BMatC= 1.27D-07 BMatP= 9.36D-07
 IDIUse=1 WtCom= 1.00D+00 WtEn= 0.00D+00
 Coeff-Com: -0.497D-06 0.892D-07 0.220D-05-0.761D-06-0.113D-05 0.135D-04
 Coeff-Com: -0.626D-06-0.117D-04-0.114D-04-0.905D-04 0.159D-03 0.460D-03
 Coeff-Com: -0.252D-02-0.316D-02-0.712D-02-0.132D-01 0.108D+00 0.323D+00
 Coeff-Com:  0.594D+00
 Coeff:     -0.497D-06 0.892D-07 0.220D-05-0.761D-06-0.113D-05 0.135D-04
 Coeff:     -0.626D-06-0.117D-04-0.114D-04-0.905D-04 0.159D-03 0.460D-03
 Coeff:     -0.252D-02-0.316D-02-0.712D-02-0.132D-01 0.108D+00 0.323D+00
 Coeff:      0.594D+00
 Gap=     0.189 Goal=   None    Shift=    0.000
 Gap=     0.189 Goal=   None    Shift=    0.000
 RMSDP=5.43D-07 MaxDP=2.18D-05 DE=-2.13D-07 OVMax= 5.28D-05

 Cycle  20  Pass 1  IDiag  1:
 RMSU=  3.68D-07    CP:  6.48D-02  2.10D-02  9.46D-03  1.01D-01  9.43D-02
                    CP:  7.11D-01  1.34D-01  6.66D-01  2.07D-01  8.94D-01
                    CP:  5.22D-01  7.05D-01  7.90D-01  8.78D-01  8.15D-01
                    CP:  1.27D+00  1.04D+00  8.07D-01  7.02D-01
 E= -769.865293047502     Delta-E=       -0.000000027187 Rises=F Damp=F
 DIIS: error= 2.97D-06 at cycle  20 NSaved=  20.
 NSaved=20 IEnMin=20 EnMin= -769.865293047502     IErMin=20 ErrMin= 2.97D-06
 ErrMax= 2.97D-06  0.00D+00 EMaxC= 1.00D-01 BMatC= 2.14D-08 BMatP= 1.27D-07
 IDIUse=1 WtCom= 1.00D+00 WtEn= 0.00D+00
 Coeff-Com: -0.660D-06 0.807D-06 0.686D-06 0.617D-06-0.132D-06 0.947D-05
 Coeff-Com: -0.127D-05-0.730D-05-0.533D-05-0.320D-04 0.476D-04 0.806D-04
 Coeff-Com: -0.141D-02-0.152D-02 0.321D-03 0.132D-02 0.273D-01 0.106D+00
 Coeff-Com:  0.302D+00 0.566D+00
 Coeff:     -0.660D-06 0.807D-06 0.686D-06 0.617D-06-0.132D-06 0.947D-05
 Coeff:     -0.127D-05-0.730D-05-0.533D-05-0.320D-04 0.476D-04 0.806D-04
 Coeff:     -0.141D-02-0.152D-02 0.321D-03 0.132D-02 0.273D-01 0.106D+00
 Coeff:      0.302D+00 0.566D+00
 Gap=     0.189 Goal=   None    Shift=    0.000
 Gap=     0.189 Goal=   None    Shift=    0.000
 RMSDP=2.18D-07 MaxDP=8.41D-06 DE=-2.72D-08 OVMax= 2.30D-05

 Cycle  21  Pass 1  IDiag  1:
 Restarting incremental Fock formation.
 E= -769.865293052320     Delta-E=       -0.000000004819 Rises=F Damp=F
 DIIS: error= 1.37D-06 at cycle  21 NSaved=  20.
 NSaved=20 IEnMin=20 EnMin= -769.865293052320     IErMin=20 ErrMin= 1.37D-06
 ErrMax= 1.37D-06  0.00D+00 EMaxC= 1.00D-01 BMatC= 2.72D-09 BMatP= 2.14D-08
 IDIUse=1 WtCom= 1.00D+00 WtEn= 0.00D+00
 Coeff-Com: -0.207D-07-0.125D-07 0.419D-06-0.420D-07 0.259D-05-0.297D-06
 Coeff-Com: -0.276D-05-0.202D-05 0.270D-05 0.354D-05-0.826D-04-0.512D-03
 Coeff-Com: -0.740D-03 0.125D-02 0.479D-02-0.433D-02-0.150D-01-0.298D-02
 Coeff-Com:  0.191D+00 0.827D+00
 Coeff:     -0.207D-07-0.125D-07 0.419D-06-0.420D-07 0.259D-05-0.297D-06
 Coeff:     -0.276D-05-0.202D-05 0.270D-05 0.354D-05-0.826D-04-0.512D-03
 Coeff:     -0.740D-03 0.125D-02 0.479D-02-0.433D-02-0.150D-01-0.298D-02
 Coeff:      0.191D+00 0.827D+00
 Gap=     0.189 Goal=   None    Shift=    0.000
 Gap=     0.189 Goal=   None    Shift=    0.000
 RMSDP=9.40D-08 MaxDP=4.08D-06 DE=-4.82D-09 OVMax= 8.74D-06

 Cycle  22  Pass 1  IDiag  1:
 RMSU=  9.40D-08    CP:  1.00D+00
 E= -769.865293052913     Delta-E=       -0.000000000593 Rises=F Damp=F
 DIIS: error= 3.80D-07 at cycle  22 NSaved=  20.
 NSaved=20 IEnMin=20 EnMin= -769.865293052913     IErMin=20 ErrMin= 3.80D-07
 ErrMax= 3.80D-07  0.00D+00 EMaxC= 1.00D-01 BMatC= 4.73D-10 BMatP= 2.72D-09
 IDIUse=1 WtCom= 1.00D+00 WtEn= 0.00D+00
 Coeff-Com: -0.323D-07-0.125D-07-0.656D-07 0.507D-06-0.696D-07-0.763D-06
 Coeff-Com: -0.612D-06 0.573D-05 0.291D-05-0.465D-04-0.201D-03-0.399D-03
 Coeff-Com:  0.144D-03 0.144D-02-0.178D-02-0.130D-01-0.292D-01 0.241D-01
 Coeff-Com:  0.415D+00 0.604D+00
 Coeff:     -0.323D-07-0.125D-07-0.656D-07 0.507D-06-0.696D-07-0.763D-06
 Coeff:     -0.612D-06 0.573D-05 0.291D-05-0.465D-04-0.201D-03-0.399D-03
 Coeff:      0.144D-03 0.144D-02-0.178D-02-0.130D-01-0.292D-01 0.241D-01
 Coeff:      0.415D+00 0.604D+00
 Gap=     0.189 Goal=   None    Shift=    0.000
 Gap=     0.189 Goal=   None    Shift=    0.000
 RMSDP=3.45D-08 MaxDP=1.37D-06 DE=-5.93D-10 OVMax= 3.61D-06

 Cycle  23  Pass 1  IDiag  1:
 RMSU=  3.20D-08    CP:  1.00D+00  8.63D-01
 E= -769.865293053033     Delta-E=       -0.000000000120 Rises=F Damp=F
 DIIS: error= 1.09D-07 at cycle  23 NSaved=  20.
 NSaved=20 IEnMin=20 EnMin= -769.865293053033     IErMin=20 ErrMin= 1.09D-07
 ErrMax= 1.09D-07  0.00D+00 EMaxC= 1.00D-01 BMatC= 3.50D-11 BMatP= 4.73D-10
 IDIUse=1 WtCom= 1.00D+00 WtEn= 0.00D+00
 Coeff-Com: -0.273D-10-0.958D-08 0.286D-07-0.100D-07 0.277D-07-0.107D-06
 Coeff-Com:  0.240D-05-0.122D-05-0.150D-04-0.271D-04-0.549D-04-0.338D-04
 Coeff-Com: -0.700D-04-0.410D-03-0.411D-02-0.111D-01-0.926D-02 0.741D-01
 Coeff-Com:  0.252D+00 0.699D+00
 Coeff:     -0.273D-10-0.958D-08 0.286D-07-0.100D-07 0.277D-07-0.107D-06
 Coeff:      0.240D-05-0.122D-05-0.150D-04-0.271D-04-0.549D-04-0.338D-04
 Coeff:     -0.700D-04-0.410D-03-0.411D-02-0.111D-01-0.926D-02 0.741D-01
 Coeff:      0.252D+00 0.699D+00
 Gap=     0.189 Goal=   None    Shift=    0.000
 Gap=     0.189 Goal=   None    Shift=    0.000
 RMSDP=1.02D-08 MaxDP=4.06D-07 DE=-1.20D-10 OVMax= 9.14D-07

 Cycle  24  Pass 1  IDiag  1:
 RMSU=  9.48D-09    CP:  1.00D+00  9.04D-01  9.79D-01
 E= -769.865293053039     Delta-E=       -0.000000000006 Rises=F Damp=F
 DIIS: error= 3.47D-08 at cycle  24 NSaved=  20.
 NSaved=20 IEnMin=20 EnMin= -769.865293053039     IErMin=20 ErrMin= 3.47D-08
 ErrMax= 3.47D-08  0.00D+00 EMaxC= 1.00D-01 BMatC= 3.04D-12 BMatP= 3.50D-11
 IDIUse=1 WtCom= 1.00D+00 WtEn= 0.00D+00
 Coeff-Com:  0.701D-08-0.231D-07 0.767D-08-0.496D-08-0.418D-07 0.923D-06
 Coeff-Com: -0.657D-06-0.400D-05-0.249D-05-0.640D-05-0.335D-04-0.138D-03
 Coeff-Com: -0.158D-03-0.143D-02-0.356D-02-0.485D-02 0.115D-01 0.859D-01
 Coeff-Com:  0.324D+00 0.589D+00
 Coeff:      0.701D-08-0.231D-07 0.767D-08-0.496D-08-0.418D-07 0.923D-06
 Coeff:     -0.657D-06-0.400D-05-0.249D-05-0.640D-05-0.335D-04-0.138D-03
 Coeff:     -0.158D-03-0.143D-02-0.356D-02-0.485D-02 0.115D-01 0.859D-01
 Coeff:      0.324D+00 0.589D+00
 Gap=     0.189 Goal=   None    Shift=    0.000
 Gap=     0.189 Goal=   None    Shift=    0.000
 RMSDP=3.15D-09 MaxDP=1.57D-07 DE=-5.91D-12 OVMax= 3.39D-07

 Error on total polarization charges =  0.00919
 SCF Done:  E(UB3LYP) =  -769.865293053     A.U. after   24 cycles
            NFock= 24  Conv=0.32D-08     -V/T= 2.0096
 <Sx>= 0.0000 <Sy>= 0.0000 <Sz>= 0.0000 <S**2>= 0.0000 S= 0.0000
 <L.S>=  0.00000000000    
 KE= 7.625269594608D+02 PE=-4.367416163584D+03 EE= 1.545748224598D+03
 Annihilation of the first spin contaminant:
 S**2 before annihilation     0.0000,   after     0.0000
 Leave Link  502 at Fri May 10 18:02:25 2019, MaxMem=   104857600 cpu:            1797.7 elap:              57.1
 (Enter /opt/software/gaussian/g16.b01/l801.exe)
 DoSCS=F DFT=T ScalE2(SS,OS)=  1.000000  1.000000
 ExpMin= 1.61D-01 ExpMax= 5.48D+03 ExpMxC= 8.25D+02 IAcc=3 IRadAn=         5 AccDes= 0.00D+00
 HarFok:  IExCor=  205 AccDes= 0.00D+00 IRadAn=         5 IDoV=-2 UseB2=F ITyADJ=14
 ICtDFT= 12500011 ScaDFX=  1.000000  1.000000  1.000000  1.000000
 Largest valence mixing into a core orbital is  5.78D-05
 Largest core mixing into a valence orbital is  1.23D-05
 Largest valence mixing into a core orbital is  5.78D-05
 Largest core mixing into a valence orbital is  1.23D-05
 Range of M.O.s used for correlation:    19   350
 NBasis=   350 NAE=    64 NBE=    64 NFC=    18 NFV=     0
 NROrb=    332 NOA=    46 NOB=    46 NVA=   286 NVB=   286
 Leave Link  801 at Fri May 10 18:02:25 2019, MaxMem=   104857600 cpu:               3.8 elap:               0.2
 (Enter /opt/software/gaussian/g16.b01/l914.exe)
 UHF ground state
 Two-electron integrals replicated using symmetry.
 MDV=   104857600 DFT=T DoStab=F Mixed=T DoRPA=T DoScal=F NonHer=T
 NEqPCM:  Using non-equilibrium solvation (IEInf=1, Eps=  35.6880, EpsInf=   1.8069)
 Inv3:  Mode=1 IEnd=    17846163.
 Iteration    1 A*A^-1 deviation from unit magnitude is 3.22D-15 for   1236.
 Iteration    1 A*A^-1 deviation from orthogonality  is 2.26D-15 for   1768    465.
 Iteration    1 A^-1*A deviation from unit magnitude is 3.22D-15 for    821.
 Iteration    1 A^-1*A deviation from orthogonality  is 2.66D-15 for   2382   1120.
 Making orbital integer symmetry assigments:
 Orbital symmetries:
 Alpha Orbitals:
       Occupied  (A) (A) (A) (A) (A) (A) (A) (A) (A) (A) (A) (A)
                 (A) (A) (A) (A) (A) (A) (A) (A) (A) (A) (A) (A)
                 (A) (A) (A) (A) (A) (A) (A) (A) (A) (A) (A) (A)
                 (A) (A) (A) (A) (A) (A) (A) (A) (A) (A) (A) (A)
                 (A) (A) (A) (A) (A) (A) (A) (A) (A) (A) (A) (A)
                 (A) (A) (A) (A)
       Virtual   (A) (A) (A) (A) (A) (A) (A) (A) (A) (A) (A) (A)
                 (A) (A) (A) (A) (A) (A) (A) (A) (A) (A) (A) (A)
                 (A) (A) (A) (A) (A) (A) (A) (A) (A) (A) (A) (A)
                 (A) (A) (A) (A) (A) (A) (A) (A) (A) (A) (A) (A)
                 (A) (A) (A) (A) (A) (A) (A) (A) (A) (A) (A) (A)
                 (A) (A) (A) (A) (A) (A) (A) (A) (A) (A) (A) (A)
                 (A) (A) (A) (A) (A) (A) (A) (A) (A) (A) (A) (A)
                 (A) (A) (A) (A) (A) (A) (A) (A) (A) (A) (A) (A)
                 (A) (A) (A) (A) (A) (A) (A) (A) (A) (A) (A) (A)
                 (A) (A) (A) (A) (A) (A) (A) (A) (A) (A) (A) (A)
                 (A) (A) (A) (A) (A) (A) (A) (A) (A) (A) (A) (A)
                 (A) (A) (A) (A) (A) (A) (A) (A) (A) (A) (A) (A)
                 (A) (A) (A) (A) (A) (A) (A) (A) (A) (A) (A) (A)
                 (A) (A) (A) (A) (A) (A) (A) (A) (A) (A) (A) (A)
                 (A) (A) (A) (A) (A) (A) (A) (A) (A) (A) (A) (A)
                 (A) (A) (A) (A) (A) (A) (A) (A) (A) (A) (A) (A)
                 (A) (A) (A) (A) (A) (A) (A) (A) (A) (A) (A) (A)
                 (A) (A) (A) (A) (A) (A) (A) (A) (A) (A) (A) (A)
                 (A) (A) (A) (A) (A) (A) (A) (A) (A) (A) (A) (A)
                 (A) (A) (A) (A) (A) (A) (A) (A) (A) (A) (A) (A)
                 (A) (A) (A) (A) (A) (A) (A) (A) (A) (A) (A) (A)
                 (A) (A) (A) (A) (A) (A) (A) (A) (A) (A) (A) (A)
                 (A) (A) (A) (A) (A) (A) (A) (A) (A) (A) (A) (A)
                 (A) (A) (A) (A) (A) (A) (A) (A) (A) (A)
 Beta  Orbitals:
       Occupied  (A) (A) (A) (A) (A) (A) (A) (A) (A) (A) (A) (A)
                 (A) (A) (A) (A) (A) (A) (A) (A) (A) (A) (A) (A)
                 (A) (A) (A) (A) (A) (A) (A) (A) (A) (A) (A) (A)
                 (A) (A) (A) (A) (A) (A) (A) (A) (A) (A) (A) (A)
                 (A) (A) (A) (A) (A) (A) (A) (A) (A) (A) (A) (A)
                 (A) (A) (A) (A)
       Virtual   (A) (A) (A) (A) (A) (A) (A) (A) (A) (A) (A) (A)
                 (A) (A) (A) (A) (A) (A) (A) (A) (A) (A) (A) (A)
                 (A) (A) (A) (A) (A) (A) (A) (A) (A) (A) (A) (A)
                 (A) (A) (A) (A) (A) (A) (A) (A) (A) (A) (A) (A)
                 (A) (A) (A) (A) (A) (A) (A) (A) (A) (A) (A) (A)
                 (A) (A) (A) (A) (A) (A) (A) (A) (A) (A) (A) (A)
                 (A) (A) (A) (A) (A) (A) (A) (A) (A) (A) (A) (A)
                 (A) (A) (A) (A) (A) (A) (A) (A) (A) (A) (A) (A)
                 (A) (A) (A) (A) (A) (A) (A) (A) (A) (A) (A) (A)
                 (A) (A) (A) (A) (A) (A) (A) (A) (A) (A) (A) (A)
                 (A) (A) (A) (A) (A) (A) (A) (A) (A) (A) (A) (A)
                 (A) (A) (A) (A) (A) (A) (A) (A) (A) (A) (A) (A)
                 (A) (A) (A) (A) (A) (A) (A) (A) (A) (A) (A) (A)
                 (A) (A) (A) (A) (A) (A) (A) (A) (A) (A) (A) (A)
                 (A) (A) (A) (A) (A) (A) (A) (A) (A) (A) (A) (A)
                 (A) (A) (A) (A) (A) (A) (A) (A) (A) (A) (A) (A)
                 (A) (A) (A) (A) (A) (A) (A) (A) (A) (A) (A) (A)
                 (A) (A) (A) (A) (A) (A) (A) (A) (A) (A) (A) (A)
                 (A) (A) (A) (A) (A) (A) (A) (A) (A) (A) (A) (A)
                 (A) (A) (A) (A) (A) (A) (A) (A) (A) (A) (A) (A)
                 (A) (A) (A) (A) (A) (A) (A) (A) (A) (A) (A) (A)
                 (A) (A) (A) (A) (A) (A) (A) (A) (A) (A) (A) (A)
                 (A) (A) (A) (A) (A) (A) (A) (A) (A) (A) (A) (A)
                 (A) (A) (A) (A) (A) (A) (A) (A) (A) (A)
    96 initial guesses have been made.
 Convergence on wavefunction:    0.001000000000000
 Davidson Disk Diagonalization:  ConvIn= 1.00D-03 SkipCon=T Conv= 1.00D-03.
 Max sub-space:  2000 roots to seek:    96 dimension of matrix:        26312
 Iteration     1 Dimension    96 NMult     0 NNew     96
 CISAX will form     4 AO SS matrices at one time.
 NMat=     4 NSing=     4 JSym2X= 0.
 FoFJK:  IHMeth= 1 ICntrl=       0 DoSepK=F KAlg= 0 I1Cent=           0 FoldK=F
 IRaf= 840000000 NMat=       8 IRICut=       1 DoRegI=T DoRafI=F ISym2E= 0 IDoP0=0 IntGTp=1.
 NMat=     4 NSing=     4 JSym2X= 0.
 NMat=     4 NSing=     4 JSym2X= 0.
 NMat=     4 NSing=     4 JSym2X= 0.
 NMat=     4 NSing=     4 JSym2X= 0.
 NMat=     4 NSing=     4 JSym2X= 0.
 NMat=     4 NSing=     4 JSym2X= 0.
 NMat=     4 NSing=     4 JSym2X= 0.
 NMat=     4 NSing=     4 JSym2X= 0.
 NMat=     4 NSing=     4 JSym2X= 0.
 NMat=     4 NSing=     4 JSym2X= 0.
 NMat=     4 NSing=     4 JSym2X= 0.
 NMat=     4 NSing=     4 JSym2X= 0.
 NMat=     4 NSing=     4 JSym2X= 0.
 NMat=     4 NSing=     4 JSym2X= 0.
 NMat=     4 NSing=     4 JSym2X= 0.
 NMat=     4 NSing=     4 JSym2X= 0.
 NMat=     4 NSing=     4 JSym2X= 0.
 NMat=     4 NSing=     4 JSym2X= 0.
 NMat=     4 NSing=     4 JSym2X= 0.
 NMat=     4 NSing=     4 JSym2X= 0.
 NMat=     4 NSing=     4 JSym2X= 0.
 NMat=     4 NSing=     4 JSym2X= 0.
 NMat=     4 NSing=     4 JSym2X= 0.
 New state      1 was old state     11
 New state      2 was old state      5
 New state      3 was old state      1
 New state      4 was old state      7
 New state      5 was old state      4
 New state      7 was old state      2
 New state     10 was old state     25
 New state     11 was old state      3
 New state     12 was old state     32
 New state     13 was old state     12
 New state     14 was old state     16
 New state     16 was old state     10
 New state     17 was old state     18
 New state     18 was old state     17
 New state     19 was old state     22
 New state     21 was old state     14
 New state     22 was old state     24
 New state     23 was old state     21
 New state     24 was old state     23
 Excitation Energies [eV] at current iteration:
 Root      1 :     3.403132349389236
 Root      2 :     3.411532287597096
 Root      3 :     3.628454205489156
 Root      4 :     3.656536398165580
 Root      5 :     3.862557959282311
 Root      6 :     3.872848567536626
 Root      7 :     3.969953909242667
 Root      8 :     4.015952837066629
 Root      9 :     4.559375230834049
 Root     10 :     4.590781363623429
 Root     11 :     4.619397169168353
 Root     12 :     4.622606450903936
 Root     13 :     4.625061536777705
 Root     14 :     4.652715656117032
 Root     15 :     4.660490988125247
 Root     16 :     4.691549045428095
 Root     17 :     4.705146059102345
 Root     18 :     4.767076509669811
 Root     19 :     4.799018671559529
 Root     20 :     4.862465929166978
 Root     21 :     4.862732684259034
 Root     22 :     4.912111939953795
 Root     23 :     4.957944282700280
 Root     24 :     5.029475537153463
 Root     25 :     5.143790628296361
 Root     26 :     5.186015437685902
 Root     27 :     5.656276797781934
 Root     28 :     5.748687996103553
 Root     29 :     5.760100160823686
 Root     30 :     5.791270459888555
 Root     31 :     5.817418261044113
 Root     32 :     5.842210333297174
 Root     33 :     5.937245353748494
 Root     34 :     5.977194593438468
 Root     35 :     6.034136320705299
 Root     36 :     6.061074239200991
 Root     37 :     6.072000408001311
 Root     38 :     6.073252419971450
 Root     39 :     6.080052892874670
 Root     40 :     6.118621780694625
 Root     41 :     6.129303880643990
 Root     42 :     6.129918268625583
 Root     43 :     6.146114867143210
 Root     44 :     6.154447622676551
 Root     45 :     6.157684352077037
 Root     46 :     6.219839746644619
 Root     47 :     6.540539589630750
 Root     48 :     6.548077749781305
 Root     49 :     6.579242933841948
 Root     50 :     6.606211169619469
 Root     51 :     6.613138976441029
 Root     52 :     6.648098737018587
 Root     53 :     6.663293409549581
 Root     54 :     6.675783274591352
 Root     55 :     6.702908369924681
 Root     56 :     6.772592768166249
 Root     57 :     6.784288550209106
 Root     58 :     6.786811710599158
 Root     59 :     6.805720372773059
 Root     60 :     6.831908513035683
 Root     61 :     6.897891854647630
 Root     62 :     6.905900430138002
 Root     63 :     7.061750543154895
 Root     64 :     7.071077625857284
 Root     65 :     7.154540479495386
 Root     66 :     7.157937554371784
 Root     67 :     7.195028818013789
 Root     68 :     7.216941833359615
 Root     69 :     7.247344992776713
 Root     70 :     7.254615631697124
 Root     71 :     7.275562572796589
 Root     72 :     7.289038175643697
 Root     73 :     7.322054633363184
 Root     74 :     7.325968464107250
 Root     75 :     7.337638660235134
 Root     76 :     7.346085862375318
 Root     77 :     7.353604593323689
 Root     78 :     7.377274193779227
 Root     79 :     7.391779725822463
 Root     80 :     7.454982866168997
 Root     81 :     7.502460707774490
 Root     82 :     7.503626784408223
 Root     83 :     7.503773544256960
 Root     84 :     7.512150291246488
 Root     85 :     7.515791231792496
 Root     86 :     7.565832043512593
 Root     87 :     7.573429831645378
 Root     88 :     7.593022846247386
 Root     89 :     7.601507692927598
 Root     90 :     7.647406036286177
 Root     91 :     7.971201847994979
 Root     92 :     8.030605084387638
 Root     93 :     8.556329234272660
 Root     94 :     8.789971713756263
 Root     95 :     9.381948928208523
 Root     96 :     9.476638545863562
 Iteration     2 Dimension   144 NMult    96 NNew     48
 CISAX will form     4 AO SS matrices at one time.
 NMat=     4 NSing=     4 JSym2X= 0.
 NMat=     4 NSing=     4 JSym2X= 0.
 NMat=     4 NSing=     4 JSym2X= 0.
 NMat=     4 NSing=     4 JSym2X= 0.
 NMat=     4 NSing=     4 JSym2X= 0.
 NMat=     4 NSing=     4 JSym2X= 0.
 NMat=     4 NSing=     4 JSym2X= 0.
 NMat=     4 NSing=     4 JSym2X= 0.
 NMat=     4 NSing=     4 JSym2X= 0.
 NMat=     4 NSing=     4 JSym2X= 0.
 NMat=     4 NSing=     4 JSym2X= 0.
 NMat=     4 NSing=     4 JSym2X= 0.
 Root      1 not converged, maximum delta is    0.220238585586353
 Root      2 not converged, maximum delta is    0.207867544321246
 Root      3 not converged, maximum delta is    0.276206015164625
 Root      4 not converged, maximum delta is    0.138745786190811
 Root      5 not converged, maximum delta is    0.018254070603294
 Root      6 not converged, maximum delta is    0.016482171287058
 Root      7 not converged, maximum delta is    0.034272766958538
 Root      8 not converged, maximum delta is    0.019896294975590
 New state      9 was old state     10
 Root      9 not converged, maximum delta is    0.092225981601972
 New state     10 was old state     12
 Root     10 not converged, maximum delta is    0.135078038068577
 New state     11 was old state      9
 Root     11 not converged, maximum delta is    0.095795429105702
 New state     12 was old state     11
 Root     12 not converged, maximum delta is    0.129214311106504
 Root     13 not converged, maximum delta is    0.154270984914896
 New state     14 was old state     16
 Root     14 not converged, maximum delta is    0.288795650548760
 New state     15 was old state     14
 Root     15 not converged, maximum delta is    0.020738833987733
 New state     16 was old state     15
 Root     16 not converged, maximum delta is    0.143442353543827
 Root     17 not converged, maximum delta is    0.060291370031208
 Root     18 not converged, maximum delta is    0.280886730862940
 Root     19 not converged, maximum delta is    0.054830260920389
 New state     20 was old state     21
 Root     20 not converged, maximum delta is    0.211592201641168
 New state     21 was old state     20
 Root     21 not converged, maximum delta is    0.025181495947090
 New state     22 was old state     23
 Root     22 not converged, maximum delta is    0.165444452160316
 New state     23 was old state     22
 Root     23 not converged, maximum delta is    0.034749668202348
 Root     24 not converged, maximum delta is    0.173126970918544
 Excitation Energies [eV] at current iteration:
 Root      1 :     3.306182213492156   Change is   -0.096950135897080
 Root      2 :     3.307759784478028   Change is   -0.103772503119068
 Root      3 :     3.337015895126196   Change is   -0.291438310362959
 Root      4 :     3.347876847331396   Change is   -0.308659550834184
 Root      5 :     3.815665712162918   Change is   -0.046892247119393
 Root      6 :     3.823933243480013   Change is   -0.048915324056613
 Root      7 :     3.913477873434769   Change is   -0.056476035807898
 Root      8 :     3.960637194114311   Change is   -0.055315642952318
 Root      9 :     4.413651326326976   Change is   -0.177130037296454
 Root     10 :     4.441748989025381   Change is   -0.180857461878555
 Root     11 :     4.472411911629602   Change is   -0.086963319204447
 Root     12 :     4.613919320037575   Change is   -0.005477849130779
 Root     13 :     4.617377728480692   Change is   -0.007683808297013
 Root     14 :     4.647514361223513   Change is   -0.044034684204582
 Root     15 :     4.647974474759199   Change is   -0.004741181357834
 Root     16 :     4.656371155093491   Change is   -0.004119833031755
 Root     17 :     4.691446713239155   Change is   -0.013699345863190
 Root     18 :     4.705520034750464   Change is   -0.061556474919347
 Root     19 :     4.772630515785067   Change is   -0.026388155774462
 Root     20 :     4.824687059689189   Change is   -0.038045624569845
 Root     21 :     4.854452057290752   Change is   -0.008013871876227
 Root     22 :     4.876733857881824   Change is   -0.081210424818456
 Root     23 :     4.898894263198917   Change is   -0.013217676754878
 Root     24 :     4.941945779548877   Change is   -0.087529757604586
 Iteration     3 Dimension   192 NMult   144 NNew     48
 CISAX will form     4 AO SS matrices at one time.
 NMat=     4 NSing=     4 JSym2X= 0.
 NMat=     4 NSing=     4 JSym2X= 0.
 NMat=     4 NSing=     4 JSym2X= 0.
 NMat=     4 NSing=     4 JSym2X= 0.
 NMat=     4 NSing=     4 JSym2X= 0.
 NMat=     4 NSing=     4 JSym2X= 0.
 NMat=     4 NSing=     4 JSym2X= 0.
 NMat=     4 NSing=     4 JSym2X= 0.
 NMat=     4 NSing=     4 JSym2X= 0.
 NMat=     4 NSing=     4 JSym2X= 0.
 NMat=     4 NSing=     4 JSym2X= 0.
 NMat=     4 NSing=     4 JSym2X= 0.
 Root      1 not converged, maximum delta is    0.212885759922991
 Root      2 not converged, maximum delta is    0.221191930231550
 Root      3 not converged, maximum delta is    0.042380100110322
 Root      4 not converged, maximum delta is    0.026351625086983
 Root      5 not converged, maximum delta is    0.001201117303480
 Root      6 not converged, maximum delta is    0.001163623944800
 Root      7 not converged, maximum delta is    0.004612023823680
 Root      8 not converged, maximum delta is    0.005390549788127
 Root      9 not converged, maximum delta is    0.012018230703044
 Root     10 not converged, maximum delta is    0.014273917181402
 Root     11 not converged, maximum delta is    0.008427399800448
 Root     12 not converged, maximum delta is    0.004500091366125
 Root     13 not converged, maximum delta is    0.039804561500740
 Root     14 not converged, maximum delta is    0.060039573111331
 Root     15 not converged, maximum delta is    0.006123590614808
 Root     16 not converged, maximum delta is    0.068335380745054
 Root     17 not converged, maximum delta is    0.008707600233721
 Root     18 not converged, maximum delta is    0.034177006448826
 Root     19 not converged, maximum delta is    0.013322036520657
 Root     20 not converged, maximum delta is    0.039533023479543
 Root     21 not converged, maximum delta is    0.006276990085848
 Root     22 not converged, maximum delta is    0.032254412531657
 Root     23 not converged, maximum delta is    0.008590125736865
 Root     24 not converged, maximum delta is    0.022136299470991
 Excitation Energies [eV] at current iteration:
 Root      1 :     3.303489097968414   Change is   -0.002693115523742
 Root      2 :     3.304279779708219   Change is   -0.003480004769809
 Root      3 :     3.331670437488122   Change is   -0.005345457638075
 Root      4 :     3.340624429319839   Change is   -0.007252418011557
 Root      5 :     3.813824009773318   Change is   -0.001841702389600
 Root      6 :     3.822092510090962   Change is   -0.001840733389052
 Root      7 :     3.910850741087285   Change is   -0.002627132347484
 Root      8 :     3.957779904668695   Change is   -0.002857289445616
 Root      9 :     4.406513231298512   Change is   -0.007138095028463
 Root     10 :     4.433536737809034   Change is   -0.008212251216348
 Root     11 :     4.465357274191672   Change is   -0.007054637437930
 Root     12 :     4.613329138696093   Change is   -0.000590181341482
 Root     13 :     4.615610236102764   Change is   -0.001767492377928
 Root     14 :     4.642194033266427   Change is   -0.005320327957086
 Root     15 :     4.647313183810994   Change is   -0.000661290948205
 Root     16 :     4.655629279491759   Change is   -0.000741875601733
 Root     17 :     4.689901783028799   Change is   -0.001544930210356
 Root     18 :     4.700587012440947   Change is   -0.004933022309517
 Root     19 :     4.768041014698118   Change is   -0.004589501086949
 Root     20 :     4.818099840408170   Change is   -0.006587219281019
 Root     21 :     4.853778005643131   Change is   -0.000674051647621
 Root     22 :     4.868521171076843   Change is   -0.008212686804981
 Root     23 :     4.897151114837434   Change is   -0.001743148361483
 Root     24 :     4.935641123018788   Change is   -0.006304656530088
 Iteration     4 Dimension   240 NMult   192 NNew     48
 CISAX will form     4 AO SS matrices at one time.
 NMat=     4 NSing=     4 JSym2X= 0.
 NMat=     4 NSing=     4 JSym2X= 0.
 NMat=     4 NSing=     4 JSym2X= 0.
 NMat=     4 NSing=     4 JSym2X= 0.
 NMat=     4 NSing=     4 JSym2X= 0.
 NMat=     4 NSing=     4 JSym2X= 0.
 NMat=     4 NSing=     4 JSym2X= 0.
 NMat=     4 NSing=     4 JSym2X= 0.
 NMat=     4 NSing=     4 JSym2X= 0.
 NMat=     4 NSing=     4 JSym2X= 0.
 NMat=     4 NSing=     4 JSym2X= 0.
 NMat=     4 NSing=     4 JSym2X= 0.
 Root      1 not converged, maximum delta is    0.011563000781517
 Root      2 not converged, maximum delta is    0.012103037601849
 Root      3 not converged, maximum delta is    0.001386427833354
 Root      4 not converged, maximum delta is    0.001085453804023
 Root      5 has converged.
 Root      6 has converged.
 Root      7 has converged.
 Root      8 has converged.
 Root      9 has converged.
 Root     10 not converged, maximum delta is    0.001139003007690
 Root     11 has converged.
 Root     12 has converged.
 Root     13 not converged, maximum delta is    0.002407641933083
 Root     14 not converged, maximum delta is    0.002665105388346
 Root     15 has converged.
 Root     16 not converged, maximum delta is    0.002510211137309
 Root     17 has converged.
 Root     18 not converged, maximum delta is    0.001619179532752
 Root     19 has converged.
 Root     20 not converged, maximum delta is    0.003019162975632
 Root     21 has converged.
 Root     22 not converged, maximum delta is    0.003428507452609
 Root     23 has converged.
 Root     24 not converged, maximum delta is    0.001704878282183
 Excitation Energies [eV] at current iteration:
 Root      1 :     3.303402061335810   Change is   -0.000087036632603
 Root      2 :     3.304186354582287   Change is   -0.000093425125932
 Root      3 :     3.331540351379092   Change is   -0.000130086109030
 Root      4 :     3.340429723318088   Change is   -0.000194706001751
 Root      5 :     3.813690573953484   Change is   -0.000133435819834
 Root      6 :     3.822011945178470   Change is   -0.000080564912491
 Root      7 :     3.910765966130534   Change is   -0.000084774956751
 Root      8 :     3.957688256165194   Change is   -0.000091648503501
 Root      9 :     4.406172588479611   Change is   -0.000340642818902
 Root     10 :     4.433152969632613   Change is   -0.000383768176420
 Root     11 :     4.464951151570774   Change is   -0.000406122620898
 Root     12 :     4.613299391232314   Change is   -0.000029747463779
 Root     13 :     4.615492647880420   Change is   -0.000117588222344
 Root     14 :     4.641919560538366   Change is   -0.000274472728061
 Root     15 :     4.647275248815141   Change is   -0.000037934995853
 Root     16 :     4.655593594211276   Change is   -0.000035685280483
 Root     17 :     4.689823277709531   Change is   -0.000078505319269
 Root     18 :     4.700303658629880   Change is   -0.000283353811066
 Root     19 :     4.767816184088243   Change is   -0.000224830609875
 Root     20 :     4.817580035094533   Change is   -0.000519805313636
 Root     21 :     4.853746888490302   Change is   -0.000031117152828
 Root     22 :     4.867987181700570   Change is   -0.000533989376273
 Root     23 :     4.897032808760468   Change is   -0.000118306076966
 Root     24 :     4.935195810839304   Change is   -0.000445312179485
 Iteration     5 Dimension   264 NMult   240 NNew     24
 CISAX will form     4 AO SS matrices at one time.
 NMat=     4 NSing=     4 JSym2X= 0.
 NMat=     4 NSing=     4 JSym2X= 0.
 NMat=     4 NSing=     4 JSym2X= 0.
 NMat=     4 NSing=     4 JSym2X= 0.
 NMat=     4 NSing=     4 JSym2X= 0.
 NMat=     4 NSing=     4 JSym2X= 0.
 Root      1 has converged.
 Root      2 has converged.
 Root      3 has converged.
 Root      4 has converged.
 Root      5 has converged.
 Root      6 has converged.
 Root      7 has converged.
 Root      8 has converged.
 Root      9 has converged.
 Root     10 has converged.
 Root     11 has converged.
 Root     12 has converged.
 Root     13 has converged.
 Root     14 has converged.
 Root     15 has converged.
 Root     16 has converged.
 Root     17 has converged.
 Root     18 has converged.
 Root     19 has converged.
 Root     20 has converged.
 Root     21 has converged.
 Root     22 has converged.
 Root     23 has converged.
[...]
    27  C   -0.000000   0.000000   0.000000  -0.000000   0.000000   0.000000
    28  H    0.000000   0.000000  -0.000000   0.000000  -0.000000  -0.000000
    29  C    0.000000  -0.000000  -0.000000  -0.000000   0.000000   0.000000
    30  H   -0.000000   0.000000  -0.000000  -0.000000  -0.000000   0.000000
    31  C   -0.000000  -0.000000  -0.000000   0.000000   0.000000   0.000000
    32  H    0.000000  -0.000000   0.000000  -0.000000  -0.000000   0.000000
    33  H    0.000000  -0.000000  -0.000000  -0.000000   0.000000   0.000000
    34  H    0.000000  -0.000000  -0.000000   0.000000  -0.000000  -0.000000
              19         20         21         22         23         24
     1  C    0.000000   0.000000  -0.000000  -0.000000  -0.000000   0.000000
     2  C   -0.000000   0.000000   0.000000  -0.000000  -0.000000   0.000000
     3  O    0.000000  -0.000000  -0.000000  -0.000000   0.000000  -0.000000
     4  O    0.000000  -0.000000   0.000000   0.000000  -0.000000  -0.000000
     5  C   -0.000000  -0.000000   0.000000   0.000000  -0.000000  -0.000000
     6  H    0.000000  -0.000000  -0.000000  -0.000000   0.000000   0.000000
     7  H    0.000000  -0.000000  -0.000000   0.000000   0.000000   0.000000
     8  H   -0.000000   0.000000  -0.000000  -0.000000   0.000000  -0.000000
     9  C    0.000000   0.000000  -0.000000  -0.000000  -0.000000  -0.000000
    10  H    0.000000   0.000000  -0.000000  -0.000000   0.000000  -0.000000
    11  H    0.000000  -0.000000   0.000000   0.000000   0.000000  -0.000000
    12  H   -0.000000   0.000000   0.000000   0.000000  -0.000000   0.000000
    13  C    0.000000  -0.000000  -0.000000  -0.000000  -0.000000   0.000000
    14  C    0.000000  -0.000000  -0.000000   0.000000   0.000000  -0.000000
    15  C    0.000000  -0.000000   0.000000  -0.000000   0.000000  -0.000000
    16  C   -0.000000   0.000000  -0.000000  -0.000000   0.000000  -0.000000
    17  H    0.000000   0.000000   0.000000   0.000000   0.000000  -0.000000
    18  C    0.000000   0.000000  -0.000000  -0.000000   0.000000   0.000000
    19  H   -0.000000   0.000000  -0.000000  -0.000000   0.000000  -0.000000
    20  C    0.000000   0.000001  -0.000000  -0.000000  -0.000000   0.000000
    21  H   -0.000000  -0.000000   0.000000  -0.000000   0.000000  -0.000000
    22  H   -0.000000  -0.000000  -0.000000   0.000000   0.000000   0.000000
    23  H    0.000000  -0.000000   0.000000   0.000000  -0.000000  -0.000000
    24  C   -0.000000   0.000000  -0.000000   0.000000  -0.000000   0.000001
    25  C   -0.000000  -0.000000  -0.000000   0.000000  -0.000000  -0.000000
    26  C    0.000000  -0.000000   0.000000   0.000000   0.000000  -0.000000
    27  C    0.000000   0.000000   0.000000   0.000000   0.000000  -0.000000
    28  H    0.000000  -0.000000  -0.000000  -0.000000   0.000000  -0.000000
    29  C   -0.000000  -0.000000  -0.000000  -0.000000  -0.000000  -0.000000
    30  H    0.000000  -0.000000  -0.000000   0.000000   0.000000  -0.000000
    31  C   -0.000000   0.000000  -0.000000  -0.000000   0.000000   0.000000
    32  H   -0.000000   0.000000   0.000000  -0.000000  -0.000000   0.000000
    33  H    0.000000   0.000000   0.000000  -0.000000   0.000000   0.000000
    34  H   -0.000000   0.000000  -0.000000   0.000000  -0.000000   0.000000
              25         26         27         28         29         30
     1  C   -0.000000  -0.000000   0.000000  -0.000000  -0.000000  -0.000000
     2  C    0.000000   0.000000  -0.000000   0.000000  -0.000000  -0.000000
     3  O    0.000000  -0.000000  -0.000000  -0.000000  -0.000000  -0.000000
     4  O   -0.000000   0.000000   0.000000   0.000000   0.000000   0.000000
     5  C    0.000000  -0.000000  -0.000000  -0.000000   0.000000   0.000000
     6  H   -0.000000   0.000000  -0.000000  -0.000000   0.000000  -0.000000
     7  H   -0.000000   0.000000   0.000000  -0.000000  -0.000000   0.000000
     8  H    0.000000   0.000000   0.000000   0.000000   0.000000  -0.000000
     9  C   -0.000000   0.000000  -0.000000  -0.000000  -0.000000   0.000000
    10  H   -0.000000  -0.000000   0.000000   0.000000   0.000000  -0.000000
    11  H   -0.000000  -0.000000   0.000000   0.000000   0.000000  -0.000000
    12  H    0.000000  -0.000000   0.000000   0.000000  -0.000000   0.000000
    13  C    0.000000   0.000000  -0.000000   0.000000   0.000000  -0.000000
    14  C    0.000000   0.000000   0.000000   0.000000  -0.000000   0.000000
    15  C   -0.000000   0.000000   0.000000  -0.000000  -0.000000  -0.000000
    16  C   -0.000000   0.000000  -0.000000   0.000000  -0.000000  -0.000000
    17  H    0.000000   0.000000   0.000000  -0.000000   0.000000  -0.000000
    18  C    0.000000  -0.000000   0.000000  -0.000000   0.000000   0.000000
    19  H   -0.000000   0.000000   0.000000   0.000000  -0.000000   0.000000
    20  C   -0.000000  -0.000000   0.000000  -0.000000  -0.000000  -0.000000
    21  H   -0.000000   0.000000   0.000000  -0.000000  -0.000000  -0.000000
    22  H    0.000000   0.000000   0.000000  -0.000000  -0.000000   0.000000
    23  H   -0.000000   0.000000   0.000000   0.000000  -0.000000   0.000000
    24  C   -0.000000  -0.000000  -0.000000  -0.000000  -0.000000  -0.000000
    25  C   -0.000001   0.000000   0.000000   0.000000   0.000000  -0.000000
    26  C    0.000000  -0.000001   0.000000  -0.000000   0.000000  -0.000000
    27  C    0.000000   0.000000   0.000001  -0.000000  -0.000000   0.000000
    28  H    0.000000  -0.000000  -0.000000   0.000000   0.000000  -0.000000
    29  C    0.000000   0.000000  -0.000000   0.000000   0.000001  -0.000000
    30  H   -0.000000  -0.000000   0.000000  -0.000000  -0.000000   0.000000
    31  C    0.000000   0.000000  -0.000000  -0.000000  -0.000000  -0.000000
    32  H    0.000000  -0.000000   0.000000  -0.000000   0.000000  -0.000000
    33  H   -0.000000   0.000000   0.000000  -0.000000   0.000000  -0.000000
    34  H   -0.000000  -0.000000  -0.000000  -0.000000  -0.000000  -0.000000
              31         32         33         34
     1  C    0.000000   0.000000   0.000000   0.000000
     2  C   -0.000000   0.000000   0.000000   0.000000
     3  O    0.000000  -0.000000  -0.000000   0.000000
     4  O    0.000000  -0.000000  -0.000000  -0.000000
     5  C   -0.000000  -0.000000  -0.000000   0.000000
     6  H    0.000000  -0.000000   0.000000   0.000000
     7  H    0.000000   0.000000  -0.000000  -0.000000
     8  H   -0.000000  -0.000000   0.000000   0.000000
     9  C    0.000000  -0.000000  -0.000000   0.000000
    10  H    0.000000  -0.000000   0.000000   0.000000
    11  H    0.000000   0.000000   0.000000  -0.000000
    12  H   -0.000000   0.000000   0.000000  -0.000000
    13  C   -0.000000   0.000000   0.000000   0.000000
    14  C   -0.000000  -0.000000  -0.000000  -0.000000
    15  C   -0.000000   0.000000  -0.000000  -0.000000
    16  C    0.000000  -0.000000  -0.000000   0.000000
    17  H    0.000000  -0.000000   0.000000  -0.000000
    18  C    0.000000   0.000000   0.000000  -0.000000
    19  H   -0.000000  -0.000000   0.000000  -0.000000
    20  C    0.000000   0.000000   0.000000   0.000000
    21  H   -0.000000   0.000000   0.000000  -0.000000
    22  H   -0.000000  -0.000000  -0.000000   0.000000
    23  H    0.000000  -0.000000   0.000000  -0.000000
    24  C    0.000000   0.000000   0.000000   0.000000
    25  C    0.000000   0.000000  -0.000000  -0.000000
    26  C    0.000000  -0.000000   0.000000  -0.000000
    27  C   -0.000000   0.000000   0.000000  -0.000000
    28  H   -0.000000  -0.000000  -0.000000  -0.000000
    29  C   -0.000000   0.000000   0.000000  -0.000000
    30  H   -0.000000  -0.000000  -0.000000  -0.000000
    31  C   -0.000001   0.000000   0.000000  -0.000000
    32  H    0.000000  -0.000000   0.000000  -0.000000
    33  H    0.000000   0.000000  -0.000000  -0.000000
    34  H   -0.000000  -0.000000  -0.000000   0.000000
 Mulliken charges and spin densities:
               1          2
     1  C    0.400018   0.000000
     2  C    0.405271  -0.000000
     3  O   -0.509845   0.000000
     4  O   -0.509418  -0.000000
     5  C   -0.399683  -0.000000
     6  H    0.143150   0.000000
     7  H    0.147028   0.000000
     8  H    0.130406   0.000000
     9  C   -0.403787   0.000000
    10  H    0.137753  -0.000000
    11  H    0.157144  -0.000000
    12  H    0.125612  -0.000000
    13  C    0.060145  -0.000001
    14  C   -0.107182   0.000001
    15  C   -0.116495   0.000001
    16  C   -0.099695  -0.000001
    17  H    0.109858  -0.000000
    18  C   -0.101209  -0.000001
    19  H    0.109429  -0.000000
    20  C   -0.086320   0.000001
    21  H    0.107949   0.000000
    22  H    0.108500   0.000000
    23  H    0.110238  -0.000000
    24  C    0.037688   0.000001
    25  C   -0.115352  -0.000001
    26  C   -0.118708  -0.000001
    27  C   -0.099895   0.000001
    28  H    0.111782   0.000000
    29  C   -0.088534   0.000001
    30  H    0.109590   0.000000
    31  C   -0.080582  -0.000001
    32  H    0.108246  -0.000000
    33  H    0.107471  -0.000000
    34  H    0.109424   0.000000
 Sum of Mulliken charges =  -0.00000  -0.00000
 Mulliken charges and spin densities with hydrogens summed into heavy atoms:
               1          2
     1  C    0.400018   0.000000
     2  C    0.405271  -0.000000
     3  O   -0.509845   0.000000
     4  O   -0.509418  -0.000000
     5  C    0.020902  -0.000000
     9  C    0.016723   0.000000
    13  C    0.060145  -0.000001
    14  C    0.002677   0.000001
    15  C   -0.007066   0.000001
    16  C    0.008254  -0.000001
    18  C    0.007292  -0.000001
    20  C    0.023918   0.000001
    24  C    0.037688   0.000001
    25  C   -0.003569  -0.000001
    26  C   -0.009119  -0.000001
    27  C    0.008352   0.000001
    29  C    0.018936   0.000001
    31  C    0.028842  -0.000001
 Electronic spatial extent (au):  <R**2>=           3925.4854
 Charge=             -0.0000 electrons
 Dipole moment (field-independent basis, Debye):
    X=              5.6807    Y=              3.5210    Z=             -0.4253  Tot=              6.6969
 Quadrupole moment (field-independent basis, Debye-Ang):
   XX=           -109.6885   YY=           -108.1917   ZZ=            -91.5532
   XY=              1.1767   XZ=              3.7099   YZ=              0.6194
 Traceless Quadrupole moment (field-independent basis, Debye-Ang):
   XX=             -6.5441   YY=             -5.0472   ZZ=             11.5913
   XY=              1.1767   XZ=              3.7099   YZ=              0.6194
 Octapole moment (field-independent basis, Debye-Ang**2):
  XXX=             65.0049  YYY=             16.6432  ZZZ=              1.0156  XYY=             10.6339
  XXY=             18.2717  XXZ=            -28.5262  XZZ=              0.6544  YZZ=             -4.1773
  YYZ=             14.9313  XYZ=              0.3211
 Hexadecapole moment (field-independent basis, Debye-Ang**3):
 XXXX=          -2810.5854 YYYY=          -1618.4892 ZZZZ=           -885.4428 XXXY=             64.8909
 XXXZ=             37.2511 YYYX=             39.5980 YYYZ=             11.5094 ZZZX=             -9.9828
 ZZZY=              9.5530 XXYY=           -723.6972 XXZZ=           -567.6194 YYZZ=           -386.8651
 XXYZ=             20.5097 YYXZ=            -10.8260 ZZXY=              2.5813
 N-N= 1.289275686472D+03 E-N=-4.367416164775D+03  KE= 7.625269594608D+02
 Leave Link  601 at Fri May 10 18:17:31 2019, MaxMem=   104857600 cpu:               2.7 elap:               0.1
 (Enter /opt/software/gaussian/g16.b01/l9999.exe)
 Electronic transition elements 
                 1             2             3             4             5 
      1  -0.769744D+03 -0.769744D+03 -0.769743D+03 -0.769743D+03 -0.769725D+03
      2   0.000000D+00  0.000000D+00  0.000000D+00  0.000000D+00 -0.295407D-01
      3   0.000000D+00  0.000000D+00  0.000000D+00  0.000000D+00 -0.142984D-01
      4   0.000000D+00  0.000000D+00  0.000000D+00  0.000000D+00  0.168486D-02
      5   0.000000D+00  0.000000D+00  0.000000D+00  0.000000D+00  0.418488D-02
      6   0.000000D+00  0.000000D+00  0.000000D+00  0.000000D+00  0.219231D-02
      7   0.000000D+00  0.000000D+00  0.000000D+00  0.000000D+00 -0.174442D-02
      8   0.000000D+00  0.000000D+00  0.000000D+00  0.000000D+00 -0.744609D+00
      9   0.000000D+00  0.000000D+00  0.000000D+00  0.000000D+00 -0.441147D+00
     10   0.000000D+00  0.000000D+00  0.000000D+00  0.000000D+00  0.217413D+00
     11   0.000000D+00  0.000000D+00  0.000000D+00  0.000000D+00 -0.289763D-01
     12   0.000000D+00  0.000000D+00  0.000000D+00  0.000000D+00  0.248570D-01
     13   0.000000D+00  0.000000D+00  0.000000D+00  0.000000D+00 -0.191589D-01
     14   0.000000D+00  0.000000D+00  0.000000D+00  0.000000D+00 -0.145794D-01
     15   0.000000D+00  0.000000D+00  0.000000D+00  0.000000D+00 -0.247857D-01
     16   0.000000D+00  0.000000D+00  0.000000D+00  0.000000D+00  0.375581D-01
                 6             7             8             9            10 
      1  -0.769725D+03 -0.769722D+03 -0.769720D+03 -0.769703D+03 -0.769702D+03
      2   0.176681D-01  0.000000D+00  0.000000D+00  0.000000D+00  0.000000D+00
      3   0.163996D-01  0.000000D+00  0.000000D+00  0.000000D+00  0.000000D+00
      4  -0.225930D-01  0.000000D+00  0.000000D+00  0.000000D+00  0.000000D+00
      5  -0.317284D-02  0.000000D+00  0.000000D+00  0.000000D+00  0.000000D+00
      6  -0.483956D-03  0.000000D+00  0.000000D+00  0.000000D+00  0.000000D+00
      7   0.339085D-02  0.000000D+00  0.000000D+00  0.000000D+00  0.000000D+00
      8   0.152120D+00  0.000000D+00  0.000000D+00  0.000000D+00  0.000000D+00
      9   0.243266D+00  0.000000D+00  0.000000D+00  0.000000D+00  0.000000D+00
     10   0.743905D+00  0.000000D+00  0.000000D+00  0.000000D+00  0.000000D+00
     11  -0.538165D-01  0.000000D+00  0.000000D+00  0.000000D+00  0.000000D+00
     12   0.485666D-01  0.000000D+00  0.000000D+00  0.000000D+00  0.000000D+00
     13   0.556318D-02  0.000000D+00  0.000000D+00  0.000000D+00  0.000000D+00
     14   0.203363D-01  0.000000D+00  0.000000D+00  0.000000D+00  0.000000D+00
     15   0.343875D-02  0.000000D+00  0.000000D+00  0.000000D+00  0.000000D+00
     16  -0.166449D-01  0.000000D+00  0.000000D+00  0.000000D+00  0.000000D+00
                11            12            13            14            15 
      1  -0.769701D+03 -0.769696D+03 -0.769696D+03 -0.769695D+03 -0.769695D+03
      2   0.330330D-01  0.532925D-05  0.155279D+00  0.217816D+00  0.000000D+00
      3  -0.142612D+00 -0.541709D-05 -0.155365D+00 -0.206015D+00  0.000000D+00
      4  -0.152629D+00 -0.578844D-05 -0.173329D+00 -0.307993D+00  0.000000D+00
      5  -0.607432D-02  0.000000D+00 -0.246615D-01 -0.357122D-01  0.000000D+00
      6   0.259018D-01  0.000000D+00  0.240579D-01  0.326476D-01  0.000000D+00
      7   0.275742D-01  0.000000D+00  0.299638D-01  0.567051D-01  0.000000D+00
      8  -0.253259D+00  0.102647D-04  0.298254D+00  0.275420D+00  0.000000D+00
      9  -0.545471D+00 -0.471476D-05 -0.139332D+00 -0.228890D+00  0.000000D+00
     10  -0.308013D+00 -0.421649D-05 -0.114663D+00  0.185830D+00  0.194253D-05
     11  -0.332608D+00 -0.618874D-05 -0.171673D+00 -0.643866D-01  0.000000D+00
     12   0.118167D+00  0.535539D-05  0.152659D+00  0.945586D-01  0.000000D+00
     13   0.210254D-01  0.000000D+00 -0.442072D-03 -0.329789D-01  0.000000D+00
     14   0.156974D+00  0.000000D+00 -0.187038D-01 -0.208897D-01  0.000000D+00
     15   0.264318D+00  0.000000D+00  0.161265D-01  0.395478D-01  0.000000D+00
     16  -0.197748D+00  0.253540D-05  0.737155D-01  0.105948D+00  0.000000D+00
                16            17            18            19            20 
      1  -0.769694D+03 -0.769693D+03 -0.769693D+03 -0.769690D+03 -0.769688D+03
      2   0.814741D-01 -0.532994D-05  0.278774D+00  0.000000D+00  0.320151D+00
      3  -0.420798D-01  0.000000D+00  0.191256D-01  0.000000D+00  0.492359D-01
      4  -0.639968D-01  0.377428D-05 -0.155203D+00  0.000000D+00 -0.130345D+00
      5  -0.108928D-01  0.000000D+00 -0.448470D-01  0.000000D+00 -0.567012D-01
      6   0.652953D-02  0.000000D+00 -0.374868D-02  0.000000D+00 -0.730377D-02
      7   0.894800D-02  0.000000D+00  0.287838D-01  0.000000D+00  0.246622D-01
      8  -0.285079D-01 -0.179447D-05  0.468899D-01  0.000000D+00  0.628810D-01
      9  -0.887431D-01  0.352072D-05 -0.158180D+00  0.000000D+00 -0.669089D-01
     10   0.262223D+00 -0.989741D-05  0.529341D+00  0.102986D-05 -0.413656D+00
     11   0.755452D-01 -0.758788D-05  0.426967D+00  0.139839D-05 -0.574692D+00
     12  -0.646805D-01  0.466501D-05 -0.281420D+00  0.000000D+00  0.372771D+00
     13   0.135988D-01  0.000000D+00 -0.651433D-02  0.000000D+00  0.130692D-01
     14  -0.117617D-03  0.000000D+00  0.295979D-02  0.000000D+00 -0.143304D-01
     15   0.631487D-01 -0.178416D-05  0.983075D-01  0.000000D+00 -0.629282D-01
     16   0.538984D-03  0.000000D+00  0.175891D-01  0.000000D+00  0.311502D-01
                21            22            23            24 
      1  -0.769687D+03 -0.769686D+03 -0.769685D+03 -0.769684D+03
      2   0.000000D+00 -0.586195D+00  0.587780D-05 -0.224351D-01
      3   0.000000D+00 -0.499570D-01  0.000000D+00 -0.139481D+00
      4   0.000000D+00 -0.286847D+00  0.185656D-05  0.411077D-01
      5   0.000000D+00  0.963783D-01  0.000000D+00  0.341174D-02
      6   0.000000D+00  0.141921D-01  0.000000D+00  0.248940D-01
      7   0.000000D+00  0.533708D-01  0.000000D+00 -0.648088D-02
      8   0.000000D+00  0.322074D+00 -0.221810D-05  0.414500D-01
      9   0.000000D+00 -0.174265D+00  0.130231D-05  0.835585D-01
     10   0.346885D-05 -0.190497D+00  0.000000D+00 -0.590650D+00
     11   0.382422D-05 -0.650488D-01 -0.127054D-05 -0.501834D+00
     12  -0.273285D-05  0.152813D+00  0.000000D+00  0.378722D+00
     13   0.000000D+00 -0.280596D-01  0.000000D+00  0.412687D-03
     14   0.000000D+00 -0.408861D-01  0.000000D+00 -0.463717D-01
     15   0.000000D+00 -0.680815D-01  0.000000D+00 -0.151625D+00
     16   0.000000D+00  0.105027D+00  0.000000D+00  0.867948D-01
 1\1\GINC-GRA788\SP\UB3LYP TD-FC\6-31G(d,p)\C16H16O2\RZK\10-May-2019\0\
 \#p td=(nstates=24) ub3lyp/6-31g(d,p) scrf=(iefpcm,solvent=acetonitril
 e) guess=(core,mix) empiricaldispersion=gd3\\Title Card Required\\0,1\
 C,0,-0.060921,-1.873512,0.645917\C,0,-2.709361,-0.0104,-0.416587\O,0,-
 3.464273,-0.243331,0.522822\O,0,-0.686544,-2.516338,-0.193889\C,0,-0.5
 90049,-1.745309,2.058644\H,0,0.129016,-2.144621,2.781296\H,0,-0.75885,
 -0.693322,2.306807\H,0,-1.531584,-2.288709,2.134602\C,0,-2.887627,-0.7
 13773,-1.7452\H,0,-2.981057,0.005389,-2.564978\H,0,-2.015617,-1.344402
 ,-1.944055\H,0,-3.780593,-1.337803,-1.699308\C,0,1.223811,-1.199566,0.
 287918\C,0,1.725636,-1.36192,-1.014173\C,0,1.926867,-0.394857,1.196524
 \C,0,2.903939,-0.732737,-1.400711\H,0,1.169876,-1.982506,-1.708641\C,0
 ,3.106927,0.239095,0.807591\H,0,1.553948,-0.247629,2.203638\C,0,3.5966
 26,0.071845,-0.488962\H,0,3.28387,-0.863037,-2.409441\H,0,3.640448,0.8
 66394,1.514832\H,0,4.514708,0.56743,-0.790326\C,0,-1.582892,0.963098,-
 0.26213\C,0,-1.449064,1.645456,0.959079\C,0,-0.644138,1.194871,-1.2792
 14\C,0,-0.396803,2.532306,1.16213\H,0,-2.18149,1.459884,1.737393\C,0,0
 .410839,2.083354,-1.07544\H,0,-0.718054,0.670298,-2.224956\C,0,0.53807
 9,2.749799,0.144047\H,0,-0.299112,3.05104,2.110882\H,0,1.143275,2.2395
 46,-1.860447\H,0,1.366539,3.432904,0.304654\\Version=ES64L-G16RevB.01\
 State=1-A\HF=-769.8652931\S2=0.\S2-1=0.\S2A=0.\RMSD=3.152e-09\PG=C01 [
 X(C16H16O2)]\\@


 "TIGER, TIGER BURNING BRIGHT
 IN THE FOREST OF THE NIGHT.
 WHAT IMMORTAL HAND OR EYE
 CAN FRAME THY FEARFUL SYMMETRYE?"
                     - WILLIAM BLAKE
 Job cpu time:       0 days  8 hours 33 minutes 11.5 seconds.
 Elapsed time:       0 days  0 hours 16 minutes  4.4 seconds.
 File lengths (MBytes):  RWF=   1632 Int=      0 D2E=      0 Chk=    173 Scr=      1
 Normal termination of Gaussian 16 at Fri May 10 18:17:31 2019.
