 Entering Gaussian System, Link 0=g16
 Initial command:
 /opt/software/gaussian/g16.b01/l1.exe "/localscratch/rzk.15075010.0/Gau-25137.inp" -scrdir="/localscratch/rzk.15075010.0/"
 Entering Link 1 = /opt/software/gaussian/g16.b01/l1.exe PID=     25138.
  
 Copyright (c) 1988-2017, Gaussian, Inc.  All Rights Reserved.
  
 This is part of the Gaussian(R) 16 program.  It is based on
 the Gaussian(R) 09 system (copyright 2009, Gaussian, Inc.),
 the Gaussian(R) 03 system (copyright 2003, Gaussian, Inc.),
 the Gaussian(R) 98 system (copyright 1998, Gaussian, Inc.),
 the Gaussian(R) 94 system (copyright 1995, Gaussian, Inc.),
 the Gaussian 92(TM) system (copyright 1992, Gaussian, Inc.),
 the Gaussian 90(TM) system (copyright 1990, Gaussian, Inc.),
 the Gaussian 88(TM) system (copyright 1988, Gaussian, Inc.),
 the Gaussian 86(TM) system (copyright 1986, Carnegie Mellon
 University), and the Gaussian 82(TM) system (copyright 1983,
 Carnegie Mellon University). Gaussian is a federally registered
 trademark of Gaussian, Inc.
  
 This software contains proprietary and confidential information,
 including trade secrets, belonging to Gaussian, Inc.
  
 This software is provided under written license and may be
 used, copied, transmitted, or stored only in accord with that
 written license.
  
 The following legend is applicable only to US Government
 contracts under FAR:
  
                    RESTRICTED RIGHTS LEGEND
  
 Use, reproduction and disclosure by the US Government is
 subject to restrictions as set forth in subparagraphs (a)
 and (c) of the Commercial Computer Software - Restricted
 Rights clause in FAR 52.227-19.
  
 Gaussian, Inc.
 340 Quinnipiac St., Bldg. 40, Wallingford CT 06492
  
  
 ---------------------------------------------------------------
 Warning -- This program may not be used in any manner that
 competes with the business of Gaussian, Inc. or will provide
 assistance to any competitor of Gaussian, Inc.  The licensee
 of this program is prohibited from giving any competitor of
 Gaussian, Inc. access to this program.  By using this program,
 the user acknowledges that Gaussian, Inc. is engaged in the
 business of creating and licensing software in the field of
 computational chemistry and represents and warrants to the
 licensee that it is not a competitor of Gaussian, Inc. and that
 it will not use this program in any manner prohibited above.
 ---------------------------------------------------------------
  

 Cite this work as:
 Gaussian 16, Revision B.01,
 M. J. Frisch, G. W. Trucks, H. B. Schlegel, G. E. Scuseria, 
 M. A. Robb, J. R. Cheeseman, G. Scalmani, V. Barone, 
 G. A. Petersson, H. Nakatsuji, X. Li, M. Caricato, A. V. Marenich, 
 J. Bloino, B. G. Janesko, R. Gomperts, B. Mennucci, H. P. Hratchian, 
 J. V. Ortiz, A. F. Izmaylov, J. L. Sonnenberg, D. Williams-Young, 
 F. Ding, F. Lipparini, F. Egidi, J. Goings, B. Peng, A. Petrone, 
 T. Henderson, D. Ranasinghe, V. G. Zakrzewski, J. Gao, N. Rega, 
 G. Zheng, W. Liang, M. Hada, M. Ehara, K. Toyota, R. Fukuda, 
 J. Hasegawa, M. Ishida, T. Nakajima, Y. Honda, O. Kitao, H. Nakai, 
 T. Vreven, K. Throssell, J. A. Montgomery, Jr., J. E. Peralta, 
 F. Ogliaro, M. J. Bearpark, J. J. Heyd, E. N. Brothers, K. N. Kudin, 
 V. N. Staroverov, T. A. Keith, R. Kobayashi, J. Normand, 
 K. Raghavachari, A. P. Rendell, J. C. Burant, S. S. Iyengar, 
 J. Tomasi, M. Cossi, J. M. Millam, M. Klene, C. Adamo, R. Cammi, 
 J. W. Ochterski, R. L. Martin, K. Morokuma, O. Farkas, 
 J. B. Foresman, and D. J. Fox, Gaussian, Inc., Wallingford CT, 2016.
 
 ******************************************
 Gaussian 16:  ES64L-G16RevB.01 20-Dec-2017
                22-May-2019 
 ******************************************
 %NProcShared=32
 Will use up to   32 processors via shared memory.
 %chk=AABH.chk
 ----------------------------------------------------------------------
 #p opt=modredundant ub3lyp/6-31g(d,p) scrf=(iefpcm,solvent=acetonitril
 e) guess=(mix,always) empiricaldispersion=gd3
 ----------------------------------------------------------------------
 1/18=120,19=15,26=3,38=1/1,3;
 2/9=110,12=2,17=6,18=5,40=1/2;
 3/5=1,6=6,7=101,11=2,25=1,30=1,70=2201,71=1,72=2,74=-5,116=2,124=31/1,2,3;
 4/13=-1/1;
 5/5=2,38=5,53=2/2;
 6/7=2,8=2,9=2,10=2,28=1/1;
 7//1,2,3,16;
 1/18=20,19=15,26=3/3(2);
 2/9=110/2;
 99//99;
 2/9=110/2;
 3/5=1,6=6,7=101,11=2,25=1,30=1,70=2205,71=1,72=2,74=-5,116=2,124=31/1,2,3;
 4/13=-1/1;
 5/5=2,38=5,53=2/2;
 7//1,2,3,16;
 1/18=20,19=15,26=3/3(-5);
 2/9=110/2;
 6/7=2,8=2,9=2,10=2,19=2,28=1/1;
 99/9=1/99;
 Leave Link    1 at Wed May 22 18:23:41 2019, MaxMem=           0 cpu:               2.4 elap:               0.1
 (Enter /opt/software/gaussian/g16.b01/l101.exe)
 -------------------
 Title Card Required
 -------------------
 Symbolic Z-matrix:
 Charge =  0 Multiplicity = 1
 C                     0.35411  -1.47935  -0.30052 
 H                     4.61796  -1.28288   1.29795 
 C                     1.78982   1.48591   0.31363 
 O                     2.51672   1.44693  -0.6787 
 O                     1.08713  -1.59188   0.68293 
 N                     4.64178  -0.83237  -0.64051 
 H                     4.54286  -1.38338  -1.48999 
 N                     4.21667  -1.68404   0.45356 
 H                     3.20105  -1.64081   0.5677 
 H                     4.01528  -0.02954  -0.73576 
 C                     0.94431  -1.34417  -1.68607 
 H                     0.5972   -2.15579  -2.33348 
 H                     0.6294   -0.40014  -2.1399 
 H                     2.03175  -1.35933  -1.62102 
 C                     2.34491   1.20315   1.69128 
 H                     2.13299   2.02995   2.37626 
 H                     1.8784    0.30023   2.09565 
 H                     3.42155   1.04879   1.61975 
 C                    -1.12801  -1.46678  -0.13368 
 C                    -1.6614   -1.66532   1.15112 
 C                    -2.0001   -1.24364  -1.21009 
 C                    -3.03655  -1.64467   1.35542 
 H                    -0.97739  -1.82966   1.97635 
 C                    -3.37906  -1.21729  -1.0034 
 H                    -1.61095  -1.07923  -2.20835 
 C                    -3.89865  -1.41842   0.27678 
 H                    -3.43993  -1.79985   2.35133 
 H                    -4.04633  -1.03695  -1.84029 
 H                    -4.97271  -1.39758   0.43547 
 C                     0.33599   1.78976   0.16353 
 C                    -0.15176   2.12609  -1.11131 
 C                    -0.56194   1.70332   1.2385 
 C                    -1.50792   2.3606   -1.30884 
 H                     0.55163   2.19247  -1.93419 
 C                    -1.92238   1.93297   1.03812 
 H                    -0.21017   1.43469   2.22809 
 C                    -2.39719   2.25787  -0.23353 
 H                    -1.87665   2.61485  -2.29769 
 H                    -2.61266   1.84278   1.87034 
 H                    -3.45841   2.42554  -0.38912 
 
 Add virtual bond connecting atoms H10        and O4         Dist= 3.98D+00.
 Add virtual bond connecting atoms H9         and O5         Dist= 4.00D+00.
 The following ModRedundant input section has been read:
 B       1       3 S   8 -0.220                                                
 B       4      10 S   5 -0.220                                                
 B       5       9 S   5 -0.220                                                
 
 ITRead=  0  0  0  0  0  0  0  0  0  0  0  0  0  0  0  0  0  0  0  0
 ITRead=  0  0  0  0  0  0  0  0  0  0  0  0  0  0  0  0  0  0  0  0
 MicOpt= -1 -1 -1 -1 -1 -1 -1 -1 -1 -1 -1 -1 -1 -1 -1 -1 -1 -1 -1 -1
 MicOpt= -1 -1 -1 -1 -1 -1 -1 -1 -1 -1 -1 -1 -1 -1 -1 -1 -1 -1 -1 -1
 NAtoms=     40 NQM=       40 NQMF=       0 NMMI=      0 NMMIF=      0
                NMic=       0 NMicF=      0.
                    Isotopes and Nuclear Properties:
 (Nuclear quadrupole moments (NQMom) in fm**2, nuclear magnetic moments (NMagM)
  in nuclear magnetons)

  Atom         1           2           3           4           5           6           7           8           9          10
 IAtWgt=          12           1          12          16          16          14           1          14           1           1
 AtmWgt=  12.0000000   1.0078250  12.0000000  15.9949146  15.9949146  14.0030740   1.0078250  14.0030740   1.0078250   1.0078250
 NucSpn=           0           1           0           0           0           2           1           2           1           1
 AtZEff=  -0.0000000  -0.0000000  -0.0000000  -0.0000000  -0.0000000  -0.0000000  -0.0000000  -0.0000000  -0.0000000  -0.0000000
 NQMom=    0.0000000   0.0000000   0.0000000   0.0000000   0.0000000   2.0440000   0.0000000   2.0440000   0.0000000   0.0000000
 NMagM=    0.0000000   2.7928460   0.0000000   0.0000000   0.0000000   0.4037610   2.7928460   0.4037610   2.7928460   2.7928460
 AtZNuc=   6.0000000   1.0000000   6.0000000   8.0000000   8.0000000   7.0000000   1.0000000   7.0000000   1.0000000   1.0000000

  Atom        11          12          13          14          15          16          17          18          19          20
 IAtWgt=          12           1           1           1          12           1           1           1          12          12
 AtmWgt=  12.0000000   1.0078250   1.0078250   1.0078250  12.0000000   1.0078250   1.0078250   1.0078250  12.0000000  12.0000000
 NucSpn=           0           1           1           1           0           1           1           1           0           0
 AtZEff=  -0.0000000  -0.0000000  -0.0000000  -0.0000000  -0.0000000  -0.0000000  -0.0000000  -0.0000000  -0.0000000  -0.0000000
 NQMom=    0.0000000   0.0000000   0.0000000   0.0000000   0.0000000   0.0000000   0.0000000   0.0000000   0.0000000   0.0000000
 NMagM=    0.0000000   2.7928460   2.7928460   2.7928460   0.0000000   2.7928460   2.7928460   2.7928460   0.0000000   0.0000000
 AtZNuc=   6.0000000   1.0000000   1.0000000   1.0000000   6.0000000   1.0000000   1.0000000   1.0000000   6.0000000   6.0000000

  Atom        21          22          23          24          25          26          27          28          29          30
 IAtWgt=          12          12           1          12           1          12           1           1           1          12
 AtmWgt=  12.0000000  12.0000000   1.0078250  12.0000000   1.0078250  12.0000000   1.0078250   1.0078250   1.0078250  12.0000000
 NucSpn=           0           0           1           0           1           0           1           1           1           0
 AtZEff=  -0.0000000  -0.0000000  -0.0000000  -0.0000000  -0.0000000  -0.0000000  -0.0000000  -0.0000000  -0.0000000  -0.0000000
 NQMom=    0.0000000   0.0000000   0.0000000   0.0000000   0.0000000   0.0000000   0.0000000   0.0000000   0.0000000   0.0000000
 NMagM=    0.0000000   0.0000000   2.7928460   0.0000000   2.7928460   0.0000000   2.7928460   2.7928460   2.7928460   0.0000000
 AtZNuc=   6.0000000   6.0000000   1.0000000   6.0000000   1.0000000   6.0000000   1.0000000   1.0000000   1.0000000   6.0000000

  Atom        31          32          33          34          35          36          37          38          39          40
 IAtWgt=          12          12          12           1          12           1          12           1           1           1
 AtmWgt=  12.0000000  12.0000000  12.0000000   1.0078250  12.0000000   1.0078250  12.0000000   1.0078250   1.0078250   1.0078250
 NucSpn=           0           0           0           1           0           1           0           1           1           1
 AtZEff=  -0.0000000  -0.0000000  -0.0000000  -0.0000000  -0.0000000  -0.0000000  -0.0000000  -0.0000000  -0.0000000  -0.0000000
 NQMom=    0.0000000   0.0000000   0.0000000   0.0000000   0.0000000   0.0000000   0.0000000   0.0000000   0.0000000   0.0000000
 NMagM=    0.0000000   0.0000000   0.0000000   2.7928460   0.0000000   2.7928460   0.0000000   2.7928460   2.7928460   2.7928460
 AtZNuc=   6.0000000   6.0000000   6.0000000   1.0000000   6.0000000   1.0000000   6.0000000   1.0000000   1.0000000   1.0000000
 Leave Link  101 at Wed May 22 18:23:42 2019, MaxMem=   104857600 cpu:               4.3 elap:               0.2
 (Enter /opt/software/gaussian/g16.b01/l103.exe)

 GradGradGradGradGradGradGradGradGradGradGradGradGradGradGradGradGradGrad
 Berny optimization.
 Initialization pass.
                           ----------------------------
                           !    Initial Parameters    !
                           ! (Angstroms and Degrees)  !
 --------------------------                            --------------------------
 ! Name  Definition              Value          Derivative Info.                !
 --------------------------------------------------------------------------------
 ! R1    R(1,3)                  3.3513         Scan                            !
 ! R2    R(1,5)                  1.2317         estimate D2E/DX2                !
 ! R3    R(1,11)                 1.5121         estimate D2E/DX2                !
 ! R4    R(1,19)                 1.4915         estimate D2E/DX2                !
 ! R5    R(2,8)                  1.0173         estimate D2E/DX2                !
 ! R6    R(3,4)                  1.2307         estimate D2E/DX2                !
 ! R7    R(3,15)                 1.5119         estimate D2E/DX2                !
 ! R8    R(3,30)                 1.4928         estimate D2E/DX2                !
 ! R9    R(4,10)                 2.1045         Scan                            !
 ! R10   R(5,9)                  2.1176         Scan                            !
 ! R11   R(6,7)                  1.0174         estimate D2E/DX2                !
 ! R12   R(6,8)                  1.4502         estimate D2E/DX2                !
 ! R13   R(6,10)                 1.0228         estimate D2E/DX2                !
 ! R14   R(8,9)                  1.0229         estimate D2E/DX2                !
 ! R15   R(11,12)                1.0947         estimate D2E/DX2                !
 ! R16   R(11,13)                1.0938         estimate D2E/DX2                !
 ! R17   R(11,14)                1.0895         estimate D2E/DX2                !
 ! R18   R(15,16)                1.0944         estimate D2E/DX2                !
 ! R19   R(15,17)                1.0938         estimate D2E/DX2                !
 ! R20   R(15,18)                1.09           estimate D2E/DX2                !
 ! R21   R(19,20)                1.4052         estimate D2E/DX2                !
 ! R22   R(19,21)                1.4032         estimate D2E/DX2                !
 ! R23   R(20,22)                1.3904         estimate D2E/DX2                !
 ! R24   R(20,23)                1.0844         estimate D2E/DX2                !
 ! R25   R(21,24)                1.3946         estimate D2E/DX2                !
 ! R26   R(21,25)                1.084          estimate D2E/DX2                !
 ! R27   R(22,26)                1.3992         estimate D2E/DX2                !
 ! R28   R(22,27)                1.0856         estimate D2E/DX2                !
 ! R29   R(24,26)                1.3962         estimate D2E/DX2                !
 ! R30   R(24,28)                1.0854         estimate D2E/DX2                !
 ! R31   R(26,29)                1.0859         estimate D2E/DX2                !
 ! R32   R(30,31)                1.4058         estimate D2E/DX2                !
 ! R33   R(30,32)                1.4033         estimate D2E/DX2                !
 ! R34   R(31,33)                1.3904         estimate D2E/DX2                !
 ! R35   R(31,34)                1.0846         estimate D2E/DX2                !
 ! R36   R(32,35)                1.3942         estimate D2E/DX2                !
 ! R37   R(32,36)                1.0841         estimate D2E/DX2                !
 ! R38   R(33,37)                1.3992         estimate D2E/DX2                !
 ! R39   R(33,38)                1.0856         estimate D2E/DX2                !
 ! R40   R(35,37)                1.3957         estimate D2E/DX2                !
 ! R41   R(35,39)                1.085          estimate D2E/DX2                !
 ! R42   R(37,40)                1.0856         estimate D2E/DX2                !
 ! A1    A(5,1,11)             120.498          estimate D2E/DX2                !
 ! A2    A(5,1,19)             120.1868         estimate D2E/DX2                !
 ! A3    A(11,1,19)            119.3141         estimate D2E/DX2                !
 ! A4    A(4,3,15)             120.7922         estimate D2E/DX2                !
 ! A5    A(4,3,30)             120.0387         estimate D2E/DX2                !
 ! A6    A(15,3,30)            119.1591         estimate D2E/DX2                !
 ! A7    A(3,4,10)             117.6885         estimate D2E/DX2                !
 ! A8    A(1,5,9)              123.5548         estimate D2E/DX2                !
 ! A9    A(7,6,8)              106.4608         estimate D2E/DX2                !
 ! A10   A(7,6,10)             106.7262         estimate D2E/DX2                !
 ! A11   A(8,6,10)             110.5902         estimate D2E/DX2                !
 ! A12   A(2,8,6)              106.1989         estimate D2E/DX2                !
 ! A13   A(2,8,9)              106.4003         estimate D2E/DX2                !
 ! A14   A(6,8,9)              110.5123         estimate D2E/DX2                !
 ! A15   A(1,11,12)            110.6027         estimate D2E/DX2                !
 ! A16   A(1,11,13)            110.1808         estimate D2E/DX2                !
 ! A17   A(1,11,14)            109.4895         estimate D2E/DX2                !
 ! A18   A(12,11,13)           107.6522         estimate D2E/DX2                !
 ! A19   A(12,11,14)           109.9672         estimate D2E/DX2                !
 ! A20   A(13,11,14)           108.9138         estimate D2E/DX2                !
 ! A21   A(3,15,16)            110.9726         estimate D2E/DX2                !
 ! A22   A(3,15,17)            109.551          estimate D2E/DX2                !
 ! A23   A(3,15,18)            109.2275         estimate D2E/DX2                !
 ! A24   A(16,15,17)           108.0392         estimate D2E/DX2                !
 ! A25   A(16,15,18)           109.8364         estimate D2E/DX2                !
 ! A26   A(17,15,18)           109.1857         estimate D2E/DX2                !
 ! A27   A(1,19,20)            118.5715         estimate D2E/DX2                !
 ! A28   A(1,19,21)            122.216          estimate D2E/DX2                !
 ! A29   A(20,19,21)           119.205          estimate D2E/DX2                !
 ! A30   A(19,20,22)           120.5079         estimate D2E/DX2                !
 ! A31   A(19,20,23)           118.5411         estimate D2E/DX2                !
 ! A32   A(22,20,23)           120.9504         estimate D2E/DX2                !
 ! A33   A(19,21,24)           120.2539         estimate D2E/DX2                !
 ! A34   A(19,21,25)           120.4942         estimate D2E/DX2                !
 ! A35   A(24,21,25)           119.2486         estimate D2E/DX2                !
 ! A36   A(20,22,26)           119.9007         estimate D2E/DX2                !
 ! A37   A(20,22,27)           120.0099         estimate D2E/DX2                !
 ! A38   A(26,22,27)           120.0889         estimate D2E/DX2                !
 ! A39   A(21,24,26)           120.0764         estimate D2E/DX2                !
 ! A40   A(21,24,28)           119.7832         estimate D2E/DX2                !
 ! A41   A(26,24,28)           120.1401         estimate D2E/DX2                !
 ! A42   A(22,26,24)           120.0552         estimate D2E/DX2                !
 ! A43   A(22,26,29)           119.9896         estimate D2E/DX2                !
 ! A44   A(24,26,29)           119.9552         estimate D2E/DX2                !
 ! A45   A(3,30,31)            118.5409         estimate D2E/DX2                !
 ! A46   A(3,30,32)            122.2483         estimate D2E/DX2                !
 ! A47   A(31,30,32)           119.1694         estimate D2E/DX2                !
 ! A48   A(30,31,33)           120.5042         estimate D2E/DX2                !
 ! A49   A(30,31,34)           118.5326         estimate D2E/DX2                !
 ! A50   A(33,31,34)           120.9623         estimate D2E/DX2                !
 ! A51   A(30,32,35)           120.2742         estimate D2E/DX2                !
 ! A52   A(30,32,36)           120.4568         estimate D2E/DX2                !
 ! A53   A(35,32,36)           119.2533         estimate D2E/DX2                !
 ! A54   A(31,33,37)           119.8919         estimate D2E/DX2                !
 ! A55   A(31,33,38)           120.0141         estimate D2E/DX2                !
 ! A56   A(37,33,38)           120.0921         estimate D2E/DX2                !
 ! A57   A(32,35,37)           120.0826         estimate D2E/DX2                !
 ! A58   A(32,35,39)           119.7941         estimate D2E/DX2                !
 ! A59   A(37,35,39)           120.116          estimate D2E/DX2                !
 ! A60   A(33,37,35)           120.0722         estimate D2E/DX2                !
 ! A61   A(33,37,40)           119.9877         estimate D2E/DX2                !
 ! A62   A(35,37,40)           119.9393         estimate D2E/DX2                !
 ! A63   L(5,9,8,4,-1)         179.7287         estimate D2E/DX2                !
 ! A64   L(4,10,6,5,-1)        170.3862         estimate D2E/DX2                !
 ! A65   L(5,9,8,4,-2)         183.5293         estimate D2E/DX2                !
 ! A66   L(4,10,6,5,-2)        183.3371         estimate D2E/DX2                !
 ! D1    D(11,1,5,9)            -0.9824         estimate D2E/DX2                !
 ! D2    D(19,1,5,9)           179.3942         estimate D2E/DX2                !
 ! D3    D(5,1,11,12)          120.9319         estimate D2E/DX2                !
 ! D4    D(5,1,11,13)         -120.1657         estimate D2E/DX2                !
 ! D5    D(5,1,11,14)           -0.4025         estimate D2E/DX2                !
 ! D6    D(19,1,11,12)         -59.4415         estimate D2E/DX2                !
 ! D7    D(19,1,11,13)          59.4609         estimate D2E/DX2                !
 ! D8    D(19,1,11,14)         179.224          estimate D2E/DX2                !
 ! D9    D(5,1,19,20)           -3.7396         estimate D2E/DX2                !
 ! D10   D(5,1,19,21)          175.2609         estimate D2E/DX2                !
 ! D11   D(11,1,19,20)         176.6326         estimate D2E/DX2                !
 ! D12   D(11,1,19,21)          -4.3669         estimate D2E/DX2                !
 ! D13   D(15,3,4,10)           37.2112         estimate D2E/DX2                !
 ! D14   D(30,3,4,10)         -141.6251         estimate D2E/DX2                !
 ! D15   D(4,3,15,16)          124.9707         estimate D2E/DX2                !
 ! D16   D(4,3,15,17)         -115.8167         estimate D2E/DX2                !
 ! D17   D(4,3,15,18)            3.7342         estimate D2E/DX2                !
 ! D18   D(30,3,15,16)         -56.1829         estimate D2E/DX2                !
 ! D19   D(30,3,15,17)          63.0297         estimate D2E/DX2                !
 ! D20   D(30,3,15,18)        -177.4194         estimate D2E/DX2                !
 ! D21   D(4,3,30,31)           -4.7509         estimate D2E/DX2                !
 ! D22   D(4,3,30,32)          172.8908         estimate D2E/DX2                !
 ! D23   D(15,3,30,31)         176.3938         estimate D2E/DX2                !
 ! D24   D(15,3,30,32)          -5.9645         estimate D2E/DX2                !
 ! D25   D(3,4,6,7)            125.4725         estimate D2E/DX2                !
 ! D26   D(3,4,6,8)             12.4605         estimate D2E/DX2                !
 ! D27   D(1,5,8,2)            149.6097         estimate D2E/DX2                !
 ! D28   D(1,5,8,6)             34.1048         estimate D2E/DX2                !
 ! D29   D(7,6,8,2)            160.0956         estimate D2E/DX2                !
 ! D30   D(7,6,8,9)            -84.905          estimate D2E/DX2                !
 ! D31   D(10,6,8,2)           -84.3367         estimate D2E/DX2                !
 ! D32   D(10,6,8,9)            30.6628         estimate D2E/DX2                !
 ! D33   D(1,19,20,22)         179.1891         estimate D2E/DX2                !
 ! D34   D(1,19,20,23)          -0.5315         estimate D2E/DX2                !
 ! D35   D(21,19,20,22)          0.1579         estimate D2E/DX2                !
 ! D36   D(21,19,20,23)       -179.5628         estimate D2E/DX2                !
 ! D37   D(1,19,21,24)        -178.8725         estimate D2E/DX2                !
 ! D38   D(1,19,21,25)           0.4585         estimate D2E/DX2                !
 ! D39   D(20,19,21,24)          0.122          estimate D2E/DX2                !
 ! D40   D(20,19,21,25)        179.4529         estimate D2E/DX2                !
 ! D41   D(19,20,22,26)         -0.3052         estimate D2E/DX2                !
 ! D42   D(19,20,22,27)        179.9473         estimate D2E/DX2                !
 ! D43   D(23,20,22,26)        179.4086         estimate D2E/DX2                !
 ! D44   D(23,20,22,27)         -0.3389         estimate D2E/DX2                !
 ! D45   D(19,21,24,26)         -0.2531         estimate D2E/DX2                !
 ! D46   D(19,21,24,28)        179.561          estimate D2E/DX2                !
 ! D47   D(25,21,24,26)       -179.5924         estimate D2E/DX2                !
 ! D48   D(25,21,24,28)          0.2217         estimate D2E/DX2                !
 ! D49   D(20,22,26,24)          0.1731         estimate D2E/DX2                !
 ! D50   D(20,22,26,29)       -179.7266         estimate D2E/DX2                !
 ! D51   D(27,22,26,24)        179.9204         estimate D2E/DX2                !
 ! D52   D(27,22,26,29)          0.0207         estimate D2E/DX2                !
 ! D53   D(21,24,26,22)          0.1056         estimate D2E/DX2                !
 ! D54   D(21,24,26,29)       -179.9947         estimate D2E/DX2                !
 ! D55   D(28,24,26,22)       -179.7079         estimate D2E/DX2                !
 ! D56   D(28,24,26,29)          0.1918         estimate D2E/DX2                !
 ! D57   D(3,30,31,33)         177.2306         estimate D2E/DX2                !
 ! D58   D(3,30,31,34)          -2.4374         estimate D2E/DX2                !
 ! D59   D(32,30,31,33)         -0.4852         estimate D2E/DX2                !
 ! D60   D(32,30,31,34)        179.8468         estimate D2E/DX2                !
 ! D61   D(3,30,32,35)        -176.864          estimate D2E/DX2                !
 ! D62   D(3,30,32,36)           1.6836         estimate D2E/DX2                !
 ! D63   D(31,30,32,35)          0.7634         estimate D2E/DX2                !
 ! D64   D(31,30,32,36)        179.311          estimate D2E/DX2                !
 ! D65   D(30,31,33,37)         -0.1964         estimate D2E/DX2                !
 ! D66   D(30,31,33,38)       -179.6889         estimate D2E/DX2                !
 ! D67   D(34,31,33,37)        179.4635         estimate D2E/DX2                !
 ! D68   D(34,31,33,38)         -0.029          estimate D2E/DX2                !
 ! D69   D(30,32,35,37)         -0.3606         estimate D2E/DX2                !
 ! D70   D(30,32,35,39)        178.6633         estimate D2E/DX2                !
 ! D71   D(36,32,35,37)       -178.9256         estimate D2E/DX2                !
 ! D72   D(36,32,35,39)          0.0982         estimate D2E/DX2                !
 ! D73   D(31,33,37,35)          0.6072         estimate D2E/DX2                !
 ! D74   D(31,33,37,40)       -179.0529         estimate D2E/DX2                !
 ! D75   D(38,33,37,35)       -179.9007         estimate D2E/DX2                !
 ! D76   D(38,33,37,40)          0.4392         estimate D2E/DX2                !
 ! D77   D(32,35,37,33)         -0.3294         estimate D2E/DX2                !
 ! D78   D(32,35,37,40)        179.3308         estimate D2E/DX2                !
 ! D79   D(39,35,37,33)       -179.3501         estimate D2E/DX2                !
 ! D80   D(39,35,37,40)          0.3101         estimate D2E/DX2                !
 --------------------------------------------------------------------------------
 Trust Radius=3.00D-01 FncErr=1.00D-07 GrdErr=1.00D-06 EigMax=2.50D+02 EigMin=1.00D-04
 Number of optimizations in scan= 324
 Number of steps in this run=    198 maximum allowed number of steps=    240.
 GradGradGradGradGradGradGradGradGradGradGradGradGradGradGradGradGradGrad

 Leave Link  103 at Wed May 22 18:23:42 2019, MaxMem=   104857600 cpu:               1.7 elap:               0.1
 (Enter /opt/software/gaussian/g16.b01/l202.exe)
                          Input orientation:                          
 ---------------------------------------------------------------------
 Center     Atomic      Atomic             Coordinates (Angstroms)
 Number     Number       Type             X           Y           Z
 ---------------------------------------------------------------------
      1          6           0        0.354114   -1.479346   -0.300515
      2          1           0        4.617955   -1.282880    1.297952
      3          6           0        1.789819    1.485909    0.313633
      4          8           0        2.516716    1.446931   -0.678695
      5          8           0        1.087129   -1.591882    0.682932
      6          7           0        4.641783   -0.832369   -0.640505
      7          1           0        4.542861   -1.383376   -1.489989
      8          7           0        4.216671   -1.684041    0.453555
      9          1           0        3.201048   -1.640805    0.567697
     10          1           0        4.015278   -0.029541   -0.735763
     11          6           0        0.944306   -1.344173   -1.686070
     12          1           0        0.597204   -2.155785   -2.333478
     13          1           0        0.629400   -0.400136   -2.139896
     14          1           0        2.031746   -1.359326   -1.621023
     15          6           0        2.344908    1.203153    1.691282
     16          1           0        2.132986    2.029950    2.376260
     17          1           0        1.878401    0.300228    2.095649
     18          1           0        3.421553    1.048791    1.619747
     19          6           0       -1.128009   -1.466775   -0.133684
     20          6           0       -1.661396   -1.665315    1.151123
     21          6           0       -2.000096   -1.243638   -1.210093
     22          6           0       -3.036547   -1.644669    1.355419
     23          1           0       -0.977394   -1.829663    1.976349
     24          6           0       -3.379055   -1.217285   -1.003397
     25          1           0       -1.610946   -1.079231   -2.208354
     26          6           0       -3.898648   -1.418419    0.276777
     27          1           0       -3.439928   -1.799851    2.351326
     28          1           0       -4.046328   -1.036951   -1.840288
     29          1           0       -4.972706   -1.397577    0.435468
     30          6           0        0.335993    1.789757    0.163525
     31          6           0       -0.151760    2.126093   -1.111313
     32          6           0       -0.561943    1.703323    1.238503
     33          6           0       -1.507921    2.360596   -1.308836
     34          1           0        0.551634    2.192471   -1.934188
     35          6           0       -1.922381    1.932973    1.038122
     36          1           0       -0.210166    1.434689    2.228088
     37          6           0       -2.397189    2.257866   -0.233530
     38          1           0       -1.876647    2.614849   -2.297694
     39          1           0       -2.612663    1.842780    1.870336
     40          1           0       -3.458405    2.425544   -0.389122
 ---------------------------------------------------------------------
                    Distance matrix (angstroms):
                    1          2          3          4          5
     1  C    0.000000
     2  H    4.557854   0.000000
     3  C    3.351293   4.078410   0.000000
     4  O    3.658273   3.971676   1.230696   0.000000
     5  O    1.231724   3.597286   3.178514   3.623828   0.000000
     6  N    4.349515   1.990262   3.797169   3.116501   3.868321
     7  H    4.355417   2.790762   4.366359   3.574087   4.087437
     8  N    3.940795   1.017332   3.994718   3.738291   3.139290
     9  H    2.980754   1.633710   3.439834   3.399399   2.117623
    10  H    3.961754   2.463752   2.889721   2.104499   3.609385
    11  C    1.512072   4.733270   3.566941   3.358205   2.386195
    12  H    2.156293   5.487776   4.657409   4.404815   3.107530
    13  H    2.150302   5.339158   3.305078   3.018067   3.098085
    14  H    2.138363   3.900607   3.449172   2.999709   2.500918
    15  C    3.889257   3.391432   1.511950   2.388668   3.226608
    16  H    4.758641   4.279330   2.160596   3.133674   4.132656
    17  H    3.351408   3.263083   2.142258   3.069097   2.490374
    18  H    4.414529   2.640382   2.135313   2.502015   3.646959
    19  C    1.491536   5.924483   4.175183   4.697951   2.364181
    20  C    2.490807   6.292699   4.747893   5.521859   2.789083
    21  C    2.534797   7.077459   4.912802   5.284235   3.638101
    22  C    3.777040   7.663263   5.846336   6.673405   4.178484
    23  H    2.660779   5.662784   4.627646   5.476690   2.447800
    24  C    3.807791   8.321819   5.979890   6.477931   4.788614
    25  H    2.767924   7.150864   4.950310   5.075327   3.987725
    26  C    4.292198   8.578677   6.387107   7.090843   5.005300
    27  H    4.640015   8.142870   6.503742   7.429955   4.829186
    28  H    4.683002   9.218396   6.713033   7.112842   5.746909
    29  H    5.378045   9.630047   7.352624   8.088512   6.067997
    30  C    3.301923   5.391032   1.492805   2.362714   3.502781
    31  C    3.729945   6.338441   2.491994   2.787326   4.310162
    32  C    3.652002   5.979322   2.536422   3.635867   3.726456
    33  C    4.385093   7.589244   3.777906   4.174873   5.130644
    34  H    4.023698   6.249781   2.661772   2.448191   4.632213
    35  C    4.314893   7.292820   3.808567   4.784274   4.648431
    36  H    3.899211   5.617925   2.769061   3.985652   3.637391
    37  C    4.641218   8.005908   4.292591   5.000225   5.272659
    38  H    5.072224   8.384558   4.640744   4.825643   5.946821
    39  H    4.954885   7.898051   4.683218   5.741497   5.186067
    40  H    5.458142   9.045785   5.377791   6.061651   6.160429
                    6          7          8          9         10
     6  N    0.000000
     7  H    1.017358   0.000000
     8  N    1.450184   1.993530   0.000000
     9  H    2.046714   2.469980   1.022931   0.000000
    10  H    1.022798   1.637092   2.047537   2.226690   0.000000
    11  C    3.876401   3.604106   3.924523   3.203177   3.473069
    12  H    4.579979   4.108077   4.592454   3.932178   4.330916
    13  H    4.305138   4.087092   4.609004   3.934932   3.684169
    14  H    2.837498   2.514646   3.030381   2.497397   2.546844
    15  C    3.854376   4.652055   3.656686   3.175455   3.193778
    16  H    4.856728   5.692642   4.672501   4.229196   4.179619
    17  H    4.050382   4.773957   3.478693   2.802078   3.562567
    18  H    3.183781   4.104050   3.075807   2.896439   2.657769
    19  C    5.826649   5.831405   5.381232   4.388958   5.374155
    20  C    6.605588   6.748909   5.919343   4.897382   6.201671
    21  C    6.678932   6.550432   6.450571   5.510914   6.154977
    22  C    7.974979   8.100126   7.309178   6.287139   7.530599
    23  H    6.278349   6.533597   5.414649   4.413541   5.960098
    24  C    8.038264   7.938584   7.748266   6.778308   7.493899
    25  H    6.451024   6.203055   6.435268   5.583647   5.909718
    26  C    8.609519   8.624486   8.121589   7.109133   8.098422
    27  H    8.671858   8.868713   7.889135   6.878168   8.261006
    28  H    8.772947   8.603307   8.599860   7.660776   8.199045
    29  H    9.691005   9.708429   9.193859   8.178441   9.166633
    30  C    5.105079   5.522737   5.216421   4.487834   4.201869
    31  C    5.652629   5.873605   6.004092   5.315065   4.706591
    32  C    6.085981   6.559833   5.909783   5.078708   5.277452
    33  C    6.961361   7.117732   7.227452   6.458094   6.045403
    34  H    5.249056   5.377164   5.844755   5.288934   4.286069
    35  C    7.318002   7.693430   7.149298   6.264400   6.500302
    36  H    6.075343   6.660094   5.698450   4.883845   5.364957
    37  C    7.698202   7.937356   7.730062   6.868905   6.826727
    38  H    7.557745   7.605805   7.948481   7.218313   6.644336
    39  H    8.129436   8.538231   7.815724   6.901556   7.363894
    40  H    8.734428   8.929728   8.746747   7.861235   7.874233
                   11         12         13         14         15
    11  C    0.000000
    12  H    1.094683   0.000000
    13  H    1.093769   1.766583   0.000000
    14  H    1.089489   1.788812   1.776471   0.000000
    15  C    4.456126   5.525905   4.493487   4.199492   0.000000
    16  H    5.412965   6.485417   5.344320   5.241728   1.094394
    17  H    4.228237   5.224044   4.471057   4.073240   1.093808
    18  H    4.774040   5.820158   4.902084   4.270033   1.090004
    19  C    2.592185   2.879269   2.872471   3.493963   4.745542
    20  C    3.865550   4.181421   4.204668   4.627928   4.956849
    21  C    2.984320   2.973209   2.913808   4.054380   5.769213
    22  C    5.018779   5.203205   5.215866   5.884575   6.097783
    23  H    4.164366   4.600035   4.644223   4.713515   4.507430
    24  C    4.378766   4.296572   4.245830   5.447789   6.773741
    25  H    2.621505   2.459787   2.342009   3.700353   6.005432
    26  C    5.226135   5.250698   5.232631   6.226934   6.917764
    27  H    5.977434   6.194555   6.220105   6.775901   6.551185
    28  H    5.002459   4.801814   4.728396   6.090565   7.637928
    29  H    6.286080   6.266246   6.245877   7.300203   7.866914
    30  C    3.689521   4.676597   3.191781   3.997113   2.591117
    31  C    3.684352   4.515431   2.837257   4.144351   3.865192
    32  C    4.484322   5.384736   4.154205   4.927873   2.984118
    33  C    4.458816   5.087154   3.588933   5.144368   5.018433
    34  H    3.567016   4.366788   2.601917   3.860578   4.163966
    35  C    5.136030   5.868044   4.696252   5.791840   4.378243
    36  H    4.937156   5.860993   4.811521   5.258169   2.621101
    37  C    5.123490   5.732058   4.456394   5.884274   5.225400
    38  H    4.899563   5.374027   3.923685   5.614934   5.977152
    39  H    5.954555   6.630522   5.623487   6.634275   5.001869
    40  H    5.939420   6.420051   5.268760   6.781193   6.284963
                   16         17         18         19         20
    16  H    0.000000
    17  H    1.770733   0.000000
    18  H    1.787565   1.779929   0.000000
    19  C    5.400092   4.138928   5.486448   0.000000
    20  C    5.436293   4.157602   5.781207   1.405222   0.000000
    21  C    6.376572   5.324865   6.531271   1.403204   2.422369
    22  C    6.424096   5.337348   7.002260   2.427260   1.390397
    23  H    4.973028   3.564580   5.269098   2.146302   1.084374
    24  C    7.235276   6.288702   7.633103   2.426078   2.791602
    25  H    6.686009   5.709894   6.671498   2.165104   3.410590
    26  C    7.258077   6.295740   7.840666   2.801296   2.414692
    27  H    6.762054   5.723664   7.465246   3.410452   2.149829
    28  H    8.085115   7.237545   8.490666   3.407907   3.877020
    29  H    8.124375   7.250959   8.823311   3.887212   3.398326
    30  C    2.860607   2.886316   3.491460   3.582825   4.111257
    31  C    4.170428   4.211881   4.624698   3.849353   4.666090
    32  C    2.943437   2.942559   4.054874   3.500407   3.544595
    33  C    5.190902   5.225209   5.881934   4.021702   4.720478
    34  H    4.594241   4.645480   4.709023   4.410566   5.412870
    35  C    4.271536   4.269680   5.447724   3.682722   3.609510
    36  H    2.422117   2.380473   3.702483   3.852129   3.588307
    37  C    5.233110   5.247675   6.225292   3.936209   4.224927
    38  H    6.185880   6.225698   6.772725   4.680070   5.500952
    39  H    4.776209   4.753934   6.091385   4.144086   3.705254
    40  H    6.250399   6.258798   7.298276   4.543803   4.726174
                   21         22         23         24         25
    21  C    0.000000
    22  C    2.795873   0.000000
    23  H    3.397463   2.158677   0.000000
    24  C    1.394613   2.421566   3.875806   0.000000
    25  H    1.083971   3.879760   4.298404   2.144106   0.000000
    26  C    2.417815   1.399241   3.404613   1.396165   3.394776
    27  H    3.881520   1.085647   2.491098   3.405474   4.965395
    28  H    2.151030   3.406101   4.961196   1.085431   2.463401
    29  H    3.401173   2.157794   4.303897   2.154660   4.288656
    30  C    4.067631   4.958822   4.255763   4.919918   4.200890
    31  C    3.844631   5.350272   5.085601   4.648145   3.688743
    32  C    4.092491   4.164899   3.633044   4.635967   4.552344
    33  C    3.639023   5.047485   5.350904   4.049156   3.556987
    34  H    4.340793   6.198403   5.814447   5.286126   3.931406
    35  C    3.892476   3.760527   3.991328   4.026639   4.439591
    36  H    4.711515   4.269945   3.362738   5.245695   5.288099
    37  C    3.656759   4.261844   4.858732   3.692348   3.956555
    38  H    4.010740   5.730104   6.231355   4.314822   3.704700
    39  H    4.403437   3.550650   4.021465   4.267282   5.116375
    40  H    4.032810   4.448373   5.464216   3.695109   4.359605
                   26         27         28         29         30
    26  C    0.000000
    27  H    2.158626   0.000000
    28  H    2.156222   4.303413   0.000000
    29  H    1.085918   2.486311   2.483403   0.000000
    30  C    5.313888   5.650605   5.586616   6.198011   0.000000
    31  C    5.341304   6.181824   5.069903   6.168493   1.405787
    32  C    4.669453   4.668340   5.397128   5.451172   1.403331
    33  C    4.744544   5.868454   4.274257   5.401037   2.427699
    34  H    6.142630   7.087795   5.619541   7.001575   2.146877
    35  C    3.964481   4.238093   4.649392   4.556340   2.426043
    36  H    5.054972   4.572614   6.113659   5.823831   2.164898
    37  C    4.003731   4.922789   4.019596   4.521406   2.801261
    38  H    5.194578   6.599001   4.272280   5.758065   3.410887
    39  H    3.850793   3.766229   4.910904   4.257765   3.407431
    40  H    3.925976   5.036304   3.800054   4.193961   3.886785
                   31         32         33         34         35
    31  C    0.000000
    32  C    2.422523   0.000000
    33  C    1.390388   2.795678   0.000000
    34  H    1.084570   3.397836   2.158958   0.000000
    35  C    2.791499   1.394160   2.421332   3.875915   0.000000
    36  H    3.410726   1.084062   3.879601   4.298734   2.143825
    37  C    2.414502   2.417132   1.399155   3.404713   1.395742
    38  H    2.149795   3.881239   1.085561   2.491403   3.405101
    39  H    3.876408   2.150375   3.405249   4.960792   1.084990
    40  H    3.397813   3.400038   2.157424   4.303715   2.153839
                   36         37         38         39         40
    36  H    0.000000
    37  C    3.394150   0.000000
    38  H    4.965142   2.158512   0.000000
    39  H    2.463030   2.155221   4.302358   0.000000
    40  H    4.287498   1.085589   2.486049   2.481944   0.000000
 Stoichiometry    C16H20N2O2
 Framework group  C1[X(C16H20N2O2)]
 Deg. of freedom   114
 Full point group                 C1      NOp   1
 Largest Abelian subgroup         C1      NOp   1
 Largest concise Abelian subgroup C1      NOp   1
                         Standard orientation:                         
 ---------------------------------------------------------------------
 Center     Atomic      Atomic             Coordinates (Angstroms)
 Number     Number       Type             X           Y           Z
 ---------------------------------------------------------------------
      1          6           0        0.354114   -1.479346   -0.300515
      2          1           0        4.617955   -1.282880    1.297952
      3          6           0        1.789819    1.485909    0.313633
      4          8           0        2.516716    1.446931   -0.678695
      5          8           0        1.087129   -1.591882    0.682932
      6          7           0        4.641783   -0.832369   -0.640505
      7          1           0        4.542861   -1.383376   -1.489989
      8          7           0        4.216671   -1.684041    0.453555
      9          1           0        3.201048   -1.640805    0.567697
     10          1           0        4.015278   -0.029541   -0.735763
     11          6           0        0.944306   -1.344173   -1.686070
     12          1           0        0.597204   -2.155785   -2.333478
     13          1           0        0.629400   -0.400136   -2.139896
     14          1           0        2.031746   -1.359326   -1.621023
     15          6           0        2.344908    1.203153    1.691282
     16          1           0        2.132986    2.029950    2.376260
     17          1           0        1.878401    0.300228    2.095649
     18          1           0        3.421553    1.048791    1.619747
     19          6           0       -1.128009   -1.466775   -0.133684
     20          6           0       -1.661396   -1.665315    1.151123
     21          6           0       -2.000096   -1.243638   -1.210093
     22          6           0       -3.036547   -1.644669    1.355419
     23          1           0       -0.977394   -1.829663    1.976349
     24          6           0       -3.379055   -1.217285   -1.003397
     25          1           0       -1.610946   -1.079231   -2.208354
     26          6           0       -3.898648   -1.418419    0.276777
     27          1           0       -3.439928   -1.799851    2.351326
     28          1           0       -4.046328   -1.036951   -1.840288
     29          1           0       -4.972706   -1.397577    0.435468
     30          6           0        0.335993    1.789757    0.163525
     31          6           0       -0.151760    2.126093   -1.111313
     32          6           0       -0.561943    1.703323    1.238503
     33          6           0       -1.507921    2.360596   -1.308836
     34          1           0        0.551634    2.192471   -1.934188
     35          6           0       -1.922381    1.932973    1.038122
     36          1           0       -0.210166    1.434689    2.228088
     37          6           0       -2.397189    2.257866   -0.233530
     38          1           0       -1.876647    2.614849   -2.297694
     39          1           0       -2.612663    1.842780    1.870336
     40          1           0       -3.458405    2.425544   -0.389122
 ---------------------------------------------------------------------
 Rotational constants (GHZ):           0.4971157           0.2618364           0.2147300
 Leave Link  202 at Wed May 22 18:23:42 2019, MaxMem=   104857600 cpu:               0.6 elap:               0.0
 (Enter /opt/software/gaussian/g16.b01/l301.exe)
 Standard basis: 6-31G(d,p) (6D, 7F)
 Ernie: Thresh=  0.10000D-02 Tol=  0.10000D-05 Strict=F.
 There are   400 symmetry adapted cartesian basis functions of A   symmetry.
 There are   400 symmetry adapted basis functions of A   symmetry.
   400 basis functions,   700 primitive gaussians,   400 cartesian basis functions
    73 alpha electrons       73 beta electrons
       nuclear repulsion energy      1570.5787083306 Hartrees.
 IExCor=  402 DFT=T Ex+Corr=B3LYP ExCW=0 ScaHFX=  0.200000
 ScaDFX=  0.800000  0.720000  1.000000  0.810000 ScalE2=  1.000000  1.000000
 IRadAn=      5 IRanWt=     -1 IRanGd=            0 ICorTp=0 IEmpDi=131
 NAtoms=   40 NActive=   40 NUniq=   40 SFac= 1.00D+00 NAtFMM=   60 NAOKFM=F Big=F
 Integral buffers will be    131072 words long.
 Raffenetti 2 integral format.
 Two-electron integral symmetry is turned on.
 R6Disp:  Grimme-D3 Dispersion energy=       -0.0479960266 Hartrees.
 Nuclear repulsion after empirical dispersion term =     1570.5307123039 Hartrees.
 ------------------------------------------------------------------------------
 Polarizable Continuum Model (PCM)
 =================================
 Model                : PCM.
 Atomic radii         : UFF (Universal Force Field).
 Polarization charges : Total charges.
 Charge compensation  : None.
 Solution method      : On-the-fly selection.
 Cavity type          : Scaled VdW (van der Waals Surface) (Alpha=1.100).
 Cavity algorithm     : GePol (No added spheres)
                        Default sphere list used, NSphG=   40.
                        Lebedev-Laikov grids with approx.  5.0 points / Ang**2.
                        Smoothing algorithm: York/Karplus (Gamma=1.0000).
                        Polarization charges: spherical gaussians, with
                                              point-specific exponents (IZeta= 3).
                        Self-potential: point-specific (ISelfS= 7).
                        Self-field    : sphere-specific E.n sum rule (ISelfD= 2).
 1st derivatives      : Analytical E(r).r(x)/FMM algorithm (CHGder, D1EAlg=3).
                        Cavity 1st derivative terms included.
 Solvent              : Acetonitrile, Eps=  35.688000 Eps(inf)=   1.806874
 ------------------------------------------------------------------------------
 GePol: Number of generator spheres                  =      40
 GePol: Total number of spheres                      =      40
 GePol: Number of exposed spheres                    =      40 (100.00%)
 GePol: Number of points                             =    2729
 GePol: Average weight of points                     =       0.13
 GePol: Minimum weight of points                     =   0.40D-10
 GePol: Maximum weight of points                     =    0.20577
 GePol: Number of points with low weight             =     210
 GePol: Fraction of low-weight points (<1% of avg)   =       7.70%
 GePol: Cavity surface area                          =    347.332 Ang**2
 GePol: Cavity volume                                =    412.337 Ang**3
 Leave Link  301 at Wed May 22 18:23:42 2019, MaxMem=   104857600 cpu:               3.6 elap:               0.1
 (Enter /opt/software/gaussian/g16.b01/l302.exe)
 NPDir=0 NMtPBC=     1 NCelOv=     1 NCel=       1 NClECP=     1 NCelD=      1
         NCelK=      1 NCelE2=     1 NClLst=     1 CellRange=     0.0.
 One-electron integrals computed using PRISM.
 One-electron integral symmetry used in STVInt
 PrsmSu:  requested number of processors reduced to:  27 ShMem   1 Linda.
 NBasis=   400 RedAO= T EigKep=  4.63D-04  NBF=   400
 NBsUse=   400 1.00D-06 EigRej= -1.00D+00 NBFU=   400
 Precomputing XC quadrature grid using
 IXCGrd= 4 IRadAn=           5 IRanWt=          -1 IRanGd=           0 AccXCQ= 0.00D+00.
 Generated NRdTot=       0 NPtTot=           0 NUsed=           0 NTot=          32
 NSgBfM=   399   399   399   399   399 MxSgAt=    40 MxSgA2=    40.
 Leave Link  302 at Wed May 22 18:23:42 2019, MaxMem=   104857600 cpu:              16.2 elap:               0.5
 (Enter /opt/software/gaussian/g16.b01/l303.exe)
 DipDrv:  MaxL=1.
 Leave Link  303 at Wed May 22 18:23:42 2019, MaxMem=   104857600 cpu:               1.7 elap:               0.1
 (Enter /opt/software/gaussian/g16.b01/l401.exe)
 ExpMin= 1.61D-01 ExpMax= 5.48D+03 ExpMxC= 8.25D+02 IAcc=3 IRadAn=         5 AccDes= 0.00D+00
 Harris functional with IExCor=  402 and IRadAn=       5 diagonalized for initial guess.
 HarFok:  IExCor=  402 AccDes= 0.00D+00 IRadAn=         5 IDoV= 1 UseB2=F ITyADJ=14
 ICtDFT=  3500011 ScaDFX=  1.000000  1.000000  1.000000  1.000000
 FoFCou: FMM=F IPFlag=           0 FMFlag=      100000 FMFlg1=           0
         NFxFlg=           0 DoJE=T BraDBF=F KetDBF=T FulRan=T
         wScrn=  0.000000 ICntrl=       500 IOpCl=  0 I1Cent=   200000004 NGrid=           0
         NMat0=    1 NMatS0=      1 NMatT0=    0 NMatD0=    1 NMtDS0=    0 NMtDT0=    0
 Petite list used in FoFCou.
 Harris En= -881.799541376068    
 JPrj=0 DoOrth=F DoCkMO=T.
 Mixing orbitals, IMix= 1 IMixAn=  0 NRI=1 NE=   73 Coef=  7.07106781D-01  7.07106781D-01
 Mixing orbitals, IMix= 1 IMixAn=  0 NRI=1 NE=   73 Coef= -7.07106781D-01  7.07106781D-01
 Initial guess <Sx>= 0.0000 <Sy>= 0.0000 <Sz>= 0.0000 <S**2>= 1.0000 S= 0.6180
 Leave Link  401 at Wed May 22 18:23:44 2019, MaxMem=   104857600 cpu:              32.9 elap:               1.1
 (Enter /opt/software/gaussian/g16.b01/l502.exe)
 Integral symmetry usage will be decided dynamically.
 UHF open shell SCF:
 Using DIIS extrapolation, IDIIS=  1040.
 NGot=   104857600 LenX=   104520454 LenY=   104360013
 Requested convergence on RMS density matrix=1.00D-08 within 128 cycles.
 Requested convergence on MAX density matrix=1.00D-06.
 Requested convergence on             energy=1.00D-06.
 No special actions if energy rises.
 Fock matrices will be formed incrementally for  20 cycles.

 Cycle   1  Pass 1  IDiag  1:
 FoFJK:  IHMeth= 1 ICntrl=       0 DoSepK=F KAlg= 0 I1Cent=           0 FoldK=F
 IRaf= 800000000 NMat=       1 IRICut=       1 DoRegI=T DoRafI=F ISym2E= 0 IDoP0=0 IntGTp=1.
 FoFCou: FMM=F IPFlag=           0 FMFlag=      100000 FMFlg1=           0
         NFxFlg=           0 DoJE=F BraDBF=F KetDBF=F FulRan=T
         wScrn=  0.000000 ICntrl=         0 IOpCl=  1 I1Cent=           0 NGrid=           0
         NMat0=    1 NMatS0=      1 NMatT0=    0 NMatD0=    1 NMtDS0=    0 NMtDT0=    0
 Symmetry not used in FoFCou.
 Inv3:  Mode=1 IEnd=    22342323.
 Iteration    1 A*A^-1 deviation from unit magnitude is 3.33D-15 for    609.
 Iteration    1 A*A^-1 deviation from orthogonality  is 2.45D-15 for   1372   1211.
 Iteration    1 A^-1*A deviation from unit magnitude is 3.33D-15 for    609.
 Iteration    1 A^-1*A deviation from orthogonality  is 2.11D-13 for   1915   1890.
 E= -881.024762211864    
 DIIS: error= 2.85D-02 at cycle   1 NSaved=   1.
 NSaved= 1 IEnMin= 1 EnMin= -881.024762211864     IErMin= 1 ErrMin= 2.85D-02
 ErrMax= 2.85D-02  0.00D+00 EMaxC= 1.00D-01 BMatC= 2.23D+00 BMatP= 2.23D+00
 IDIUse=3 WtCom= 7.15D-01 WtEn= 2.85D-01
 Coeff-Com:  0.100D+01
 Coeff-En:   0.100D+01
 Coeff:      0.100D+01
 Gap=     0.019 Goal=   None    Shift=    0.000
 Gap=     0.026 Goal=   None    Shift=    0.000
 GapD=    0.019 DampG=0.250 DampE=0.500 DampFc=0.2500 IDamp=-1.
 Damping current iteration by 2.50D-01
 RMSDP=4.70D-03 MaxDP=1.77D-01              OVMax= 3.85D-01

 Cycle   2  Pass 1  IDiag  1:
 RMSU=  1.16D-03    CP:  9.88D-01
 E= -881.279972827604     Delta-E=       -0.255210615739 Rises=F Damp=T
 DIIS: error= 1.53D-02 at cycle   2 NSaved=   2.
 NSaved= 2 IEnMin= 2 EnMin= -881.279972827604     IErMin= 2 ErrMin= 1.53D-02
 ErrMax= 1.53D-02  0.00D+00 EMaxC= 1.00D-01 BMatC= 5.63D-01 BMatP= 2.23D+00
 IDIUse=3 WtCom= 8.47D-01 WtEn= 1.53D-01
 Coeff-Com: -0.775D+00 0.177D+01
 Coeff-En:   0.000D+00 0.100D+01
 Coeff:     -0.657D+00 0.166D+01
 Gap=     0.203 Goal=   None    Shift=    0.000
 Gap=     0.198 Goal=   None    Shift=    0.000
 RMSDP=1.98D-03 MaxDP=7.76D-02 DE=-2.55D-01 OVMax= 1.38D-01

 Cycle   3  Pass 1  IDiag  1:
 RMSU=  1.52D-03    CP:  9.59D-01  2.02D+00
 E= -881.728046895745     Delta-E=       -0.448074068142 Rises=F Damp=F
 DIIS: error= 5.84D-03 at cycle   3 NSaved=   3.
 NSaved= 3 IEnMin= 3 EnMin= -881.728046895745     IErMin= 3 ErrMin= 5.84D-03
 ErrMax= 5.84D-03  0.00D+00 EMaxC= 1.00D-01 BMatC= 1.22D-01 BMatP= 5.63D-01
 IDIUse=3 WtCom= 9.42D-01 WtEn= 5.84D-02
 Coeff-Com: -0.322D+00 0.764D+00 0.558D+00
 Coeff-En:   0.000D+00 0.000D+00 0.100D+01
 Coeff:     -0.303D+00 0.719D+00 0.584D+00
 Gap=     0.183 Goal=   None    Shift=    0.000
 Gap=     0.183 Goal=   None    Shift=    0.000
 RMSDP=7.06D-04 MaxDP=4.63D-02 DE=-4.48D-01 OVMax= 5.80D-02

 Cycle   4  Pass 1  IDiag  1:
 RMSU=  6.96D-04    CP:  9.62D-01  1.95D+00  9.57D-01
 E= -881.746700214130     Delta-E=       -0.018653318384 Rises=F Damp=F
 DIIS: error= 4.65D-03 at cycle   4 NSaved=   4.
 NSaved= 4 IEnMin= 4 EnMin= -881.746700214130     IErMin= 4 ErrMin= 4.65D-03
 ErrMax= 4.65D-03  0.00D+00 EMaxC= 1.00D-01 BMatC= 5.91D-02 BMatP= 1.22D-01
 IDIUse=3 WtCom= 9.54D-01 WtEn= 4.65D-02
 Coeff-Com:  0.610D-02 0.538D-01 0.393D+00 0.547D+00
 Coeff-En:   0.000D+00 0.000D+00 0.294D+00 0.706D+00
 Coeff:      0.582D-02 0.513D-01 0.388D+00 0.555D+00
 Gap=     0.164 Goal=   None    Shift=    0.000
 Gap=     0.165 Goal=   None    Shift=    0.000
 RMSDP=3.32D-04 MaxDP=2.21D-02 DE=-1.87D-02 OVMax= 2.80D-02

 Cycle   5  Pass 1  IDiag  1:
 RMSU=  1.85D-04    CP:  9.60D-01  1.91D+00  1.03D+00  6.44D-01
 E= -881.758256246642     Delta-E=       -0.011556032512 Rises=F Damp=F
 DIIS: error= 6.78D-04 at cycle   5 NSaved=   5.
 NSaved= 5 IEnMin= 5 EnMin= -881.758256246642     IErMin= 5 ErrMin= 6.78D-04
 ErrMax= 6.78D-04  0.00D+00 EMaxC= 1.00D-01 BMatC= 1.75D-03 BMatP= 5.91D-02
 IDIUse=3 WtCom= 9.93D-01 WtEn= 6.78D-03
 Coeff-Com:  0.220D-01-0.343D-01 0.908D-01 0.211D+00 0.711D+00
 Coeff-En:   0.000D+00 0.000D+00 0.000D+00 0.000D+00 0.100D+01
 Coeff:      0.219D-01-0.341D-01 0.901D-01 0.209D+00 0.713D+00
 Gap=     0.162 Goal=   None    Shift=    0.000
 Gap=     0.163 Goal=   None    Shift=    0.000
 RMSDP=8.52D-05 MaxDP=4.14D-03 DE=-1.16D-02 OVMax= 7.35D-03

 Cycle   6  Pass 1  IDiag  1:
 RMSU=  6.28D-05    CP:  9.60D-01  1.91D+00  1.04D+00  7.09D-01  8.62D-01
 E= -881.758551224064     Delta-E=       -0.000294977423 Rises=F Damp=F
 DIIS: error= 6.32D-04 at cycle   6 NSaved=   6.
 NSaved= 6 IEnMin= 6 EnMin= -881.758551224064     IErMin= 6 ErrMin= 6.32D-04
 ErrMax= 6.32D-04  0.00D+00 EMaxC= 1.00D-01 BMatC= 5.60D-04 BMatP= 1.75D-03
 IDIUse=3 WtCom= 9.94D-01 WtEn= 6.32D-03
 Coeff-Com:  0.376D-02-0.814D-02 0.170D-01 0.625D-01 0.414D+00 0.511D+00
 Coeff-En:   0.000D+00 0.000D+00 0.000D+00 0.000D+00 0.229D+00 0.771D+00
 Coeff:      0.374D-02-0.809D-02 0.169D-01 0.621D-01 0.413D+00 0.512D+00
 Gap=     0.164 Goal=   None    Shift=    0.000
 Gap=     0.165 Goal=   None    Shift=    0.000
 RMSDP=3.51D-05 MaxDP=1.88D-03 DE=-2.95D-04 OVMax= 4.25D-03

 Cycle   7  Pass 1  IDiag  1:
 RMSU=  2.33D-05    CP:  9.60D-01  1.91D+00  1.04D+00  6.99D-01  9.29D-01
                    CP:  6.53D-01
 E= -881.758694431462     Delta-E=       -0.000143207397 Rises=F Damp=F
 DIIS: error= 1.61D-04 at cycle   7 NSaved=   7.
 NSaved= 7 IEnMin= 7 EnMin= -881.758694431462     IErMin= 7 ErrMin= 1.61D-04
 ErrMax= 1.61D-04  0.00D+00 EMaxC= 1.00D-01 BMatC= 4.00D-05 BMatP= 5.60D-04
 IDIUse=3 WtCom= 9.98D-01 WtEn= 1.61D-03
 Coeff-Com: -0.261D-02 0.335D-02-0.629D-03 0.822D-02 0.134D+00 0.252D+00
 Coeff-Com:  0.606D+00
 Coeff-En:   0.000D+00 0.000D+00 0.000D+00 0.000D+00 0.000D+00 0.000D+00
 Coeff-En:   0.100D+01
 Coeff:     -0.261D-02 0.334D-02-0.628D-03 0.820D-02 0.133D+00 0.252D+00
 Coeff:      0.606D+00
 Gap=     0.165 Goal=   None    Shift=    0.000
 Gap=     0.165 Goal=   None    Shift=    0.000
 RMSDP=1.23D-05 MaxDP=8.32D-04 DE=-1.43D-04 OVMax= 1.26D-03

 Cycle   8  Pass 1  IDiag  1:
 RMSU=  1.11D-05    CP:  9.60D-01  1.91D+00  1.04D+00  6.98D-01  9.38D-01
                    CP:  7.18D-01  8.73D-01
 E= -881.758706414939     Delta-E=       -0.000011983477 Rises=F Damp=F
 DIIS: error= 5.57D-05 at cycle   8 NSaved=   8.
 NSaved= 8 IEnMin= 8 EnMin= -881.758706414939     IErMin= 8 ErrMin= 5.57D-05
 ErrMax= 5.57D-05  0.00D+00 EMaxC= 1.00D-01 BMatC= 8.87D-06 BMatP= 4.00D-05
 IDIUse=1 WtCom= 1.00D+00 WtEn= 0.00D+00
 Coeff-Com: -0.167D-02 0.226D-02-0.247D-02-0.383D-02 0.124D-01 0.565D-01
 Coeff-Com:  0.334D+00 0.602D+00
 Coeff:     -0.167D-02 0.226D-02-0.247D-02-0.383D-02 0.124D-01 0.565D-01
 Coeff:      0.334D+00 0.602D+00
 Gap=     0.165 Goal=   None    Shift=    0.000
 Gap=     0.165 Goal=   None    Shift=    0.000
 RMSDP=6.22D-06 MaxDP=6.27D-04 DE=-1.20D-05 OVMax= 9.44D-04

 Cycle   9  Pass 1  IDiag  1:
 RMSU=  4.51D-06    CP:  9.60D-01  1.91D+00  1.04D+00  6.99D-01  9.46D-01
                    CP:  7.41D-01  1.02D+00  9.59D-01
 E= -881.758709958990     Delta-E=       -0.000003544051 Rises=F Damp=F
 DIIS: error= 2.88D-05 at cycle   9 NSaved=   9.
 NSaved= 9 IEnMin= 9 EnMin= -881.758709958990     IErMin= 9 ErrMin= 2.88D-05
 ErrMax= 2.88D-05  0.00D+00 EMaxC= 1.00D-01 BMatC= 1.70D-06 BMatP= 8.87D-06
 IDIUse=1 WtCom= 1.00D+00 WtEn= 0.00D+00
 Coeff-Com:  0.126D-04 0.211D-04-0.900D-03-0.362D-02-0.270D-01-0.359D-01
 Coeff-Com: -0.331D-03 0.264D+00 0.804D+00
 Coeff:      0.126D-04 0.211D-04-0.900D-03-0.362D-02-0.270D-01-0.359D-01
 Coeff:     -0.331D-03 0.264D+00 0.804D+00
 Gap=     0.165 Goal=   None    Shift=    0.000
 Gap=     0.165 Goal=   None    Shift=    0.000
 RMSDP=4.57D-06 MaxDP=4.39D-04 DE=-3.54D-06 OVMax= 7.87D-04

 Cycle  10  Pass 1  IDiag  1:
 RMSU=  2.55D-06    CP:  9.60D-01  1.91D+00  1.04D+00  6.99D-01  9.52D-01
                    CP:  7.58D-01  1.13D+00  1.18D+00  1.11D+00
 E= -881.758711050310     Delta-E=       -0.000001091321 Rises=F Damp=F
 DIIS: error= 2.36D-05 at cycle  10 NSaved=  10.
 NSaved=10 IEnMin=10 EnMin= -881.758711050310     IErMin=10 ErrMin= 2.36D-05
 ErrMax= 2.36D-05  0.00D+00 EMaxC= 1.00D-01 BMatC= 1.12D-06 BMatP= 1.70D-06
 IDIUse=1 WtCom= 1.00D+00 WtEn= 0.00D+00
 Coeff-Com:  0.601D-03-0.719D-03 0.158D-03-0.159D-02-0.264D-01-0.483D-01
 Coeff-Com: -0.127D+00-0.394D-01 0.607D+00 0.636D+00
 Coeff:      0.601D-03-0.719D-03 0.158D-03-0.159D-02-0.264D-01-0.483D-01
 Coeff:     -0.127D+00-0.394D-01 0.607D+00 0.636D+00
 Gap=     0.165 Goal=   None    Shift=    0.000
 Gap=     0.165 Goal=   None    Shift=    0.000
 RMSDP=2.99D-06 MaxDP=2.85D-04 DE=-1.09D-06 OVMax= 5.12D-04

 Cycle  11  Pass 1  IDiag  1:
 RMSU=  1.12D-06    CP:  9.60D-01  1.91D+00  1.04D+00  6.99D-01  9.53D-01
                    CP:  7.71D-01  1.18D+00  1.33D+00  1.44D+00  8.16D-01
 E= -881.758711557788     Delta-E=       -0.000000507477 Rises=F Damp=F
 DIIS: error= 8.48D-06 at cycle  11 NSaved=  11.
 NSaved=11 IEnMin=11 EnMin= -881.758711557788     IErMin=11 ErrMin= 8.48D-06
 ErrMax= 8.48D-06  0.00D+00 EMaxC= 1.00D-01 BMatC= 8.83D-08 BMatP= 1.12D-06
 IDIUse=1 WtCom= 1.00D+00 WtEn= 0.00D+00
 Coeff-Com:  0.296D-03-0.387D-03 0.187D-03-0.984D-04-0.651D-02-0.136D-01
 Coeff-Com: -0.500D-01-0.578D-01 0.129D+00 0.266D+00 0.733D+00
 Coeff:      0.296D-03-0.387D-03 0.187D-03-0.984D-04-0.651D-02-0.136D-01
 Coeff:     -0.500D-01-0.578D-01 0.129D+00 0.266D+00 0.733D+00
 Gap=     0.165 Goal=   None    Shift=    0.000
 Gap=     0.165 Goal=   None    Shift=    0.000
 RMSDP=8.62D-07 MaxDP=8.64D-05 DE=-5.07D-07 OVMax= 1.22D-04

 Cycle  12  Pass 1  IDiag  1:
 RMSU=  4.93D-07    CP:  9.60D-01  1.91D+00  1.04D+00  6.99D-01  9.54D-01
                    CP:  7.74D-01  1.19D+00  1.35D+00  1.52D+00  9.74D-01
                    CP:  1.03D+00
 E= -881.758711612274     Delta-E=       -0.000000054486 Rises=F Damp=F
 DIIS: error= 5.98D-06 at cycle  12 NSaved=  12.
 NSaved=12 IEnMin=12 EnMin= -881.758711612274     IErMin=12 ErrMin= 5.98D-06
 ErrMax= 5.98D-06  0.00D+00 EMaxC= 1.00D-01 BMatC= 2.61D-08 BMatP= 8.83D-08
 IDIUse=1 WtCom= 1.00D+00 WtEn= 0.00D+00
 Coeff-Com:  0.589D-05-0.189D-04 0.503D-04 0.308D-03 0.278D-02 0.441D-02
 Coeff-Com:  0.508D-02-0.202D-01-0.738D-01-0.119D-01 0.360D+00 0.734D+00
 Coeff:      0.589D-05-0.189D-04 0.503D-04 0.308D-03 0.278D-02 0.441D-02
 Coeff:      0.508D-02-0.202D-01-0.738D-01-0.119D-01 0.360D+00 0.734D+00
 Gap=     0.165 Goal=   None    Shift=    0.000
 Gap=     0.165 Goal=   None    Shift=    0.000
 RMSDP=4.44D-07 MaxDP=4.01D-05 DE=-5.45D-08 OVMax= 8.46D-05

 Cycle  13  Pass 1  IDiag  1:
 RMSU=  2.88D-07    CP:  9.60D-01  1.91D+00  1.04D+00  6.99D-01  9.54D-01
                    CP:  7.74D-01  1.20D+00  1.36D+00  1.55D+00  1.02D+00
                    CP:  1.26D+00  1.13D+00
 E= -881.758711632193     Delta-E=       -0.000000019919 Rises=F Damp=F
 DIIS: error= 3.27D-06 at cycle  13 NSaved=  13.
 NSaved=13 IEnMin=13 EnMin= -881.758711632193     IErMin=13 ErrMin= 3.27D-06
 ErrMax= 3.27D-06  0.00D+00 EMaxC= 1.00D-01 BMatC= 7.79D-09 BMatP= 2.61D-08
 IDIUse=1 WtCom= 1.00D+00 WtEn= 0.00D+00
 Coeff-Com: -0.910D-04 0.128D-03-0.272D-04 0.139D-03 0.267D-02 0.512D-02
 Coeff-Com:  0.153D-01 0.773D-02-0.640D-01-0.757D-01-0.462D-01 0.327D+00
 Coeff-Com:  0.828D+00
 Coeff:     -0.910D-04 0.128D-03-0.272D-04 0.139D-03 0.267D-02 0.512D-02
 Coeff:      0.153D-01 0.773D-02-0.640D-01-0.757D-01-0.462D-01 0.327D+00
 Coeff:      0.828D+00
 Gap=     0.165 Goal=   None    Shift=    0.000
 Gap=     0.165 Goal=   None    Shift=    0.000
 RMSDP=3.13D-07 MaxDP=2.63D-05 DE=-1.99D-08 OVMax= 5.96D-05

 Cycle  14  Pass 1  IDiag  1:
 RMSU=  1.67D-07    CP:  9.60D-01  1.91D+00  1.04D+00  6.99D-01  9.54D-01
                    CP:  7.74D-01  1.20D+00  1.36D+00  1.56D+00  1.05D+00
                    CP:  1.39D+00  1.53D+00  1.23D+00
 E= -881.758711641062     Delta-E=       -0.000000008869 Rises=F Damp=F
 DIIS: error= 1.95D-06 at cycle  14 NSaved=  14.
 NSaved=14 IEnMin=14 EnMin= -881.758711641062     IErMin=14 ErrMin= 1.95D-06
 ErrMax= 1.95D-06  0.00D+00 EMaxC= 1.00D-01 BMatC= 2.70D-09 BMatP= 7.79D-09
 IDIUse=1 WtCom= 1.00D+00 WtEn= 0.00D+00
 Coeff-Com: -0.405D-04 0.519D-04-0.408D-04-0.414D-04 0.242D-03 0.730D-03
 Coeff-Com:  0.500D-02 0.119D-01-0.789D-04-0.318D-01-0.174D+00-0.165D+00
 Coeff-Com:  0.383D+00 0.970D+00
 Coeff:     -0.405D-04 0.519D-04-0.408D-04-0.414D-04 0.242D-03 0.730D-03
 Coeff:      0.500D-02 0.119D-01-0.789D-04-0.318D-01-0.174D+00-0.165D+00
 Coeff:      0.383D+00 0.970D+00
 Gap=     0.165 Goal=   None    Shift=    0.000
 Gap=     0.165 Goal=   None    Shift=    0.000
 RMSDP=2.74D-07 MaxDP=2.41D-05 DE=-8.87D-09 OVMax= 5.41D-05

 Cycle  15  Pass 1  IDiag  1:
 RMSU=  8.53D-08    CP:  9.60D-01  1.91D+00  1.04D+00  6.99D-01  9.54D-01
                    CP:  7.74D-01  1.20D+00  1.36D+00  1.56D+00  1.07D+00
                    CP:  1.49D+00  1.81D+00  1.83D+00  1.28D+00
 E= -881.758711645120     Delta-E=       -0.000000004057 Rises=F Damp=F
 DIIS: error= 1.15D-06 at cycle  15 NSaved=  15.
 NSaved=15 IEnMin=15 EnMin= -881.758711645120     IErMin=15 ErrMin= 1.15D-06
 ErrMax= 1.15D-06  0.00D+00 EMaxC= 1.00D-01 BMatC= 1.08D-09 BMatP= 2.70D-09
 IDIUse=1 WtCom= 1.00D+00 WtEn= 0.00D+00
 Coeff-Com:  0.447D-05-0.951D-05-0.950D-05-0.603D-04-0.645D-03-0.112D-02
 Coeff-Com: -0.180D-02 0.509D-02 0.197D-01 0.346D-02-0.945D-01-0.211D+00
 Coeff-Com: -0.179D-01 0.608D+00 0.691D+00
 Coeff:      0.447D-05-0.951D-05-0.950D-05-0.603D-04-0.645D-03-0.112D-02
 Coeff:     -0.180D-02 0.509D-02 0.197D-01 0.346D-02-0.945D-01-0.211D+00
 Coeff:     -0.179D-01 0.608D+00 0.691D+00
 Gap=     0.165 Goal=   None    Shift=    0.000
 Gap=     0.165 Goal=   None    Shift=    0.000
 RMSDP=1.31D-07 MaxDP=1.20D-05 DE=-4.06D-09 OVMax= 2.63D-05

 Cycle  16  Pass 1  IDiag  1:
 RMSU=  3.40D-08    CP:  9.60D-01  1.91D+00  1.04D+00  6.99D-01  9.54D-01
                    CP:  7.74D-01  1.20D+00  1.36D+00  1.56D+00  1.07D+00
                    CP:  1.53D+00  1.97D+00  2.05D+00  1.63D+00  8.51D-01
 E= -881.758711645998     Delta-E=       -0.000000000879 Rises=F Damp=F
 DIIS: error= 3.01D-07 at cycle  16 NSaved=  16.
 NSaved=16 IEnMin=16 EnMin= -881.758711645998     IErMin=16 ErrMin= 3.01D-07
 ErrMax= 3.01D-07  0.00D+00 EMaxC= 1.00D-01 BMatC= 8.03D-11 BMatP= 1.08D-09
 IDIUse=1 WtCom= 1.00D+00 WtEn= 0.00D+00
 Coeff-Com:  0.635D-05-0.742D-05 0.502D-05-0.210D-04-0.248D-03-0.471D-03
 Coeff-Com: -0.134D-02-0.287D-03 0.561D-02 0.581D-02 0.536D-03-0.361D-01
 Coeff-Com: -0.582D-01 0.193D-01 0.190D+00 0.876D+00
 Coeff:      0.635D-05-0.742D-05 0.502D-05-0.210D-04-0.248D-03-0.471D-03
 Coeff:     -0.134D-02-0.287D-03 0.561D-02 0.581D-02 0.536D-03-0.361D-01
 Coeff:     -0.582D-01 0.193D-01 0.190D+00 0.876D+00
 Gap=     0.165 Goal=   None    Shift=    0.000
 Gap=     0.165 Goal=   None    Shift=    0.000
 RMSDP=3.69D-08 MaxDP=3.29D-06 DE=-8.79D-10 OVMax= 6.83D-06

 Cycle  17  Pass 1  IDiag  1:
 RMSU=  1.50D-08    CP:  9.60D-01  1.91D+00  1.04D+00  6.99D-01  9.54D-01
                    CP:  7.74D-01  1.20D+00  1.36D+00  1.56D+00  1.07D+00
                    CP:  1.54D+00  2.00D+00  2.13D+00  1.71D+00  1.00D+00
                    CP:  1.13D+00
 E= -881.758711646070     Delta-E=       -0.000000000072 Rises=F Damp=F
 DIIS: error= 1.48D-07 at cycle  17 NSaved=  17.
 NSaved=17 IEnMin=17 EnMin= -881.758711646070     IErMin=17 ErrMin= 1.48D-07
 ErrMax= 1.48D-07  0.00D+00 EMaxC= 1.00D-01 BMatC= 2.50D-11 BMatP= 8.03D-11
 IDIUse=1 WtCom= 1.00D+00 WtEn= 0.00D+00
 Coeff-Com:  0.271D-05-0.380D-05 0.364D-05 0.461D-05 0.511D-04 0.636D-04
 Coeff-Com: -0.137D-03-0.114D-02-0.183D-02 0.153D-02 0.189D-01 0.262D-01
 Coeff-Com: -0.211D-01-0.113D+00-0.547D-01 0.400D+00 0.744D+00
 Coeff:      0.271D-05-0.380D-05 0.364D-05 0.461D-05 0.511D-04 0.636D-04
 Coeff:     -0.137D-03-0.114D-02-0.183D-02 0.153D-02 0.189D-01 0.262D-01
 Coeff:     -0.211D-01-0.113D+00-0.547D-01 0.400D+00 0.744D+00
 Gap=     0.165 Goal=   None    Shift=    0.000
 Gap=     0.165 Goal=   None    Shift=    0.000
 RMSDP=1.47D-08 MaxDP=1.37D-06 DE=-7.21D-11 OVMax= 2.54D-06

 Cycle  18  Pass 1  IDiag  1:
 RMSU=  7.97D-09    CP:  9.60D-01  1.91D+00  1.04D+00  6.99D-01  9.54D-01
                    CP:  7.74D-01  1.20D+00  1.36D+00  1.56D+00  1.07D+00
                    CP:  1.54D+00  2.01D+00  2.14D+00  1.74D+00  1.05D+00
                    CP:  1.32D+00  1.03D+00
 E= -881.758711646092     Delta-E=       -0.000000000022 Rises=F Damp=F
 DIIS: error= 6.57D-08 at cycle  18 NSaved=  18.
 NSaved=18 IEnMin=18 EnMin= -881.758711646092     IErMin=18 ErrMin= 6.57D-08
 ErrMax= 6.57D-08  0.00D+00 EMaxC= 1.00D-01 BMatC= 5.20D-12 BMatP= 2.50D-11
 IDIUse=1 WtCom= 1.00D+00 WtEn= 0.00D+00
 Coeff-Com: -0.111D-05 0.164D-05 0.157D-07 0.663D-05 0.736D-04 0.134D-03
 Coeff-Com:  0.286D-03-0.356D-03-0.201D-02-0.814D-03 0.690D-02 0.191D-01
 Coeff-Com:  0.605D-02-0.476D-01-0.699D-01-0.612D-01 0.297D+00 0.852D+00
 Coeff:     -0.111D-05 0.164D-05 0.157D-07 0.663D-05 0.736D-04 0.134D-03
 Coeff:      0.286D-03-0.356D-03-0.201D-02-0.814D-03 0.690D-02 0.191D-01
 Coeff:      0.605D-02-0.476D-01-0.699D-01-0.612D-01 0.297D+00 0.852D+00
 Gap=     0.165 Goal=   None    Shift=    0.000
 Gap=     0.165 Goal=   None    Shift=    0.000
 RMSDP=7.58D-09 MaxDP=6.97D-07 DE=-2.21D-11 OVMax= 1.31D-06

 Error on total polarization charges =  0.00980
 SCF Done:  E(UB3LYP) =  -881.758711646     A.U. after   18 cycles
            NFock= 18  Conv=0.76D-08     -V/T= 2.0096
 <Sx>= 0.0000 <Sy>= 0.0000 <Sz>= 0.0000 <S**2>= 0.0000 S= 0.0000
 <L.S>=  0.00000000000    
 KE= 8.733730075589D+02 PE=-5.190479268210D+03 EE= 1.864816836701D+03
 Annihilation of the first spin contaminant:
 S**2 before annihilation     0.0000,   after     0.0000
 Leave Link  502 at Wed May 22 18:24:39 2019, MaxMem=   104857600 cpu:            1724.9 elap:              55.0
 (Enter /opt/software/gaussian/g16.b01/l601.exe)
 Copying SCF densities to generalized density rwf, IOpCl= 1 IROHF=0.

 **********************************************************************

            Population analysis using the SCF Density.

 **********************************************************************

 Orbital symmetries:
 Alpha Orbitals:
       Occupied  (A) (A) (A) (A) (A) (A) (A) (A) (A) (A) (A) (A)
                 (A) (A) (A) (A) (A) (A) (A) (A) (A) (A) (A) (A)
                 (A) (A) (A) (A) (A) (A) (A) (A) (A) (A) (A) (A)
                 (A) (A) (A) (A) (A) (A) (A) (A) (A) (A) (A) (A)
                 (A) (A) (A) (A) (A) (A) (A) (A) (A) (A) (A) (A)
                 (A) (A) (A) (A) (A) (A) (A) (A) (A) (A) (A) (A)
                 (A)
       Virtual   (A) (A) (A) (A) (A) (A) (A) (A) (A) (A) (A) (A)
                 (A) (A) (A) (A) (A) (A) (A) (A) (A) (A) (A) (A)
                 (A) (A) (A) (A) (A) (A) (A) (A) (A) (A) (A) (A)
                 (A) (A) (A) (A) (A) (A) (A) (A) (A) (A) (A) (A)
                 (A) (A) (A) (A) (A) (A) (A) (A) (A) (A) (A) (A)
                 (A) (A) (A) (A) (A) (A) (A) (A) (A) (A) (A) (A)
                 (A) (A) (A) (A) (A) (A) (A) (A) (A) (A) (A) (A)
                 (A) (A) (A) (A) (A) (A) (A) (A) (A) (A) (A) (A)
                 (A) (A) (A) (A) (A) (A) (A) (A) (A) (A) (A) (A)
                 (A) (A) (A) (A) (A) (A) (A) (A) (A) (A) (A) (A)
                 (A) (A) (A) (A) (A) (A) (A) (A) (A) (A) (A) (A)
                 (A) (A) (A) (A) (A) (A) (A) (A) (A) (A) (A) (A)
                 (A) (A) (A) (A) (A) (A) (A) (A) (A) (A) (A) (A)
                 (A) (A) (A) (A) (A) (A) (A) (A) (A) (A) (A) (A)
                 (A) (A) (A) (A) (A) (A) (A) (A) (A) (A) (A) (A)
                 (A) (A) (A) (A) (A) (A) (A) (A) (A) (A) (A) (A)
                 (A) (A) (A) (A) (A) (A) (A) (A) (A) (A) (A) (A)
                 (A) (A) (A) (A) (A) (A) (A) (A) (A) (A) (A) (A)
                 (A) (A) (A) (A) (A) (A) (A) (A) (A) (A) (A) (A)
                 (A) (A) (A) (A) (A) (A) (A) (A) (A) (A) (A) (A)
                 (A) (A) (A) (A) (A) (A) (A) (A) (A) (A) (A) (A)
                 (A) (A) (A) (A) (A) (A) (A) (A) (A) (A) (A) (A)
                 (A) (A) (A) (A) (A) (A) (A) (A) (A) (A) (A) (A)
                 (A) (A) (A) (A) (A) (A) (A) (A) (A) (A) (A) (A)
                 (A) (A) (A) (A) (A) (A) (A) (A) (A) (A) (A) (A)
                 (A) (A) (A) (A) (A) (A) (A) (A) (A) (A) (A) (A)
                 (A) (A) (A) (A) (A) (A) (A) (A) (A) (A) (A) (A)
                 (A) (A) (A)
 Beta  Orbitals:
       Occupied  (A) (A) (A) (A) (A) (A) (A) (A) (A) (A) (A) (A)
                 (A) (A) (A) (A) (A) (A) (A) (A) (A) (A) (A) (A)
                 (A) (A) (A) (A) (A) (A) (A) (A) (A) (A) (A) (A)
                 (A) (A) (A) (A) (A) (A) (A) (A) (A) (A) (A) (A)
                 (A) (A) (A) (A) (A) (A) (A) (A) (A) (A) (A) (A)
                 (A) (A) (A) (A) (A) (A) (A) (A) (A) (A) (A) (A)
                 (A)
       Virtual   (A) (A) (A) (A) (A) (A) (A) (A) (A) (A) (A) (A)
                 (A) (A) (A) (A) (A) (A) (A) (A) (A) (A) (A) (A)
                 (A) (A) (A) (A) (A) (A) (A) (A) (A) (A) (A) (A)
                 (A) (A) (A) (A) (A) (A) (A) (A) (A) (A) (A) (A)
                 (A) (A) (A) (A) (A) (A) (A) (A) (A) (A) (A) (A)
                 (A) (A) (A) (A) (A) (A) (A) (A) (A) (A) (A) (A)
                 (A) (A) (A) (A) (A) (A) (A) (A) (A) (A) (A) (A)
                 (A) (A) (A) (A) (A) (A) (A) (A) (A) (A) (A) (A)
                 (A) (A) (A) (A) (A) (A) (A) (A) (A) (A) (A) (A)
                 (A) (A) (A) (A) (A) (A) (A) (A) (A) (A) (A) (A)
                 (A) (A) (A) (A) (A) (A) (A) (A) (A) (A) (A) (A)
                 (A) (A) (A) (A) (A) (A) (A) (A) (A) (A) (A) (A)
                 (A) (A) (A) (A) (A) (A) (A) (A) (A) (A) (A) (A)
                 (A) (A) (A) (A) (A) (A) (A) (A) (A) (A) (A) (A)
                 (A) (A) (A) (A) (A) (A) (A) (A) (A) (A) (A) (A)
                 (A) (A) (A) (A) (A) (A) (A) (A) (A) (A) (A) (A)
                 (A) (A) (A) (A) (A) (A) (A) (A) (A) (A) (A) (A)
                 (A) (A) (A) (A) (A) (A) (A) (A) (A) (A) (A) (A)
                 (A) (A) (A) (A) (A) (A) (A) (A) (A) (A) (A) (A)
                 (A) (A) (A) (A) (A) (A) (A) (A) (A) (A) (A) (A)
                 (A) (A) (A) (A) (A) (A) (A) (A) (A) (A) (A) (A)
                 (A) (A) (A) (A) (A) (A) (A) (A) (A) (A) (A) (A)
                 (A) (A) (A) (A) (A) (A) (A) (A) (A) (A) (A) (A)
                 (A) (A) (A) (A) (A) (A) (A) (A) (A) (A) (A) (A)
                 (A) (A) (A) (A) (A) (A) (A) (A) (A) (A) (A) (A)
                 (A) (A) (A) (A) (A) (A) (A) (A) (A) (A) (A) (A)
                 (A) (A) (A) (A) (A) (A) (A) (A) (A) (A) (A) (A)
                 (A) (A) (A)
 The electronic state is 1-A.
 Alpha  occ. eigenvalues --  -19.14930 -19.14675 -14.32312 -14.32135 -10.28641
 Alpha  occ. eigenvalues --  -10.28477 -10.20321 -10.20314 -10.20269 -10.20261
 Alpha  occ. eigenvalues --  -10.20183 -10.20160 -10.19918 -10.19870 -10.19752
 Alpha  occ. eigenvalues --  -10.19744 -10.19736 -10.19673 -10.18645 -10.18507
 Alpha  occ. eigenvalues --   -1.04567  -1.04279  -0.92381  -0.86436  -0.86128
 Alpha  occ. eigenvalues --   -0.77599  -0.77535  -0.75454  -0.75253  -0.73260
 Alpha  occ. eigenvalues --   -0.73044  -0.72922  -0.63260  -0.63134  -0.60962
 Alpha  occ. eigenvalues --   -0.60891  -0.55542  -0.55404  -0.51582  -0.51214
 Alpha  occ. eigenvalues --   -0.48118  -0.47462  -0.46695  -0.46646  -0.46305
 Alpha  occ. eigenvalues --   -0.46145  -0.45617  -0.44644  -0.44576  -0.43464
 Alpha  occ. eigenvalues --   -0.42763  -0.42689  -0.42655  -0.41991  -0.41847
 Alpha  occ. eigenvalues --   -0.39079  -0.39029  -0.38434  -0.37744  -0.36004
 Alpha  occ. eigenvalues --   -0.35981  -0.35684  -0.35164  -0.34730  -0.34686
 Alpha  occ. eigenvalues --   -0.26956  -0.26557  -0.26318  -0.26054  -0.25694
 Alpha  occ. eigenvalues --   -0.25094  -0.24252  -0.23079
 Alpha virt. eigenvalues --   -0.06591  -0.05797  -0.01268  -0.00592   0.03583
 Alpha virt. eigenvalues --    0.03695   0.07665   0.09752   0.09948   0.11056
 Alpha virt. eigenvalues --    0.12183   0.12800   0.14770   0.15190   0.15317
 Alpha virt. eigenvalues --    0.15688   0.15979   0.16491   0.16691   0.17563
 Alpha virt. eigenvalues --    0.17955   0.18423   0.19356   0.19660   0.19974
 Alpha virt. eigenvalues --    0.21046   0.21669   0.22516   0.22565   0.23533
 Alpha virt. eigenvalues --    0.25364   0.27612   0.27948   0.29873   0.30053
 Alpha virt. eigenvalues --    0.30481   0.30674   0.31869   0.32385   0.35377
 Alpha virt. eigenvalues --    0.36471   0.36967   0.37500   0.41375   0.45563
 Alpha virt. eigenvalues --    0.48009   0.48800   0.49660   0.51330   0.51504
 Alpha virt. eigenvalues --    0.51626   0.52500   0.53291   0.53519   0.54764
 Alpha virt. eigenvalues --    0.55446   0.55541   0.56666   0.57201   0.59007
 Alpha virt. eigenvalues --    0.59190   0.59667   0.59890   0.60266   0.60718
 Alpha virt. eigenvalues --    0.60995   0.61659   0.64664   0.65059   0.65878
 Alpha virt. eigenvalues --    0.66608   0.67395   0.68299   0.68670   0.69032
 Alpha virt. eigenvalues --    0.69708   0.70410   0.71560   0.72009   0.73419
 Alpha virt. eigenvalues --    0.74776   0.75355   0.75531   0.75895   0.77350
 Alpha virt. eigenvalues --    0.78717   0.79475   0.80349   0.80723   0.81061
 Alpha virt. eigenvalues --    0.81779   0.81894   0.82181   0.82786   0.83047
 Alpha virt. eigenvalues --    0.83429   0.84468   0.85642   0.86488   0.87839
 Alpha virt. eigenvalues --    0.88449   0.88648   0.89750   0.90855   0.92412
 Alpha virt. eigenvalues --    0.93207   0.93578   0.93753   0.94566   0.96434
 Alpha virt. eigenvalues --    0.97139   0.98281   0.99359   1.00777   1.01625
 Alpha virt. eigenvalues --    1.01721   1.03135   1.03810   1.05921   1.07032
 Alpha virt. eigenvalues --    1.08158   1.09487   1.10706   1.13088   1.13744
 Alpha virt. eigenvalues --    1.14473   1.16143   1.17229   1.19269   1.20024
 Alpha virt. eigenvalues --    1.23094   1.24510   1.24795   1.26461   1.26642
 Alpha virt. eigenvalues --    1.27690   1.30769   1.32585   1.32822   1.33618
 Alpha virt. eigenvalues --    1.35296   1.35597   1.38220   1.38565   1.38967
 Alpha virt. eigenvalues --    1.39658   1.40004   1.40283   1.40840   1.41179
 Alpha virt. eigenvalues --    1.41535   1.42692   1.42812   1.44075   1.45583
 Alpha virt. eigenvalues --    1.46387   1.47459   1.49353   1.52686   1.59060
 Alpha virt. eigenvalues --    1.59826   1.68340   1.68895   1.71579   1.72905
 Alpha virt. eigenvalues --    1.74928   1.76273   1.76930   1.77478   1.77967
 Alpha virt. eigenvalues --    1.78898   1.81023   1.82384   1.82802   1.84791
 Alpha virt. eigenvalues --    1.86419   1.86673   1.87425   1.87923   1.88883
 Alpha virt. eigenvalues --    1.91351   1.91984   1.92891   1.93248   1.93935
 Alpha virt. eigenvalues --    1.94443   1.95153   1.95820   1.96899   1.97267
 Alpha virt. eigenvalues --    1.98521   2.00131   2.00682   2.01771   2.02843
 Alpha virt. eigenvalues --    2.03507   2.03812   2.04745   2.07170   2.07372
 Alpha virt. eigenvalues --    2.08260   2.08619   2.09278   2.10263   2.11733
[...]
 Integral symmetry usage will be decided dynamically.
 UHF open shell SCF:
 Using DIIS extrapolation, IDIIS=  1040.
 NGot=   104857600 LenX=   104520454 LenY=   104360013
 Requested convergence on RMS density matrix=1.00D-08 within 128 cycles.
 Requested convergence on MAX density matrix=1.00D-06.
 Requested convergence on             energy=1.00D-06.
 No special actions if energy rises.
 Fock matrices will be formed incrementally for  20 cycles.

 Cycle   1  Pass 1  IDiag  1:
 FoFJK:  IHMeth= 1 ICntrl=       0 DoSepK=F KAlg= 0 I1Cent=           0 FoldK=F
 IRaf= 800000000 NMat=       1 IRICut=       1 DoRegI=T DoRafI=F ISym2E= 0 IDoP0=0 IntGTp=1.
 FoFCou: FMM=F IPFlag=           0 FMFlag=      100000 FMFlg1=           0
         NFxFlg=           0 DoJE=F BraDBF=F KetDBF=F FulRan=T
         wScrn=  0.000000 ICntrl=         0 IOpCl=  1 I1Cent=           0 NGrid=           0
         NMat0=    1 NMatS0=      1 NMatT0=    0 NMatD0=    1 NMtDS0=    0 NMtDT0=    0
 Symmetry not used in FoFCou.
 Inv3:  Mode=1 IEnd=    22473507.
 Iteration    1 A*A^-1 deviation from unit magnitude is 3.66D-15 for    587.
 Iteration    1 A*A^-1 deviation from orthogonality  is 1.82D-15 for   2531   2401.
 Iteration    1 A^-1*A deviation from unit magnitude is 3.66D-15 for    587.
 Iteration    1 A^-1*A deviation from orthogonality  is 4.49D-14 for   1900   1869.
 E= -881.029476004956    
 DIIS: error= 2.51D-02 at cycle   1 NSaved=   1.
 NSaved= 1 IEnMin= 1 EnMin= -881.029476004956     IErMin= 1 ErrMin= 2.51D-02
 ErrMax= 2.51D-02  0.00D+00 EMaxC= 1.00D-01 BMatC= 2.21D+00 BMatP= 2.21D+00
 IDIUse=3 WtCom= 7.49D-01 WtEn= 2.51D-01
 Coeff-Com:  0.100D+01
 Coeff-En:   0.100D+01
 Coeff:      0.100D+01
 Gap=     0.020 Goal=   None    Shift=    0.000
 Gap=     0.027 Goal=   None    Shift=    0.000
 GapD=    0.020 DampG=0.250 DampE=0.500 DampFc=0.2500 IDamp=-1.
 Damping current iteration by 2.50D-01
 RMSDP=4.65D-03 MaxDP=1.77D-01              OVMax= 4.13D-01

 Cycle   2  Pass 1  IDiag  1:
 RMSU=  1.15D-03    CP:  9.88D-01
 E= -881.282042293891     Delta-E=       -0.252566288936 Rises=F Damp=T
 DIIS: error= 1.47D-02 at cycle   2 NSaved=   2.
 NSaved= 2 IEnMin= 2 EnMin= -881.282042293891     IErMin= 2 ErrMin= 1.47D-02
 ErrMax= 1.47D-02  0.00D+00 EMaxC= 1.00D-01 BMatC= 5.62D-01 BMatP= 2.21D+00
 IDIUse=3 WtCom= 8.53D-01 WtEn= 1.47D-01
 Coeff-Com: -0.783D+00 0.178D+01
 Coeff-En:   0.000D+00 0.100D+01
 Coeff:     -0.668D+00 0.167D+01
 Gap=     0.197 Goal=   None    Shift=    0.000
 Gap=     0.184 Goal=   None    Shift=    0.000
 RMSDP=1.98D-03 MaxDP=7.72D-02 DE=-2.53D-01 OVMax= 1.41D-01

 Cycle   3  Pass 1  IDiag  1:
 RMSU=  1.52D-03    CP:  9.58D-01  2.04D+00
 E= -881.725997136984     Delta-E=       -0.443954843093 Rises=F Damp=F
 DIIS: error= 7.23D-03 at cycle   3 NSaved=   3.
 NSaved= 3 IEnMin= 3 EnMin= -881.725997136984     IErMin= 3 ErrMin= 7.23D-03
 ErrMax= 7.23D-03  0.00D+00 EMaxC= 1.00D-01 BMatC= 1.26D-01 BMatP= 5.62D-01
 IDIUse=3 WtCom= 9.28D-01 WtEn= 7.23D-02
 Coeff-Com: -0.337D+00 0.786D+00 0.551D+00
 Coeff-En:   0.000D+00 0.000D+00 0.100D+01
 Coeff:     -0.313D+00 0.730D+00 0.583D+00
 Gap=     0.182 Goal=   None    Shift=    0.000
 Gap=     0.183 Goal=   None    Shift=    0.000
 RMSDP=7.17D-04 MaxDP=4.74D-02 DE=-4.44D-01 OVMax= 5.37D-02

 Cycle   4  Pass 1  IDiag  1:
 RMSU=  7.08D-04    CP:  9.62D-01  1.98D+00  9.49D-01
 E= -881.744750398309     Delta-E=       -0.018753261325 Rises=F Damp=F
 DIIS: error= 5.40D-03 at cycle   4 NSaved=   4.
 NSaved= 4 IEnMin= 4 EnMin= -881.744750398309     IErMin= 4 ErrMin= 5.40D-03
 ErrMax= 5.40D-03  0.00D+00 EMaxC= 1.00D-01 BMatC= 6.16D-02 BMatP= 1.26D-01
 IDIUse=3 WtCom= 9.46D-01 WtEn= 5.40D-02
 Coeff-Com:  0.329D-02 0.564D-01 0.394D+00 0.547D+00
 Coeff-En:   0.000D+00 0.000D+00 0.301D+00 0.699D+00
 Coeff:      0.311D-02 0.534D-01 0.389D+00 0.555D+00
 Gap=     0.164 Goal=   None    Shift=    0.000
 Gap=     0.164 Goal=   None    Shift=    0.000
 RMSDP=3.38D-04 MaxDP=2.25D-02 DE=-1.88D-02 OVMax= 2.75D-02

 Cycle   5  Pass 1  IDiag  1:
 RMSU=  1.83D-04    CP:  9.60D-01  1.93D+00  1.02D+00  6.41D-01
 E= -881.756798752387     Delta-E=       -0.012048354078 Rises=F Damp=F
 DIIS: error= 7.07D-04 at cycle   5 NSaved=   5.
 NSaved= 5 IEnMin= 5 EnMin= -881.756798752387     IErMin= 5 ErrMin= 7.07D-04
 ErrMax= 7.07D-04  0.00D+00 EMaxC= 1.00D-01 BMatC= 1.75D-03 BMatP= 6.16D-02
 IDIUse=3 WtCom= 9.93D-01 WtEn= 7.07D-03
 Coeff-Com:  0.211D-01-0.332D-01 0.919D-01 0.211D+00 0.710D+00
 Coeff-En:   0.000D+00 0.000D+00 0.000D+00 0.000D+00 0.100D+01
 Coeff:      0.209D-01-0.330D-01 0.913D-01 0.209D+00 0.712D+00
 Gap=     0.162 Goal=   None    Shift=    0.000
 Gap=     0.162 Goal=   None    Shift=    0.000
 RMSDP=8.55D-05 MaxDP=3.88D-03 DE=-1.20D-02 OVMax= 7.58D-03

 Cycle   6  Pass 1  IDiag  1:
 RMSU=  6.28D-05    CP:  9.60D-01  1.93D+00  1.04D+00  7.06D-01  8.70D-01
 E= -881.757089689194     Delta-E=       -0.000290936807 Rises=F Damp=F
 DIIS: error= 5.57D-04 at cycle   6 NSaved=   6.
 NSaved= 6 IEnMin= 6 EnMin= -881.757089689194     IErMin= 6 ErrMin= 5.57D-04
 ErrMax= 5.57D-04  0.00D+00 EMaxC= 1.00D-01 BMatC= 5.96D-04 BMatP= 1.75D-03
 IDIUse=3 WtCom= 9.94D-01 WtEn= 5.57D-03
 Coeff-Com:  0.359D-02-0.803D-02 0.175D-01 0.632D-01 0.421D+00 0.502D+00
 Coeff-En:   0.000D+00 0.000D+00 0.000D+00 0.000D+00 0.243D+00 0.757D+00
 Coeff:      0.357D-02-0.798D-02 0.174D-01 0.628D-01 0.420D+00 0.504D+00
 Gap=     0.164 Goal=   None    Shift=    0.000
 Gap=     0.164 Goal=   None    Shift=    0.000
 RMSDP=3.59D-05 MaxDP=1.86D-03 DE=-2.91D-04 OVMax= 4.30D-03

 Cycle   7  Pass 1  IDiag  1:
 RMSU=  2.39D-05    CP:  9.60D-01  1.94D+00  1.04D+00  6.96D-01  9.39D-01
                    CP:  6.50D-01
 E= -881.757243911977     Delta-E=       -0.000154222783 Rises=F Damp=F
 DIIS: error= 1.17D-04 at cycle   7 NSaved=   7.
 NSaved= 7 IEnMin= 7 EnMin= -881.757243911977     IErMin= 7 ErrMin= 1.17D-04
 ErrMax= 1.17D-04  0.00D+00 EMaxC= 1.00D-01 BMatC= 3.81D-05 BMatP= 5.96D-04
 IDIUse=3 WtCom= 9.99D-01 WtEn= 1.17D-03
 Coeff-Com: -0.288D-02 0.378D-02-0.105D-02 0.716D-02 0.130D+00 0.240D+00
 Coeff-Com:  0.623D+00
 Coeff-En:   0.000D+00 0.000D+00 0.000D+00 0.000D+00 0.000D+00 0.000D+00
 Coeff-En:   0.100D+01
 Coeff:     -0.288D-02 0.377D-02-0.105D-02 0.715D-02 0.130D+00 0.239D+00
 Coeff:      0.624D+00
 Gap=     0.164 Goal=   None    Shift=    0.000
 Gap=     0.165 Goal=   None    Shift=    0.000
 RMSDP=1.26D-05 MaxDP=8.03D-04 DE=-1.54D-04 OVMax= 1.46D-03

 Cycle   8  Pass 1  IDiag  1:
 RMSU=  1.13D-05    CP:  9.60D-01  1.94D+00  1.04D+00  6.95D-01  9.47D-01
                    CP:  7.24D-01  8.99D-01
 E= -881.757256270176     Delta-E=       -0.000012358199 Rises=F Damp=F
 DIIS: error= 5.63D-05 at cycle   8 NSaved=   8.
 NSaved= 8 IEnMin= 8 EnMin= -881.757256270176     IErMin= 8 ErrMin= 5.63D-05
 ErrMax= 5.63D-05  0.00D+00 EMaxC= 1.00D-01 BMatC= 8.38D-06 BMatP= 3.81D-05
 IDIUse=1 WtCom= 1.00D+00 WtEn= 0.00D+00
 Coeff-Com: -0.160D-02 0.215D-02-0.273D-02-0.463D-02 0.574D-02 0.436D-01
 Coeff-Com:  0.329D+00 0.629D+00
 Coeff:     -0.160D-02 0.215D-02-0.273D-02-0.463D-02 0.574D-02 0.436D-01
 Coeff:      0.329D+00 0.629D+00
 Gap=     0.164 Goal=   None    Shift=    0.000
 Gap=     0.164 Goal=   None    Shift=    0.000
 RMSDP=6.59D-06 MaxDP=6.18D-04 DE=-1.24D-05 OVMax= 1.07D-03

 Cycle   9  Pass 1  IDiag  1:
 RMSU=  4.52D-06    CP:  9.60D-01  1.94D+00  1.04D+00  6.96D-01  9.58D-01
                    CP:  7.46D-01  1.06D+00  9.83D-01
 E= -881.757260097317     Delta-E=       -0.000003827141 Rises=F Damp=F
 DIIS: error= 3.27D-05 at cycle   9 NSaved=   9.
 NSaved= 9 IEnMin= 9 EnMin= -881.757260097317     IErMin= 9 ErrMin= 3.27D-05
 ErrMax= 3.27D-05  0.00D+00 EMaxC= 1.00D-01 BMatC= 1.54D-06 BMatP= 8.38D-06
 IDIUse=1 WtCom= 1.00D+00 WtEn= 0.00D+00
 Coeff-Com:  0.209D-03-0.221D-03-0.785D-03-0.373D-02-0.322D-01-0.443D-01
 Coeff-Com: -0.340D-01 0.237D+00 0.878D+00
 Coeff:      0.209D-03-0.221D-03-0.785D-03-0.373D-02-0.322D-01-0.443D-01
 Coeff:     -0.340D-01 0.237D+00 0.878D+00
 Gap=     0.164 Goal=   None    Shift=    0.000
 Gap=     0.164 Goal=   None    Shift=    0.000
 RMSDP=5.04D-06 MaxDP=4.80D-04 DE=-3.83D-06 OVMax= 9.08D-04

 Cycle  10  Pass 1  IDiag  1:
 RMSU=  2.48D-06    CP:  9.60D-01  1.94D+00  1.04D+00  6.96D-01  9.64D-01
                    CP:  7.67D-01  1.18D+00  1.23D+00  1.16D+00
 E= -881.757261263007     Delta-E=       -0.000001165690 Rises=F Damp=F
 DIIS: error= 2.89D-05 at cycle  10 NSaved=  10.
 NSaved=10 IEnMin=10 EnMin= -881.757261263007     IErMin=10 ErrMin= 2.89D-05
 ErrMax= 2.89D-05  0.00D+00 EMaxC= 1.00D-01 BMatC= 1.20D-06 BMatP= 1.54D-06
 IDIUse=1 WtCom= 1.00D+00 WtEn= 0.00D+00
 Coeff-Com:  0.620D-03-0.736D-03 0.171D-03-0.162D-02-0.269D-01-0.462D-01
 Coeff-Com: -0.127D+00-0.264D-01 0.656D+00 0.571D+00
 Coeff:      0.620D-03-0.736D-03 0.171D-03-0.162D-02-0.269D-01-0.462D-01
 Coeff:     -0.127D+00-0.264D-01 0.656D+00 0.571D+00
 Gap=     0.164 Goal=   None    Shift=    0.000
 Gap=     0.164 Goal=   None    Shift=    0.000
 RMSDP=2.74D-06 MaxDP=2.74D-04 DE=-1.17D-06 OVMax= 4.61D-04

 Cycle  11  Pass 1  IDiag  1:
 RMSU=  1.12D-06    CP:  9.60D-01  1.94D+00  1.04D+00  6.96D-01  9.65D-01
                    CP:  7.80D-01  1.22D+00  1.36D+00  1.45D+00  7.49D-01
 E= -881.757261719261     Delta-E=       -0.000000456254 Rises=F Damp=F
 DIIS: error= 8.43D-06 at cycle  11 NSaved=  11.
 NSaved=11 IEnMin=11 EnMin= -881.757261719261     IErMin=11 ErrMin= 8.43D-06
 ErrMax= 8.43D-06  0.00D+00 EMaxC= 1.00D-01 BMatC= 1.03D-07 BMatP= 1.20D-06
 IDIUse=1 WtCom= 1.00D+00 WtEn= 0.00D+00
 Coeff-Com:  0.301D-03-0.391D-03 0.190D-03-0.129D-03-0.684D-02-0.131D-01
 Coeff-Com: -0.503D-01-0.529D-01 0.158D+00 0.269D+00 0.697D+00
 Coeff:      0.301D-03-0.391D-03 0.190D-03-0.129D-03-0.684D-02-0.131D-01
 Coeff:     -0.503D-01-0.529D-01 0.158D+00 0.269D+00 0.697D+00
 Gap=     0.164 Goal=   None    Shift=    0.000
 Gap=     0.164 Goal=   None    Shift=    0.000
 RMSDP=8.39D-07 MaxDP=8.93D-05 DE=-4.56D-07 OVMax= 1.15D-04

 Cycle  12  Pass 1  IDiag  1:
 RMSU=  5.02D-07    CP:  9.60D-01  1.94D+00  1.04D+00  6.96D-01  9.66D-01
                    CP:  7.82D-01  1.24D+00  1.38D+00  1.53D+00  9.05D-01
                    CP:  9.88D-01
 E= -881.757261772936     Delta-E=       -0.000000053675 Rises=F Damp=F
 DIIS: error= 6.14D-06 at cycle  12 NSaved=  12.
 NSaved=12 IEnMin=12 EnMin= -881.757261772936     IErMin=12 ErrMin= 6.14D-06
 ErrMax= 6.14D-06  0.00D+00 EMaxC= 1.00D-01 BMatC= 2.81D-08 BMatP= 1.03D-07
 IDIUse=1 WtCom= 1.00D+00 WtEn= 0.00D+00
 Coeff-Com:  0.639D-05-0.225D-04 0.536D-04 0.323D-03 0.295D-02 0.440D-02
 Coeff-Com:  0.522D-02-0.215D-01-0.743D-01 0.261D-02 0.355D+00 0.725D+00
 Coeff:      0.639D-05-0.225D-04 0.536D-04 0.323D-03 0.295D-02 0.440D-02
 Coeff:      0.522D-02-0.215D-01-0.743D-01 0.261D-02 0.355D+00 0.725D+00
 Gap=     0.164 Goal=   None    Shift=    0.000
 Gap=     0.164 Goal=   None    Shift=    0.000
 RMSDP=4.43D-07 MaxDP=3.92D-05 DE=-5.37D-08 OVMax= 7.80D-05

 Cycle  13  Pass 1  IDiag  1:
 RMSU=  2.89D-07    CP:  9.60D-01  1.94D+00  1.04D+00  6.96D-01  9.66D-01
                    CP:  7.83D-01  1.24D+00  1.39D+00  1.55D+00  9.54D-01
                    CP:  1.22D+00  1.12D+00
 E= -881.757261793427     Delta-E=       -0.000000020490 Rises=F Damp=F
 DIIS: error= 3.19D-06 at cycle  13 NSaved=  13.
 NSaved=13 IEnMin=13 EnMin= -881.757261793427     IErMin=13 ErrMin= 3.19D-06
 ErrMax= 3.19D-06  0.00D+00 EMaxC= 1.00D-01 BMatC= 7.75D-09 BMatP= 2.81D-08
 IDIUse=1 WtCom= 1.00D+00 WtEn= 0.00D+00
 Coeff-Com: -0.955D-04 0.134D-03-0.294D-04 0.137D-03 0.271D-02 0.482D-02
 Coeff-Com:  0.153D-01 0.642D-02-0.698D-01-0.702D-01-0.450D-01 0.306D+00
 Coeff-Com:  0.849D+00
 Coeff:     -0.955D-04 0.134D-03-0.294D-04 0.137D-03 0.271D-02 0.482D-02
 Coeff:      0.153D-01 0.642D-02-0.698D-01-0.702D-01-0.450D-01 0.306D+00
 Coeff:      0.849D+00
 Gap=     0.164 Goal=   None    Shift=    0.000
 Gap=     0.164 Goal=   None    Shift=    0.000
 RMSDP=3.20D-07 MaxDP=2.53D-05 DE=-2.05D-08 OVMax= 5.60D-05

 Cycle  14  Pass 1  IDiag  1:
 RMSU=  1.68D-07    CP:  9.60D-01  1.94D+00  1.04D+00  6.96D-01  9.66D-01
                    CP:  7.83D-01  1.24D+00  1.39D+00  1.56D+00  9.84D-01
                    CP:  1.34D+00  1.52D+00  1.27D+00
 E= -881.757261802660     Delta-E=       -0.000000009234 Rises=F Damp=F
 DIIS: error= 1.84D-06 at cycle  14 NSaved=  14.
 NSaved=14 IEnMin=14 EnMin= -881.757261802660     IErMin=14 ErrMin= 1.84D-06
 ErrMax= 1.84D-06  0.00D+00 EMaxC= 1.00D-01 BMatC= 2.77D-09 BMatP= 7.75D-09
 IDIUse=1 WtCom= 1.00D+00 WtEn= 0.00D+00
 Coeff-Com: -0.411D-04 0.527D-04-0.419D-04-0.449D-04 0.196D-03 0.583D-03
 Coeff-Com:  0.485D-02 0.119D-01-0.222D-02-0.354D-01-0.174D+00-0.176D+00
 Coeff-Com:  0.392D+00 0.979D+00
 Coeff:     -0.411D-04 0.527D-04-0.419D-04-0.449D-04 0.196D-03 0.583D-03
 Coeff:      0.485D-02 0.119D-01-0.222D-02-0.354D-01-0.174D+00-0.176D+00
 Coeff:      0.392D+00 0.979D+00
 Gap=     0.164 Goal=   None    Shift=    0.000
 Gap=     0.164 Goal=   None    Shift=    0.000
 RMSDP=2.82D-07 MaxDP=2.39D-05 DE=-9.23D-09 OVMax= 5.42D-05

 Cycle  15  Pass 1  IDiag  1:
 RMSU=  8.51D-08    CP:  9.60D-01  1.94D+00  1.04D+00  6.96D-01  9.66D-01
                    CP:  7.83D-01  1.24D+00  1.39D+00  1.57D+00  1.01D+00
                    CP:  1.45D+00  1.80D+00  1.88D+00  1.29D+00
 E= -881.757261806910     Delta-E=       -0.000000004250 Rises=F Damp=F
 DIIS: error= 1.09D-06 at cycle  15 NSaved=  15.
 NSaved=15 IEnMin=15 EnMin= -881.757261806910     IErMin=15 ErrMin= 1.09D-06
 ErrMax= 1.09D-06  0.00D+00 EMaxC= 1.00D-01 BMatC= 1.07D-09 BMatP= 2.77D-09
 IDIUse=1 WtCom= 1.00D+00 WtEn= 0.00D+00
 Coeff-Com:  0.504D-05-0.105D-04-0.976D-05-0.598D-04-0.655D-03-0.106D-02
 Coeff-Com: -0.178D-02 0.539D-02 0.193D-01-0.769D-03-0.934D-01-0.205D+00
 Coeff-Com: -0.159D-01 0.604D+00 0.690D+00
 Coeff:      0.504D-05-0.105D-04-0.976D-05-0.598D-04-0.655D-03-0.106D-02
 Coeff:     -0.178D-02 0.539D-02 0.193D-01-0.769D-03-0.934D-01-0.205D+00
 Coeff:     -0.159D-01 0.604D+00 0.690D+00
 Gap=     0.164 Goal=   None    Shift=    0.000
 Gap=     0.164 Goal=   None    Shift=    0.000
 RMSDP=1.31D-07 MaxDP=1.15D-05 DE=-4.25D-09 OVMax= 2.54D-05

 Cycle  16  Pass 1  IDiag  1:
 RMSU=  3.38D-08    CP:  9.60D-01  1.94D+00  1.04D+00  6.96D-01  9.66D-01
                    CP:  7.83D-01  1.24D+00  1.39D+00  1.57D+00  1.01D+00
                    CP:  1.48D+00  1.96D+00  2.10D+00  1.62D+00  8.50D-01
 E= -881.757261807776     Delta-E=       -0.000000000866 Rises=F Damp=F
 DIIS: error= 3.06D-07 at cycle  16 NSaved=  16.
 NSaved=16 IEnMin=16 EnMin= -881.757261807776     IErMin=16 ErrMin= 3.06D-07
 ErrMax= 3.06D-07  0.00D+00 EMaxC= 1.00D-01 BMatC= 8.02D-11 BMatP= 1.07D-09
 IDIUse=1 WtCom= 1.00D+00 WtEn= 0.00D+00
 Coeff-Com:  0.641D-05-0.737D-05 0.498D-05-0.216D-04-0.256D-03-0.438D-03
 Coeff-Com: -0.133D-02-0.133D-03 0.598D-02 0.526D-02 0.747D-04-0.339D-01
 Coeff-Com: -0.604D-01 0.217D-01 0.193D+00 0.870D+00
 Coeff:      0.641D-05-0.737D-05 0.498D-05-0.216D-04-0.256D-03-0.438D-03
 Coeff:     -0.133D-02-0.133D-03 0.598D-02 0.526D-02 0.747D-04-0.339D-01
 Coeff:     -0.604D-01 0.217D-01 0.193D+00 0.870D+00
 Gap=     0.164 Goal=   None    Shift=    0.000
 Gap=     0.164 Goal=   None    Shift=    0.000
 RMSDP=3.66D-08 MaxDP=3.14D-06 DE=-8.66D-10 OVMax= 6.49D-06

 Cycle  17  Pass 1  IDiag  1:
 RMSU=  1.46D-08    CP:  9.60D-01  1.94D+00  1.04D+00  6.96D-01  9.66D-01
                    CP:  7.83D-01  1.24D+00  1.39D+00  1.57D+00  1.01D+00
                    CP:  1.49D+00  1.99D+00  2.18D+00  1.71D+00  9.97D-01
                    CP:  1.12D+00
 E= -881.757261807850     Delta-E=       -0.000000000074 Rises=F Damp=F
 DIIS: error= 1.19D-07 at cycle  17 NSaved=  17.
 NSaved=17 IEnMin=17 EnMin= -881.757261807850     IErMin=17 ErrMin= 1.19D-07
 ErrMax= 1.19D-07  0.00D+00 EMaxC= 1.00D-01 BMatC= 2.39D-11 BMatP= 8.02D-11
 IDIUse=1 WtCom= 1.00D+00 WtEn= 0.00D+00
 Coeff-Com:  0.270D-05-0.385D-05 0.359D-05 0.461D-05 0.526D-04 0.665D-04
 Coeff-Com: -0.129D-03-0.112D-02-0.162D-02 0.212D-02 0.180D-01 0.254D-01
 Coeff-Com: -0.221D-01-0.108D+00-0.507D-01 0.389D+00 0.749D+00
 Coeff:      0.270D-05-0.385D-05 0.359D-05 0.461D-05 0.526D-04 0.665D-04
 Coeff:     -0.129D-03-0.112D-02-0.162D-02 0.212D-02 0.180D-01 0.254D-01
 Coeff:     -0.221D-01-0.108D+00-0.507D-01 0.389D+00 0.749D+00
 Gap=     0.164 Goal=   None    Shift=    0.000
 Gap=     0.164 Goal=   None    Shift=    0.000
 RMSDP=1.42D-08 MaxDP=1.29D-06 DE=-7.41D-11 OVMax= 2.17D-06

 Cycle  18  Pass 1  IDiag  1:
 RMSU=  7.78D-09    CP:  9.60D-01  1.94D+00  1.04D+00  6.96D-01  9.66D-01
                    CP:  7.83D-01  1.24D+00  1.39D+00  1.57D+00  1.02D+00
                    CP:  1.50D+00  2.00D+00  2.19D+00  1.73D+00  1.04D+00
                    CP:  1.31D+00  1.04D+00
 E= -881.757261807875     Delta-E=       -0.000000000025 Rises=F Damp=F
 DIIS: error= 5.22D-08 at cycle  18 NSaved=  18.
 NSaved=18 IEnMin=18 EnMin= -881.757261807875     IErMin=18 ErrMin= 5.22D-08
 ErrMax= 5.22D-08  0.00D+00 EMaxC= 1.00D-01 BMatC= 4.76D-12 BMatP= 2.39D-11
 IDIUse=1 WtCom= 1.00D+00 WtEn= 0.00D+00
 Coeff-Com: -0.126D-05 0.189D-05-0.636D-07 0.639D-05 0.723D-04 0.121D-03
 Coeff-Com:  0.286D-03-0.346D-03-0.193D-02-0.522D-03 0.609D-02 0.172D-01
 Coeff-Com:  0.691D-02-0.431D-01-0.670D-01-0.743D-01 0.283D+00 0.873D+00
 Coeff:     -0.126D-05 0.189D-05-0.636D-07 0.639D-05 0.723D-04 0.121D-03
 Coeff:      0.286D-03-0.346D-03-0.193D-02-0.522D-03 0.609D-02 0.172D-01
 Coeff:      0.691D-02-0.431D-01-0.670D-01-0.743D-01 0.283D+00 0.873D+00
 Gap=     0.164 Goal=   None    Shift=    0.000
 Gap=     0.164 Goal=   None    Shift=    0.000
 RMSDP=7.36D-09 MaxDP=6.59D-07 DE=-2.52D-11 OVMax= 1.14D-06

 Error on total polarization charges =  0.00980
 SCF Done:  E(UB3LYP) =  -881.757261808     A.U. after   18 cycles
            NFock= 18  Conv=0.74D-08     -V/T= 2.0096
 <Sx>= 0.0000 <Sy>= 0.0000 <Sz>= 0.0000 <S**2>= 0.0000 S= 0.0000
 <L.S>=  0.00000000000    
 KE= 8.734060926922D+02 PE=-5.194591894363D+03 EE= 1.866856965875D+03
 Annihilation of the first spin contaminant:
 S**2 before annihilation     0.0000,   after    -0.0000
 Leave Link  502 at Wed May 22 18:32:17 2019, MaxMem=   104857600 cpu:            1725.8 elap:              55.0
 (Enter /opt/software/gaussian/g16.b01/l701.exe)
 ... and contract with generalized density number  0.
 Compute integral first derivatives.
 R6Disp: Adding Grimme-D3 dispersion energy 1st derivatives to the gradient.
 PrsmSu:  requested number of processors reduced to:  28 ShMem   1 Linda.
 D1PCM: PCM CHGder 1st derivatives, ID1Alg=3 FixD1E=F DoIter=F DoCFld=F I1PDM=0.
 GePol: Maximum number of non-zero 1st derivatives   =     207
 CoulSu:  requested number of processors reduced to:  27 ShMem   1 Linda.
 CoulSu:  requested number of processors reduced to:  28 ShMem   1 Linda.
 Leave Link  701 at Wed May 22 18:32:19 2019, MaxMem=   104857600 cpu:              42.6 elap:               1.4
 (Enter /opt/software/gaussian/g16.b01/l702.exe)
 L702 exits ... SP integral derivatives will be done elsewhere.
 Leave Link  702 at Wed May 22 18:32:19 2019, MaxMem=   104857600 cpu:               0.6 elap:               0.0
 (Enter /opt/software/gaussian/g16.b01/l703.exe)
 Integral derivatives from FoFJK, PRISM(SPDF).
 Compute integral first derivatives, UseDBF=F ICtDFT=           0.
 Calling FoFJK, ICntrl=      2127 FMM=F ISym2X=0 I1Cent= 0 IOpClX= 1 NMat=1 NMatS=1 NMatT=0.
 FoFJK:  IHMeth= 1 ICntrl=    2127 DoSepK=F KAlg= 0 I1Cent=           0 FoldK=F
 IRaf=         0 NMat=       1 IRICut=       1 DoRegI=T DoRafI=F ISym2E= 0 IDoP0=0 IntGTp=1.
 FoFCou: FMM=F IPFlag=           0 FMFlag=      100000 FMFlg1=         800
         NFxFlg=           0 DoJE=F BraDBF=F KetDBF=F FulRan=T
         wScrn=  0.000000 ICntrl=      2127 IOpCl=  1 I1Cent=           0 NGrid=           0
         NMat0=    1 NMatS0=      1 NMatT0=    0 NMatD0=    1 NMtDS0=    0 NMtDT0=    0
 Symmetry not used in FoFCou.
 Leave Link  703 at Wed May 22 18:32:25 2019, MaxMem=   104857600 cpu:             198.9 elap:               6.2
ntrbks
ntrbks: Input/output error
