 Entering Gaussian System, Link 0=g16
 Initial command:
 /opt/software/gaussian/g16.b01/l1.exe "/localscratch/rzk.14593794.0/Gau-1141.inp" -scrdir="/localscratch/rzk.14593794.0/"
 Entering Link 1 = /opt/software/gaussian/g16.b01/l1.exe PID=      1145.
  
 Copyright (c) 1988-2017, Gaussian, Inc.  All Rights Reserved.
  
 This is part of the Gaussian(R) 16 program.  It is based on
 the Gaussian(R) 09 system (copyright 2009, Gaussian, Inc.),
 the Gaussian(R) 03 system (copyright 2003, Gaussian, Inc.),
 the Gaussian(R) 98 system (copyright 1998, Gaussian, Inc.),
 the Gaussian(R) 94 system (copyright 1995, Gaussian, Inc.),
 the Gaussian 92(TM) system (copyright 1992, Gaussian, Inc.),
 the Gaussian 90(TM) system (copyright 1990, Gaussian, Inc.),
 the Gaussian 88(TM) system (copyright 1988, Gaussian, Inc.),
 the Gaussian 86(TM) system (copyright 1986, Carnegie Mellon
 University), and the Gaussian 82(TM) system (copyright 1983,
 Carnegie Mellon University). Gaussian is a federally registered
 trademark of Gaussian, Inc.
  
 This software contains proprietary and confidential information,
 including trade secrets, belonging to Gaussian, Inc.
  
 This software is provided under written license and may be
 used, copied, transmitted, or stored only in accord with that
 written license.
  
 The following legend is applicable only to US Government
 contracts under FAR:
  
                    RESTRICTED RIGHTS LEGEND
  
 Use, reproduction and disclosure by the US Government is
 subject to restrictions as set forth in subparagraphs (a)
 and (c) of the Commercial Computer Software - Restricted
 Rights clause in FAR 52.227-19.
  
 Gaussian, Inc.
 340 Quinnipiac St., Bldg. 40, Wallingford CT 06492
  
  
 ---------------------------------------------------------------
 Warning -- This program may not be used in any manner that
 competes with the business of Gaussian, Inc. or will provide
 assistance to any competitor of Gaussian, Inc.  The licensee
 of this program is prohibited from giving any competitor of
 Gaussian, Inc. access to this program.  By using this program,
 the user acknowledges that Gaussian, Inc. is engaged in the
 business of creating and licensing software in the field of
 computational chemistry and represents and warrants to the
 licensee that it is not a competitor of Gaussian, Inc. and that
 it will not use this program in any manner prohibited above.
 ---------------------------------------------------------------
  

 Cite this work as:
 Gaussian 16, Revision B.01,
 M. J. Frisch, G. W. Trucks, H. B. Schlegel, G. E. Scuseria, 
 M. A. Robb, J. R. Cheeseman, G. Scalmani, V. Barone, 
 G. A. Petersson, H. Nakatsuji, X. Li, M. Caricato, A. V. Marenich, 
 J. Bloino, B. G. Janesko, R. Gomperts, B. Mennucci, H. P. Hratchian, 
 J. V. Ortiz, A. F. Izmaylov, J. L. Sonnenberg, D. Williams-Young, 
 F. Ding, F. Lipparini, F. Egidi, J. Goings, B. Peng, A. Petrone, 
 T. Henderson, D. Ranasinghe, V. G. Zakrzewski, J. Gao, N. Rega, 
 G. Zheng, W. Liang, M. Hada, M. Ehara, K. Toyota, R. Fukuda, 
 J. Hasegawa, M. Ishida, T. Nakajima, Y. Honda, O. Kitao, H. Nakai, 
 T. Vreven, K. Throssell, J. A. Montgomery, Jr., J. E. Peralta, 
 F. Ogliaro, M. J. Bearpark, J. J. Heyd, E. N. Brothers, K. N. Kudin, 
 V. N. Staroverov, T. A. Keith, R. Kobayashi, J. Normand, 
 K. Raghavachari, A. P. Rendell, J. C. Burant, S. S. Iyengar, 
 J. Tomasi, M. Cossi, J. M. Millam, M. Klene, C. Adamo, R. Cammi, 
 J. W. Ochterski, R. L. Martin, K. Morokuma, O. Farkas, 
 J. B. Foresman, and D. J. Fox, Gaussian, Inc., Wallingford CT, 2016.
 
 ******************************************
 Gaussian 16:  ES64L-G16RevB.01 20-Dec-2017
                10-May-2019 
 ******************************************
 %NProcShared=32
 Will use up to   32 processors via shared memory.
 %chk=AH.chk
 ----------------------------------------------------------------------
 #p td=(50-50,nstates=12) ub3lyp/6-31g(d,p) scrf=(iefpcm,solvent=aceton
 itrile) guess=(core,mix,always) empiricaldispersion=gd3
 ----------------------------------------------------------------------
 1/38=1,172=1/1;
 2/12=2,17=6,18=5,40=1/2;
 3/5=1,6=6,7=101,11=2,25=1,30=1,70=2201,72=2,74=-5,116=2,124=31/1,2,3,8;
 4/5=2,13=-1/1;
 5/5=2,38=5,53=2/2;
 8/6=1,10=2,108=12/1;
 9/41=12,42=1,48=2,70=2/14;
 6/7=2,8=2,9=2,10=2/1;
 99/5=1,9=1/99;
 Leave Link    1 at Fri May 10 12:38:14 2019, MaxMem=           0 cpu:               3.7 elap:               0.1
 (Enter /opt/software/gaussian/g16.b01/l101.exe)
 -------------------
 Title Card Required
 -------------------
 Symbolic Z-matrix:
 Charge =  0 Multiplicity = 1
 C                    -1.69731  -0.2014   -0.00002 
 O                    -2.21791  -1.31224  -0.00003 
 C                    -2.55327   1.04945  -0.00002 
 H                    -2.34332   1.66352   0.88201 
 H                    -2.34287   1.66396  -0.88163 
 H                    -3.60462   0.76106  -0.0004 
 C                    -0.20697  -0.05671   0.00006 
 C                     0.57802  -1.22203   0.00005 
 C                     0.42835   1.19547   0.00008 
 C                     1.96697  -1.13917  0. 
 H                     0.07595  -2.18349   0. 
 C                     1.82098   1.27802  0. 
 H                    -0.15524   2.10952  -0.00004 
 C                     2.59142   0.1129   -0.00003 
 H                     2.56501  -2.04535  -0.00008 
 H                     2.30385   2.25026  -0.00014 
 H                     3.6753    0.17925  -0.00013 
 
 ITRead=  0  0  0  0  0  0  0  0  0  0  0  0  0  0  0  0  0
 MicOpt= -1 -1 -1 -1 -1 -1 -1 -1 -1 -1 -1 -1 -1 -1 -1 -1 -1
 NAtoms=     17 NQM=       17 NQMF=       0 NMMI=      0 NMMIF=      0
                NMic=       0 NMicF=      0.
                    Isotopes and Nuclear Properties:
 (Nuclear quadrupole moments (NQMom) in fm**2, nuclear magnetic moments (NMagM)
  in nuclear magnetons)

  Atom         1           2           3           4           5           6           7           8           9          10
 IAtWgt=          12          16          12           1           1           1          12          12          12          12
 AtmWgt=  12.0000000  15.9949146  12.0000000   1.0078250   1.0078250   1.0078250  12.0000000  12.0000000  12.0000000  12.0000000
 NucSpn=           0           0           0           1           1           1           0           0           0           0
 AtZEff=  -0.0000000  -0.0000000  -0.0000000  -0.0000000  -0.0000000  -0.0000000  -0.0000000  -0.0000000  -0.0000000  -0.0000000
 NQMom=    0.0000000   0.0000000   0.0000000   0.0000000   0.0000000   0.0000000   0.0000000   0.0000000   0.0000000   0.0000000
 NMagM=    0.0000000   0.0000000   0.0000000   2.7928460   2.7928460   2.7928460   0.0000000   0.0000000   0.0000000   0.0000000
 AtZNuc=   6.0000000   8.0000000   6.0000000   1.0000000   1.0000000   1.0000000   6.0000000   6.0000000   6.0000000   6.0000000

  Atom        11          12          13          14          15          16          17
 IAtWgt=           1          12           1          12           1           1           1
 AtmWgt=   1.0078250  12.0000000   1.0078250  12.0000000   1.0078250   1.0078250   1.0078250
 NucSpn=           1           0           1           0           1           1           1
 AtZEff=  -0.0000000  -0.0000000  -0.0000000  -0.0000000  -0.0000000  -0.0000000  -0.0000000
 NQMom=    0.0000000   0.0000000   0.0000000   0.0000000   0.0000000   0.0000000   0.0000000
 NMagM=    2.7928460   0.0000000   2.7928460   0.0000000   2.7928460   2.7928460   2.7928460
 AtZNuc=   1.0000000   6.0000000   1.0000000   6.0000000   1.0000000   1.0000000   1.0000000
 Leave Link  101 at Fri May 10 12:38:14 2019, MaxMem=   104857600 cpu:               3.6 elap:               0.2
 (Enter /opt/software/gaussian/g16.b01/l202.exe)
                          Input orientation:                          
 ---------------------------------------------------------------------
 Center     Atomic      Atomic             Coordinates (Angstroms)
 Number     Number       Type             X           Y           Z
 ---------------------------------------------------------------------
      1          6           0       -1.697308   -0.201402   -0.000018
      2          8           0       -2.217905   -1.312239   -0.000029
      3          6           0       -2.553274    1.049452   -0.000024
      4          1           0       -2.343318    1.663518    0.882011
      5          1           0       -2.342868    1.663956   -0.881626
      6          1           0       -3.604616    0.761060   -0.000401
      7          6           0       -0.206967   -0.056710    0.000057
      8          6           0        0.578022   -1.222025    0.000049
      9          6           0        0.428351    1.195472    0.000075
     10          6           0        1.966970   -1.139173   -0.000003
     11          1           0        0.075953   -2.183491    0.000004
     12          6           0        1.820979    1.278019   -0.000002
     13          1           0       -0.155236    2.109523   -0.000039
     14          6           0        2.591420    0.112896   -0.000029
     15          1           0        2.565010   -2.045346   -0.000081
     16          1           0        2.303854    2.250264   -0.000141
     17          1           0        3.675304    0.179252   -0.000125
 ---------------------------------------------------------------------
                    Distance matrix (angstroms):
                    1          2          3          4          5
     1  C    0.000000
     2  O    1.226776   0.000000
     3  C    1.515689   2.385384   0.000000
     4  H    2.161766   3.106260   1.095054   0.000000
     5  H    2.161837   3.106536   1.095038   1.763637   0.000000
     6  H    2.136389   2.494301   1.090179   1.784364   1.784317
     7  C    1.497348   2.370701   2.593984   2.881150   2.880995
     8  C    2.493752   2.797382   3.868413   4.199815   4.199742
     9  C    2.543557   3.645722   2.985198   2.946019   2.945595
    10  C    3.782373   4.188452   5.022219   5.216475   5.216272
    11  H    2.659536   2.453745   4.167104   4.629286   4.629343
    12  C    3.816678   4.798127   4.380221   4.274099   4.273620
    13  H    2.778194   3.995380   2.621896   2.400966   2.400304
    14  C    4.300229   5.016036   5.229246   5.247291   5.246923
    15  H    4.644081   4.838773   5.981188   6.214937   6.214765
    16  H    4.692543   5.756538   5.003363   4.766411   4.765795
    17  H    5.386080   6.079018   6.289072   6.261391   6.260973
                    6          7          8          9         10
     6  H    0.000000
     7  C    3.494677   0.000000
     8  C    4.628940   1.405050   0.000000
     9  C    4.056296   1.404133   2.422126   0.000000
    10  C    5.886719   2.428524   1.391417   2.796054   0.000000
    11  H    4.713488   2.145517   1.084661   3.397289   2.160219
    12  C    5.450168   2.427770   2.791982   1.395072   2.421597
    13  H    3.703589   2.166851   3.411287   1.084464   3.880436
    14  C    6.229846   2.803522   2.415737   2.418851   1.399148
    15  H    6.777920   3.411529   2.150809   3.881780   1.085726
    16  H    6.093254   3.409744   3.877536   2.151766   3.406138
    17  H    7.303132   3.889435   3.399520   3.402265   2.157927
                   11         12         13         14         15
    11  H    0.000000
    12  C    3.876489   0.000000
    13  H    4.299235   2.144021   0.000000
    14  C    3.406019   1.396815   3.395679   0.000000
    15  H    2.492888   3.405633   4.966153   2.158404   0.000000
    16  H    4.962028   1.085555   2.463114   2.156626   4.303541
    17  H    4.305564   2.155414   4.289404   1.085913   2.486280
                   16         17
    16  H    0.000000
    17  H    2.483942   0.000000
 Stoichiometry    C8H8O
 Framework group  C1[X(C8H8O)]
 Deg. of freedom    45
 Full point group                 C1      NOp   1
 Largest Abelian subgroup         C1      NOp   1
 Largest concise Abelian subgroup C1      NOp   1
                         Standard orientation:                         
 ---------------------------------------------------------------------
 Center     Atomic      Atomic             Coordinates (Angstroms)
 Number     Number       Type             X           Y           Z
 ---------------------------------------------------------------------
      1          6           0       -1.697308   -0.201402   -0.000018
      2          8           0       -2.217905   -1.312239   -0.000029
      3          6           0       -2.553274    1.049452   -0.000024
      4          1           0       -2.343318    1.663518    0.882011
      5          1           0       -2.342868    1.663956   -0.881626
      6          1           0       -3.604616    0.761060   -0.000401
      7          6           0       -0.206967   -0.056710    0.000057
      8          6           0        0.578022   -1.222025    0.000049
      9          6           0        0.428351    1.195472    0.000075
     10          6           0        1.966970   -1.139173   -0.000003
     11          1           0        0.075953   -2.183491    0.000004
     12          6           0        1.820979    1.278019   -0.000002
     13          1           0       -0.155236    2.109523   -0.000039
     14          6           0        2.591420    0.112896   -0.000029
     15          1           0        2.565010   -2.045346   -0.000081
     16          1           0        2.303854    2.250264   -0.000141
     17          1           0        3.675304    0.179252   -0.000125
 ---------------------------------------------------------------------
 Rotational constants (GHZ):           3.6751930           1.2126784           0.9169999
 Leave Link  202 at Fri May 10 12:38:14 2019, MaxMem=   104857600 cpu:               2.3 elap:               0.1
 (Enter /opt/software/gaussian/g16.b01/l301.exe)
 Standard basis: 6-31G(d,p) (6D, 7F)
 Ernie: Thresh=  0.10000D-02 Tol=  0.10000D-05 Strict=F.
 There are   175 symmetry adapted cartesian basis functions of A   symmetry.
 There are   175 symmetry adapted basis functions of A   symmetry.
   175 basis functions,   308 primitive gaussians,   175 cartesian basis functions
    32 alpha electrons       32 beta electrons
       nuclear repulsion energy       400.5229786133 Hartrees.
 IExCor=  402 DFT=T Ex+Corr=B3LYP ExCW=0 ScaHFX=  0.200000
 ScaDFX=  0.800000  0.720000  1.000000  0.810000 ScalE2=  1.000000  1.000000
 IRadAn=      5 IRanWt=     -1 IRanGd=            0 ICorTp=0 IEmpDi=131
 NAtoms=   17 NActive=   17 NUniq=   17 SFac= 1.00D+00 NAtFMM=   60 NAOKFM=F Big=F
 Integral buffers will be    131072 words long.
 Raffenetti 2 integral format.
 Two-electron integral symmetry is turned on.
 R6Disp:  Grimme-D3 Dispersion energy=       -0.0112399629 Hartrees.
 Nuclear repulsion after empirical dispersion term =      400.5117386504 Hartrees.
 ------------------------------------------------------------------------------
 Polarizable Continuum Model (PCM)
 =================================
 Model                : PCM.
 Atomic radii         : UFF (Universal Force Field).
 Polarization charges : Total charges.
 Charge compensation  : None.
 Solution method      : On-the-fly selection.
 Cavity type          : Scaled VdW (van der Waals Surface) (Alpha=1.100).
 Cavity algorithm     : GePol (No added spheres)
                        Default sphere list used, NSphG=   17.
                        Lebedev-Laikov grids with approx.  5.0 points / Ang**2.
                        Smoothing algorithm: York/Karplus (Gamma=1.0000).
                        Polarization charges: spherical gaussians, with
                                              point-specific exponents (IZeta= 3).
                        Self-potential: point-specific (ISelfS= 7).
                        Self-field    : sphere-specific E.n sum rule (ISelfD= 2).
 Solvent              : Acetonitrile, Eps=  35.688000 Eps(inf)=   1.806874
 ------------------------------------------------------------------------------
 Spheres list:
 ISph  on   Nord     Re0    Alpha      Xe            Ye            Ze
    1   C      1    1.9255  1.100     -1.697308     -0.201402     -0.000018
    2   O      2    1.7500  1.100     -2.217905     -1.312239     -0.000029
    3   C      3    1.9255  1.100     -2.553274      1.049452     -0.000024
    4   H      4    1.4430  1.100     -2.343318      1.663518      0.882011
    5   H      5    1.4430  1.100     -2.342868      1.663956     -0.881626
    6   H      6    1.4430  1.100     -3.604616      0.761060     -0.000401
    7   C      7    1.9255  1.100     -0.206967     -0.056710      0.000057
    8   C      8    1.9255  1.100      0.578022     -1.222025      0.000049
    9   C      9    1.9255  1.100      0.428351      1.195472      0.000075
   10   C     10    1.9255  1.100      1.966970     -1.139173     -0.000003
   11   H     11    1.4430  1.100      0.075953     -2.183491      0.000004
   12   C     12    1.9255  1.100      1.820979      1.278019     -0.000002
   13   H     13    1.4430  1.100     -0.155236      2.109523     -0.000039
   14   C     14    1.9255  1.100      2.591420      0.112896     -0.000029
   15   H     15    1.4430  1.100      2.565010     -2.045346     -0.000081
   16   H     16    1.4430  1.100      2.303854      2.250264     -0.000141
   17   H     17    1.4430  1.100      3.675304      0.179252     -0.000125
 ------------------------------------------------------------------------------
 GePol: Number of generator spheres                  =      17
 GePol: Total number of spheres                      =      17
 GePol: Number of exposed spheres                    =      17 (100.00%)
 GePol: Number of points                             =    1447
 GePol: Average weight of points                     =       0.13
 GePol: Minimum weight of points                     =   0.90D-07
 GePol: Maximum weight of points                     =    0.20577
 GePol: Number of points with low weight             =      84
 GePol: Fraction of low-weight points (<1% of avg)   =       5.81%
 GePol: Cavity surface area                          =    189.225 Ang**2
 GePol: Cavity volume                                =    188.062 Ang**3
 Leave Link  301 at Fri May 10 12:38:15 2019, MaxMem=   104857600 cpu:               4.5 elap:               0.2
 (Enter /opt/software/gaussian/g16.b01/l302.exe)
 NPDir=0 NMtPBC=     1 NCelOv=     1 NCel=       1 NClECP=     1 NCelD=      1
         NCelK=      1 NCelE2=     1 NClLst=     1 CellRange=     0.0.
 One-electron integrals computed using PRISM.
 One-electron integral symmetry used in STVInt
 PrsmSu:  requested number of processors reduced to:  30 ShMem   1 Linda.
 NBasis=   175 RedAO= T EigKep=  4.70D-04  NBF=   175
 NBsUse=   175 1.00D-06 EigRej= -1.00D+00 NBFU=   175
 Precomputing XC quadrature grid using
 IXCGrd= 4 IRadAn=           5 IRanWt=          -1 IRanGd=           0 AccXCQ= 0.00D+00.
 Generated NRdTot=       0 NPtTot=           0 NUsed=           0 NTot=          32
 NSgBfM=   175   175   175   175   175 MxSgAt=    17 MxSgA2=    17.
 Leave Link  302 at Fri May 10 12:38:15 2019, MaxMem=   104857600 cpu:               8.8 elap:               0.3
 (Enter /opt/software/gaussian/g16.b01/l303.exe)
 DipDrv:  MaxL=1.
 Leave Link  303 at Fri May 10 12:38:16 2019, MaxMem=   104857600 cpu:               2.0 elap:               0.1
 (Enter /opt/software/gaussian/g16.b01/l308.exe)
 Leave Link  308 at Fri May 10 12:38:16 2019, MaxMem=   104857600 cpu:               1.2 elap:               0.1
 (Enter /opt/software/gaussian/g16.b01/l401.exe)
 Core hamiltonian diagonalized for initial guess.
 JPrj=0 DoOrth=F DoCkMO=T.
 Mixing orbitals, IMix= 1 IMixAn=  0 NRI=1 NE=   32 Coef=  7.07106781D-01  7.07106781D-01
 Mixing orbitals, IMix= 1 IMixAn=  0 NRI=1 NE=   32 Coef= -7.07106781D-01  7.07106781D-01
 Initial guess <Sx>= 0.0000 <Sy>= 0.0000 <Sz>= 0.0000 <S**2>= 1.0000 S= 0.6180
 Leave Link  401 at Fri May 10 12:38:16 2019, MaxMem=   104857600 cpu:               5.7 elap:               0.2
 (Enter /opt/software/gaussian/g16.b01/l502.exe)
 Integral symmetry usage will be decided dynamically.
 UHF open shell SCF:
 Using DIIS extrapolation, IDIIS=  1040.
 NGot=   104857600 LenX=   104788772 LenY=   104757706
 Requested convergence on RMS density matrix=1.00D-08 within 128 cycles.
 Requested convergence on MAX density matrix=1.00D-06.
 Requested convergence on             energy=1.00D-06.
 No special actions if energy rises.
 Fock matrices will be formed incrementally for  20 cycles.

 Cycle   1  Pass 1  IDiag  1:
 FoFJK:  IHMeth= 1 ICntrl=       0 DoSepK=F KAlg= 0 I1Cent=           0 FoldK=F
 IRaf= 920000000 NMat=       1 IRICut=       1 DoRegI=T DoRafI=F ISym2E= 0 IDoP0=0 IntGTp=1.
 FoFCou: FMM=F IPFlag=           0 FMFlag=      100000 FMFlg1=           0
         NFxFlg=           0 DoJE=F BraDBF=F KetDBF=F FulRan=T
         wScrn=  0.000000 ICntrl=         0 IOpCl=  1 I1Cent=           0 NGrid=           0
         NMat0=    1 NMatS0=      1 NMatT0=    0 NMatD0=    1 NMtDS0=    0 NMtDT0=    0
 Symmetry not used in FoFCou.
 Inv3:  Mode=1 IEnd=     6281427.
 Iteration    1 A*A^-1 deviation from unit magnitude is 2.89D-15 for   1370.
 Iteration    1 A*A^-1 deviation from orthogonality  is 2.75D-15 for   1164    192.
 Iteration    1 A^-1*A deviation from unit magnitude is 2.89D-15 for   1370.
 Iteration    1 A^-1*A deviation from orthogonality  is 2.00D-15 for   1311    114.
 E= -305.541273211787    
 DIIS: error= 4.89D-01 at cycle   1 NSaved=   1.
 NSaved= 1 IEnMin= 1 EnMin= -305.541273211787     IErMin= 1 ErrMin= 4.89D-01
 ErrMax= 4.89D-01  0.00D+00 EMaxC= 1.00D-01 BMatC= 1.76D+02 BMatP= 1.76D+02
 IDIUse=3 WtCom= 0.00D+00 WtEn= 1.00D+00
 Coeff-Com:  0.100D+01
 Coeff-En:   0.100D+01
 Coeff:      0.100D+01
 Gap=     0.160 Goal=   None    Shift=    0.000
 Gap=     0.138 Goal=   None    Shift=    0.000
 GapD=    0.138 DampG=1.000 DampE=0.250 DampFc=0.2500 IDamp=-1.
 Damping current iteration by 2.50D-01
 RMSDP=2.31D-01 MaxDP=1.12D+01              OVMax= 9.98D-01

 Cycle   2  Pass 1  IDiag  1:
 RMSU=  5.60D-02    CP:  8.41D-01
 E= -343.246453277451     Delta-E=      -37.705180065664 Rises=F Damp=T
 DIIS: error= 3.08D-01 at cycle   2 NSaved=   2.
 NSaved= 2 IEnMin= 2 EnMin= -343.246453277451     IErMin= 2 ErrMin= 3.08D-01
 ErrMax= 3.08D-01  0.00D+00 EMaxC= 1.00D-01 BMatC= 6.60D+01 BMatP= 1.76D+02
 IDIUse=3 WtCom= 0.00D+00 WtEn= 1.00D+00
 Coeff-Com: -0.132D+01 0.232D+01
 Coeff-En:   0.000D+00 0.100D+01
 Coeff:      0.000D+00 0.100D+01
 Gap=     0.200 Goal=   None    Shift=    0.000
 Gap=     0.199 Goal=   None    Shift=    0.000
 RMSDP=1.41D-01 MaxDP=4.06D+00 DE=-3.77D+01 OVMax= 9.52D-01

 Cycle   3  Pass 1  IDiag  1:
 RMSU=  1.29D-01    CP:  2.15D-01  1.11D+00
 E= -339.977475875048     Delta-E=        3.268977402403 Rises=F Damp=F
 DIIS: error= 1.56D-01 at cycle   3 NSaved=   3.
 NSaved= 3 IEnMin= 2 EnMin= -343.246453277451     IErMin= 3 ErrMin= 1.56D-01
 ErrMax= 1.56D-01  0.00D+00 EMaxC= 1.00D-01 BMatC= 6.20D+01 BMatP= 6.60D+01
 IDIUse=3 WtCom= 0.00D+00 WtEn= 1.00D+00
 EnCoef did   100 forward-backward iterations
 Coeff-Com: -0.112D+01 0.201D+01 0.114D+00
 Coeff-En:   0.373D+00 0.250D-01 0.602D+00
 Coeff:      0.373D+00 0.250D-01 0.602D+00
 Gap=     0.371 Goal=   None    Shift=    0.000
 Gap=     0.380 Goal=   None    Shift=    0.000
 RMSDP=1.44D-01 MaxDP=4.54D+00 DE= 3.27D+00 OVMax= 9.99D-01

 Cycle   4  Pass 1  IDiag  1:
 RMSU=  2.61D-02    CP:  1.06D-01  5.50D-02  1.20D-02
 E= -379.380797773106     Delta-E=      -39.403321898058 Rises=F Damp=F
 DIIS: error= 1.42D-01 at cycle   4 NSaved=   4.
 NSaved= 4 IEnMin= 4 EnMin= -379.380797773106     IErMin= 4 ErrMin= 1.42D-01
 ErrMax= 1.42D-01  0.00D+00 EMaxC= 1.00D-01 BMatC= 1.65D+01 BMatP= 6.20D+01
 IDIUse=3 WtCom= 0.00D+00 WtEn= 1.00D+00
 Coeff-Com: -0.613D+00 0.104D+01 0.108D+00 0.464D+00
 Coeff-En:   0.000D+00 0.000D+00 0.122D+00 0.878D+00
 Coeff:      0.000D+00 0.000D+00 0.122D+00 0.878D+00
 Gap=    -0.474 Goal=   None    Shift=    0.000
 Gap=    -0.478 Goal=   None    Shift=    0.000
 RMSDP=5.81D-02 MaxDP=3.06D+00 DE=-3.94D+01 OVMax= 9.78D-01

 Cycle   5  Pass 1  IDiag  1:
 RMSU=  4.96D-02    CP:  1.08D-01  5.16D-01  3.24D-02  4.03D-01
 E= -362.222148686056     Delta-E=       17.158649087050 Rises=F Damp=F
 DIIS: error= 1.45D-01 at cycle   5 NSaved=   5.
 NSaved= 5 IEnMin= 4 EnMin= -379.380797773106     IErMin= 4 ErrMin= 1.42D-01
 ErrMax= 1.45D-01  0.00D+00 EMaxC= 1.00D-01 BMatC= 4.23D+01 BMatP= 1.65D+01
 IDIUse=2 WtCom= 0.00D+00 WtEn= 1.00D+00
 Coeff-En:   0.000D+00 0.000D+00 0.000D+00 0.744D+00 0.256D+00
 Coeff:      0.000D+00 0.000D+00 0.000D+00 0.744D+00 0.256D+00
 Gap=    -0.069 Goal=   None    Shift=    0.000
 Gap=    -0.069 Goal=   None    Shift=    0.000
 RMSDP=5.49D-02 MaxDP=2.96D+00 DE= 1.72D+01 OVMax= 9.34D-01

 Cycle   6  Pass 1  IDiag  1:
 RMSU=  1.82D-02    CP:  1.04D-01  7.43D-02  3.37D-02  5.41D-01  8.53D-02
 E= -383.493351857446     Delta-E=      -21.271203171390 Rises=F Damp=F
 DIIS: error= 7.81D-02 at cycle   6 NSaved=   6.
 NSaved= 6 IEnMin= 6 EnMin= -383.493351857446     IErMin= 6 ErrMin= 7.81D-02
 ErrMax= 7.81D-02  0.00D+00 EMaxC= 1.00D-01 BMatC= 5.05D+00 BMatP= 1.65D+01
 IDIUse=3 WtCom= 2.19D-01 WtEn= 7.81D-01
 Coeff-Com: -0.110D+00 0.216D+00-0.420D-01 0.266D+00 0.614D-01 0.608D+00
 Coeff-En:   0.000D+00 0.000D+00 0.000D+00 0.201D+00 0.000D+00 0.799D+00
 Coeff:     -0.239D-01 0.472D-01-0.918D-02 0.215D+00 0.134D-01 0.758D+00
 Gap=     0.190 Goal=   None    Shift=    0.000
 Gap=     0.190 Goal=   None    Shift=    0.000
 RMSDP=1.41D-02 MaxDP=3.23D-01 DE=-2.13D+01 OVMax= 5.64D-01

 Cycle   7  Pass 1  IDiag  1:
 RMSU=  9.67D-03    CP:  9.76D-02  2.47D-02  1.55D-02  6.56D-01  7.69D-02
                    CP:  5.04D-01
 E= -384.159060259962     Delta-E=       -0.665708402516 Rises=F Damp=F
 DIIS: error= 6.23D-02 at cycle   7 NSaved=   7.
 NSaved= 7 IEnMin= 7 EnMin= -384.159060259962     IErMin= 7 ErrMin= 6.23D-02
 ErrMax= 6.23D-02  0.00D+00 EMaxC= 1.00D-01 BMatC= 2.86D+00 BMatP= 5.05D+00
 IDIUse=3 WtCom= 3.77D-01 WtEn= 6.23D-01
 Coeff-Com: -0.610D-01 0.102D+00-0.198D-01 0.891D-01 0.101D-01 0.424D+00
 Coeff-Com:  0.456D+00
 Coeff-En:   0.000D+00 0.000D+00 0.000D+00 0.000D+00 0.000D+00 0.361D+00
 Coeff-En:   0.639D+00
 Coeff:     -0.230D-01 0.386D-01-0.747D-02 0.336D-01 0.381D-02 0.385D+00
 Coeff:      0.570D+00
 Gap=     0.308 Goal=   None    Shift=    0.000
 Gap=     0.308 Goal=   None    Shift=    0.000
 RMSDP=6.45D-03 MaxDP=2.01D-01 DE=-6.66D-01 OVMax= 3.49D-01

 Cycle   8  Pass 1  IDiag  1:
 RMSU=  4.30D-03    CP:  9.07D-02  2.88D-02  1.67D-02  6.23D-01  7.62D-02
                    CP:  6.30D-01  5.78D-01
 E= -384.805401471571     Delta-E=       -0.646341211608 Rises=F Damp=F
 DIIS: error= 2.81D-02 at cycle   8 NSaved=   8.
 NSaved= 8 IEnMin= 8 EnMin= -384.805401471571     IErMin= 8 ErrMin= 2.81D-02
 ErrMax= 2.81D-02  0.00D+00 EMaxC= 1.00D-01 BMatC= 5.15D-01 BMatP= 2.86D+00
 IDIUse=3 WtCom= 7.19D-01 WtEn= 2.81D-01
 Coeff-Com: -0.876D-02 0.894D-02-0.313D-02-0.194D-01-0.684D-03 0.137D+00
 Coeff-Com:  0.323D+00 0.563D+00
 Coeff-En:   0.000D+00 0.000D+00 0.000D+00 0.000D+00 0.000D+00 0.000D+00
 Coeff-En:   0.102D+00 0.898D+00
 Coeff:     -0.629D-02 0.643D-02-0.225D-02-0.140D-01-0.492D-03 0.985D-01
 Coeff:      0.261D+00 0.657D+00
 Gap=     0.221 Goal=   None    Shift=    0.000
 Gap=     0.220 Goal=   None    Shift=    0.000
 RMSDP=3.39D-03 MaxDP=1.18D-01 DE=-6.46D-01 OVMax= 1.70D-01

 Cycle   9  Pass 1  IDiag  1:
 RMSU=  1.98D-03    CP:  8.90D-02  2.83D-02  1.67D-02  6.28D-01  7.60D-02
                    CP:  6.18D-01  7.46D-01  4.90D-01
 E= -384.872743212810     Delta-E=       -0.067341741240 Rises=F Damp=F
 DIIS: error= 2.39D-02 at cycle   9 NSaved=   9.
 NSaved= 9 IEnMin= 9 EnMin= -384.872743212810     IErMin= 9 ErrMin= 2.39D-02
 ErrMax= 2.39D-02  0.00D+00 EMaxC= 1.00D-01 BMatC= 2.45D-01 BMatP= 5.15D-01
 IDIUse=3 WtCom= 7.61D-01 WtEn= 2.39D-01
 Coeff-Com: -0.451D-03-0.189D-02-0.608D-04-0.141D-01 0.268D-02 0.211D-01
 Coeff-Com:  0.101D+00 0.447D+00 0.444D+00
 Coeff-En:   0.000D+00 0.000D+00 0.000D+00 0.000D+00 0.000D+00 0.000D+00
 Coeff-En:   0.000D+00 0.332D+00 0.668D+00
 Coeff:     -0.343D-03-0.144D-02-0.463D-04-0.108D-01 0.204D-02 0.160D-01
 Coeff:      0.769D-01 0.420D+00 0.498D+00
 Gap=     0.208 Goal=   None    Shift=    0.000
 Gap=     0.208 Goal=   None    Shift=    0.000
 RMSDP=1.72D-03 MaxDP=6.84D-02 DE=-6.73D-02 OVMax= 9.59D-02

 Cycle  10  Pass 1  IDiag  1:
 RMSU=  5.88D-04    CP:  8.97D-02  2.68D-02  1.67D-02  6.23D-01  7.77D-02
                    CP:  6.18D-01  6.97D-01  7.10D-01  3.92D-01
 E= -384.919951358961     Delta-E=       -0.047208146151 Rises=F Damp=F
 DIIS: error= 9.74D-03 at cycle  10 NSaved=  10.
 NSaved=10 IEnMin=10 EnMin= -384.919951358961     IErMin=10 ErrMin= 9.74D-03
 ErrMax= 9.74D-03  0.00D+00 EMaxC= 1.00D-01 BMatC= 2.81D-02 BMatP= 2.45D-01
 IDIUse=3 WtCom= 9.03D-01 WtEn= 9.74D-02
 Coeff-Com:  0.895D-03-0.190D-02-0.299D-03-0.536D-02 0.189D-02-0.417D-03
 Coeff-Com: -0.511D-02 0.157D+00 0.324D+00 0.529D+00
 Coeff-En:   0.000D+00 0.000D+00 0.000D+00 0.000D+00 0.000D+00 0.000D+00
 Coeff-En:   0.000D+00 0.000D+00 0.615D-01 0.939D+00
 Coeff:      0.808D-03-0.172D-02-0.270D-03-0.484D-02 0.171D-02-0.376D-03
 Coeff:     -0.461D-02 0.142D+00 0.298D+00 0.569D+00
 Gap=     0.200 Goal=   None    Shift=    0.000
 Gap=     0.200 Goal=   None    Shift=    0.000
 RMSDP=4.55D-04 MaxDP=2.15D-02 DE=-4.72D-02 OVMax= 2.65D-02

 Cycle  11  Pass 1  IDiag  1:
 RMSU=  1.86D-04    CP:  8.95D-02  2.75D-02  1.67D-02  6.22D-01  7.74D-02
                    CP:  6.23D-01  6.93D-01  6.95D-01  5.33D-01  5.26D-01
 E= -384.925267215179     Delta-E=       -0.005315856217 Rises=F Damp=F
 DIIS: error= 1.40D-03 at cycle  11 NSaved=  11.
 NSaved=11 IEnMin=11 EnMin= -384.925267215179     IErMin=11 ErrMin= 1.40D-03
 ErrMax= 1.40D-03  0.00D+00 EMaxC= 1.00D-01 BMatC= 1.44D-03 BMatP= 2.81D-02
 IDIUse=3 WtCom= 9.86D-01 WtEn= 1.40D-02
 Coeff-Com: -0.342D-03 0.755D-03-0.209D-03-0.302D-03 0.227D-03 0.826D-03
 Coeff-Com: -0.962D-02 0.128D-01 0.844D-01 0.284D+00 0.628D+00
 Coeff-En:   0.000D+00 0.000D+00 0.000D+00 0.000D+00 0.000D+00 0.000D+00
 Coeff-En:   0.000D+00 0.000D+00 0.000D+00 0.000D+00 0.100D+01
 Coeff:     -0.337D-03 0.745D-03-0.206D-03-0.298D-03 0.223D-03 0.814D-03
 Coeff:     -0.949D-02 0.126D-01 0.832D-01 0.280D+00 0.633D+00
 Gap=     0.196 Goal=   None    Shift=    0.000
 Gap=     0.196 Goal=   None    Shift=    0.000
 RMSDP=9.00D-05 MaxDP=3.22D-03 DE=-5.32D-03 OVMax= 5.30D-03

 Cycle  12  Pass 1  IDiag  1:
 RMSU=  4.47D-05    CP:  8.95D-02  2.74D-02  1.67D-02  6.22D-01  7.74D-02
                    CP:  6.23D-01  6.94D-01  6.94D-01  5.32D-01  6.29D-01
                    CP:  7.43D-01
 E= -384.925570659217     Delta-E=       -0.000303444039 Rises=F Damp=F
 DIIS: error= 1.76D-04 at cycle  12 NSaved=  12.
 NSaved=12 IEnMin=12 EnMin= -384.925570659217     IErMin=12 ErrMin= 1.76D-04
 ErrMax= 1.76D-04  0.00D+00 EMaxC= 1.00D-01 BMatC= 4.45D-05 BMatP= 1.44D-03
 IDIUse=3 WtCom= 9.98D-01 WtEn= 1.76D-03
 Coeff-Com: -0.217D-04 0.110D-03 0.132D-04 0.105D-04-0.561D-04 0.657D-05
 Coeff-Com: -0.327D-02 0.241D-02 0.291D-01 0.105D+00 0.277D+00 0.590D+00
 Coeff-En:   0.000D+00 0.000D+00 0.000D+00 0.000D+00 0.000D+00 0.000D+00
 Coeff-En:   0.000D+00 0.000D+00 0.000D+00 0.000D+00 0.000D+00 0.100D+01
 Coeff:     -0.216D-04 0.109D-03 0.131D-04 0.105D-04-0.560D-04 0.656D-05
 Coeff:     -0.326D-02 0.241D-02 0.290D-01 0.105D+00 0.276D+00 0.591D+00
 Gap=     0.196 Goal=   None    Shift=    0.000
 Gap=     0.196 Goal=   None    Shift=    0.000
 RMSDP=2.24D-05 MaxDP=7.84D-04 DE=-3.03D-04 OVMax= 1.99D-03

 Cycle  13  Pass 1  IDiag  1:
 RMSU=  1.64D-05    CP:  8.95D-02  2.74D-02  1.67D-02  6.22D-01  7.74D-02
                    CP:  6.23D-01  6.94D-01  6.93D-01  5.33D-01  6.23D-01
                    CP:  7.70D-01  7.22D-01
 E= -384.925579829204     Delta-E=       -0.000009169986 Rises=F Damp=F
 DIIS: error= 8.90D-05 at cycle  13 NSaved=  13.
 NSaved=13 IEnMin=13 EnMin= -384.925579829204     IErMin=13 ErrMin= 8.90D-05
 ErrMax= 8.90D-05  0.00D+00 EMaxC= 1.00D-01 BMatC= 9.01D-06 BMatP= 4.45D-05
 IDIUse=1 WtCom= 1.00D+00 WtEn= 0.00D+00
 Coeff-Com:  0.401D-04-0.559D-04 0.292D-04 0.728D-04-0.644D-04-0.241D-03
 Coeff-Com: -0.840D-03 0.576D-03 0.796D-02 0.319D-01 0.903D-01 0.322D+00
 Coeff-Com:  0.548D+00
 Coeff:      0.401D-04-0.559D-04 0.292D-04 0.728D-04-0.644D-04-0.241D-03
 Coeff:     -0.840D-03 0.576D-03 0.796D-02 0.319D-01 0.903D-01 0.322D+00
 Coeff:      0.548D+00
 Gap=     0.196 Goal=   None    Shift=    0.000
 Gap=     0.196 Goal=   None    Shift=    0.000
 RMSDP=9.17D-06 MaxDP=3.24D-04 DE=-9.17D-06 OVMax= 8.24D-04

 Cycle  14  Pass 1  IDiag  1:
 RMSU=  5.75D-06    CP:  8.95D-02  2.74D-02  1.67D-02  6.22D-01  7.74D-02
                    CP:  6.22D-01  6.94D-01  6.93D-01  5.33D-01  6.25D-01
                    CP:  7.66D-01  7.79D-01  6.17D-01
 E= -384.925581972710     Delta-E=       -0.000002143506 Rises=F Damp=F
 DIIS: error= 5.03D-05 at cycle  14 NSaved=  14.
 NSaved=14 IEnMin=14 EnMin= -384.925581972710     IErMin=14 ErrMin= 5.03D-05
 ErrMax= 5.03D-05  0.00D+00 EMaxC= 1.00D-01 BMatC= 1.01D-06 BMatP= 9.01D-06
 IDIUse=1 WtCom= 1.00D+00 WtEn= 0.00D+00
 Coeff-Com: -0.245D-05 0.481D-05-0.221D-06 0.319D-04-0.150D-04-0.164D-03
 Coeff-Com: -0.884D-04 0.853D-03 0.951D-03 0.470D-02 0.524D-02 0.212D-01
 Coeff-Com:  0.151D+00 0.816D+00
 Coeff:     -0.245D-05 0.481D-05-0.221D-06 0.319D-04-0.150D-04-0.164D-03
 Coeff:     -0.884D-04 0.853D-03 0.951D-03 0.470D-02 0.524D-02 0.212D-01
 Coeff:      0.151D+00 0.816D+00
 Gap=     0.196 Goal=   None    Shift=    0.000
 Gap=     0.196 Goal=   None    Shift=    0.000
 RMSDP=3.94D-06 MaxDP=1.07D-04 DE=-2.14D-06 OVMax= 2.39D-04

 Cycle  15  Pass 1  IDiag  1:
 RMSU=  2.56D-06    CP:  8.95D-02  2.74D-02  1.67D-02  6.22D-01  7.74D-02
                    CP:  6.22D-01  6.94D-01  6.94D-01  5.32D-01  6.25D-01
                    CP:  7.64D-01  7.69D-01  7.04D-01  1.01D+00
 E= -384.925582164266     Delta-E=       -0.000000191556 Rises=F Damp=F
 DIIS: error= 1.60D-05 at cycle  15 NSaved=  15.
 NSaved=15 IEnMin=15 EnMin= -384.925582164266     IErMin=15 ErrMin= 1.60D-05
 ErrMax= 1.60D-05  0.00D+00 EMaxC= 1.00D-01 BMatC= 1.87D-07 BMatP= 1.01D-06
 IDIUse=1 WtCom= 1.00D+00 WtEn= 0.00D+00
 Coeff-Com: -0.466D-05 0.745D-05-0.339D-06 0.905D-05-0.225D-05-0.966D-04
 Coeff-Com:  0.565D-04 0.601D-03-0.265D-03-0.833D-03-0.829D-02-0.301D-01
 Coeff-Com:  0.219D-01 0.482D+00 0.535D+00
 Coeff:     -0.466D-05 0.745D-05-0.339D-06 0.905D-05-0.225D-05-0.966D-04
 Coeff:      0.565D-04 0.601D-03-0.265D-03-0.833D-03-0.829D-02-0.301D-01
 Coeff:      0.219D-01 0.482D+00 0.535D+00
 Gap=     0.196 Goal=   None    Shift=    0.000
 Gap=     0.196 Goal=   None    Shift=    0.000
 RMSDP=1.55D-06 MaxDP=5.76D-05 DE=-1.92D-07 OVMax= 1.32D-04

 Cycle  16  Pass 1  IDiag  1:
 RMSU=  9.70D-07    CP:  8.95D-02  2.74D-02  1.67D-02  6.22D-01  7.74D-02
                    CP:  6.22D-01  6.94D-01  6.94D-01  5.32D-01  6.25D-01
                    CP:  7.63D-01  7.73D-01  7.03D-01  1.12D+00  8.08D-01
 E= -384.925582211282     Delta-E=       -0.000000047017 Rises=F Damp=F
 DIIS: error= 3.15D-06 at cycle  16 NSaved=  16.
 NSaved=16 IEnMin=16 EnMin= -384.925582211282     IErMin=16 ErrMin= 3.15D-06
 ErrMax= 3.15D-06  0.00D+00 EMaxC= 1.00D-01 BMatC= 5.29D-09 BMatP= 1.87D-07
 IDIUse=1 WtCom= 1.00D+00 WtEn= 0.00D+00
 Coeff-Com:  0.132D-05-0.221D-05-0.223D-06-0.254D-06 0.773D-06-0.618D-06
 Coeff-Com:  0.108D-04 0.575D-05-0.105D-03-0.391D-03-0.105D-02-0.882D-02
 Coeff-Com: -0.116D-01 0.107D-01 0.146D+00 0.865D+00
 Coeff:      0.132D-05-0.221D-05-0.223D-06-0.254D-06 0.773D-06-0.618D-06
 Coeff:      0.108D-04 0.575D-05-0.105D-03-0.391D-03-0.105D-02-0.882D-02
 Coeff:     -0.116D-01 0.107D-01 0.146D+00 0.865D+00
 Gap=     0.196 Goal=   None    Shift=    0.000
 Gap=     0.196 Goal=   None    Shift=    0.000
 RMSDP=2.55D-07 MaxDP=1.45D-05 DE=-4.70D-08 OVMax= 2.88D-05

 Cycle  17  Pass 1  IDiag  1:
 RMSU=  1.72D-07    CP:  8.95D-02  2.74D-02  1.67D-02  6.22D-01  7.74D-02
                    CP:  6.22D-01  6.94D-01  6.94D-01  5.32D-01  6.25D-01
                    CP:  7.63D-01  7.72D-01  7.06D-01  1.13D+00  8.61D-01
                    CP:  9.18D-01
 E= -384.925582212985     Delta-E=       -0.000000001703 Rises=F Damp=F
 DIIS: error= 6.94D-07 at cycle  17 NSaved=  17.
 NSaved=17 IEnMin=17 EnMin= -384.925582212985     IErMin=17 ErrMin= 6.94D-07
 ErrMax= 6.94D-07  0.00D+00 EMaxC= 1.00D-01 BMatC= 2.56D-10 BMatP= 5.29D-09
 IDIUse=1 WtCom= 1.00D+00 WtEn= 0.00D+00
 Coeff-Com:  0.683D-07-0.257D-06 0.117D-06 0.661D-07-0.581D-07 0.183D-05
 Coeff-Com:  0.286D-05-0.227D-04-0.253D-04-0.514D-04 0.121D-03-0.557D-03
 Coeff-Com: -0.175D-02-0.768D-02 0.120D-01 0.149D+00 0.849D+00
 Coeff:      0.683D-07-0.257D-06 0.117D-06 0.661D-07-0.581D-07 0.183D-05
 Coeff:      0.286D-05-0.227D-04-0.253D-04-0.514D-04 0.121D-03-0.557D-03
 Coeff:     -0.175D-02-0.768D-02 0.120D-01 0.149D+00 0.849D+00
 Gap=     0.196 Goal=   None    Shift=    0.000
 Gap=     0.196 Goal=   None    Shift=    0.000
 RMSDP=7.99D-08 MaxDP=3.09D-06 DE=-1.70D-09 OVMax= 6.05D-06

 Cycle  18  Pass 1  IDiag  1:
 RMSU=  6.67D-08    CP:  8.95D-02  2.74D-02  1.67D-02  6.22D-01  7.74D-02
                    CP:  6.22D-01  6.94D-01  6.94D-01  5.32D-01  6.25D-01
                    CP:  7.63D-01  7.72D-01  7.06D-01  1.13D+00  8.61D-01
                    CP:  9.30D-01  1.18D+00
 E= -384.925582213096     Delta-E=       -0.000000000111 Rises=F Damp=F
 DIIS: error= 4.77D-07 at cycle  18 NSaved=  18.
 NSaved=18 IEnMin=18 EnMin= -384.925582213096     IErMin=18 ErrMin= 4.77D-07
 ErrMax= 4.77D-07  0.00D+00 EMaxC= 1.00D-01 BMatC= 1.21D-10 BMatP= 2.56D-10
 IDIUse=1 WtCom= 1.00D+00 WtEn= 0.00D+00
 Coeff-Com: -0.203D-07-0.909D-08 0.192D-07-0.161D-06-0.281D-07 0.178D-05
 Coeff-Com: -0.110D-05-0.111D-04 0.529D-05 0.335D-04 0.183D-03 0.119D-02
 Coeff-Com:  0.873D-03-0.615D-02-0.264D-01-0.124D+00 0.408D+00 0.746D+00
 Coeff:     -0.203D-07-0.909D-08 0.192D-07-0.161D-06-0.281D-07 0.178D-05
 Coeff:     -0.110D-05-0.111D-04 0.529D-05 0.335D-04 0.183D-03 0.119D-02
 Coeff:      0.873D-03-0.615D-02-0.264D-01-0.124D+00 0.408D+00 0.746D+00
 Gap=     0.196 Goal=   None    Shift=    0.000
 Gap=     0.196 Goal=   None    Shift=    0.000
 RMSDP=5.05D-08 MaxDP=2.26D-06 DE=-1.11D-10 OVMax= 4.55D-06

 Cycle  19  Pass 1  IDiag  1:
 RMSU=  3.54D-08    CP:  8.95D-02  2.74D-02  1.67D-02  6.22D-01  7.74D-02
                    CP:  6.22D-01  6.94D-01  6.94D-01  5.32D-01  6.25D-01
                    CP:  7.63D-01  7.72D-01  7.06D-01  1.13D+00  8.64D-01
                    CP:  9.36D-01  1.37D+00  1.00D+00
 E= -384.925582213147     Delta-E=       -0.000000000051 Rises=F Damp=F
 DIIS: error= 1.67D-07 at cycle  19 NSaved=  19.
 NSaved=19 IEnMin=19 EnMin= -384.925582213147     IErMin=19 ErrMin= 1.67D-07
 ErrMax= 1.67D-07  0.00D+00 EMaxC= 1.00D-01 BMatC= 1.74D-11 BMatP= 1.21D-10
 IDIUse=1 WtCom= 1.00D+00 WtEn= 0.00D+00
 Coeff-Com: -0.224D-07 0.738D-07-0.901D-09-0.851D-07 0.511D-08 0.158D-06
 Coeff-Com: -0.124D-05 0.228D-05 0.795D-05 0.227D-04 0.239D-04 0.675D-03
 Coeff-Com:  0.823D-03-0.600D-03-0.117D-01-0.797D-01-0.587D-01 0.289D+00
 Coeff-Com:  0.860D+00
 Coeff:     -0.224D-07 0.738D-07-0.901D-09-0.851D-07 0.511D-08 0.158D-06
 Coeff:     -0.124D-05 0.228D-05 0.795D-05 0.227D-04 0.239D-04 0.675D-03
 Coeff:      0.823D-03-0.600D-03-0.117D-01-0.797D-01-0.587D-01 0.289D+00
 Coeff:      0.860D+00
 Gap=     0.196 Goal=   None    Shift=    0.000
 Gap=     0.196 Goal=   None    Shift=    0.000
 RMSDP=2.41D-08 MaxDP=1.34D-06 DE=-5.08D-11 OVMax= 2.44D-06

 Cycle  20  Pass 1  IDiag  1:
 RMSU=  1.00D-08    CP:  8.95D-02  2.74D-02  1.67D-02  6.22D-01  7.74D-02
                    CP:  6.22D-01  6.94D-01  6.94D-01  5.32D-01  6.25D-01
                    CP:  7.63D-01  7.72D-01  7.06D-01  1.13D+00  8.64D-01
                    CP:  9.38D-01  1.47D+00  1.19D+00  1.00D+00
 E= -384.925582213158     Delta-E=       -0.000000000011 Rises=F Damp=F
 DIIS: error= 5.40D-08 at cycle  20 NSaved=  20.
 NSaved=20 IEnMin=20 EnMin= -384.925582213158     IErMin=20 ErrMin= 5.40D-08
 ErrMax= 5.40D-08  0.00D+00 EMaxC= 1.00D-01 BMatC= 6.21D-13 BMatP= 1.74D-11
 IDIUse=1 WtCom= 1.00D+00 WtEn= 0.00D+00
 Coeff-Com: -0.434D-08 0.827D-08-0.225D-08 0.535D-08 0.279D-08-0.119D-06
 Coeff-Com:  0.811D-07 0.696D-06 0.300D-07-0.233D-05-0.148D-04-0.107D-04
 Coeff-Com: -0.190D-05 0.286D-03 0.723D-03-0.201D-03-0.349D-01-0.119D-01
 Coeff-Com:  0.593D-01 0.987D+00
 Coeff:     -0.434D-08 0.827D-08-0.225D-08 0.535D-08 0.279D-08-0.119D-06
 Coeff:      0.811D-07 0.696D-06 0.300D-07-0.233D-05-0.148D-04-0.107D-04
 Coeff:     -0.190D-05 0.286D-03 0.723D-03-0.201D-03-0.349D-01-0.119D-01
 Coeff:      0.593D-01 0.987D+00
 Gap=     0.196 Goal=   None    Shift=    0.000
 Gap=     0.196 Goal=   None    Shift=    0.000
 RMSDP=6.61D-09 MaxDP=3.85D-07 DE=-1.06D-11 OVMax= 7.60D-07

 Error on total polarization charges =  0.00756
 SCF Done:  E(UB3LYP) =  -384.925582213     A.U. after   20 cycles
            NFock= 20  Conv=0.66D-08     -V/T= 2.0097
 <Sx>= 0.0000 <Sy>= 0.0000 <Sz>= 0.0000 <S**2>= 0.0000 S= 0.0000
 <L.S>=  0.00000000000    
 KE= 3.812319387701D+02 PE=-1.695278713315D+03 EE= 5.286094536811D+02
 Annihilation of the first spin contaminant:
 S**2 before annihilation     0.0000,   after    -0.0000
 Leave Link  502 at Fri May 10 12:38:28 2019, MaxMem=   104857600 cpu:             357.7 elap:              11.5
 (Enter /opt/software/gaussian/g16.b01/l801.exe)
 DoSCS=F DFT=T ScalE2(SS,OS)=  1.000000  1.000000
 ExpMin= 1.61D-01 ExpMax= 5.48D+03 ExpMxC= 8.25D+02 IAcc=3 IRadAn=         5 AccDes= 0.00D+00
 HarFok:  IExCor=  205 AccDes= 0.00D+00 IRadAn=         5 IDoV=-2 UseB2=F ITyADJ=14
 ICtDFT= 12500011 ScaDFX=  1.000000  1.000000  1.000000  1.000000
 Largest valence mixing into a core orbital is  5.78D-05
 Largest core mixing into a valence orbital is  1.22D-05
 Largest valence mixing into a core orbital is  5.78D-05
 Largest core mixing into a valence orbital is  1.22D-05
 Range of M.O.s used for correlation:    10   175
 NBasis=   175 NAE=    32 NBE=    32 NFC=     9 NFV=     0
 NROrb=    166 NOA=    23 NOB=    23 NVA=   143 NVB=   143
 Leave Link  801 at Fri May 10 12:38:28 2019, MaxMem=   104857600 cpu:               5.3 elap:               0.2
 (Enter /opt/software/gaussian/g16.b01/l914.exe)
 UHF ground state
 Ignoring spin specification with unrestricted ground state.
 Two-electron integrals replicated using symmetry.
 MDV=   104857600 DFT=T DoStab=F Mixed=T DoRPA=T DoScal=F NonHer=T
 NEqPCM:  Using non-equilibrium solvation (IEInf=1, Eps=  35.6880, EpsInf=   1.8069)
 Inv3:  Mode=1 IEnd=     6281427.
 Iteration    1 A*A^-1 deviation from unit magnitude is 3.11D-15 for   1093.
 Iteration    1 A*A^-1 deviation from orthogonality  is 2.42D-15 for    865    220.
 Iteration    1 A^-1*A deviation from unit magnitude is 3.33D-15 for   1093.
 Iteration    1 A^-1*A deviation from orthogonality  is 1.74D-15 for   1215    815.
 Making orbital integer symmetry assigments:
 Orbital symmetries:
 Alpha Orbitals:
       Occupied  (A) (A) (A) (A) (A) (A) (A) (A) (A) (A) (A) (A)
                 (A) (A) (A) (A) (A) (A) (A) (A) (A) (A) (A) (A)
                 (A) (A) (A) (A) (A) (A) (A) (A)
       Virtual   (A) (A) (A) (A) (A) (A) (A) (A) (A) (A) (A) (A)
                 (A) (A) (A) (A) (A) (A) (A) (A) (A) (A) (A) (A)
                 (A) (A) (A) (A) (A) (A) (A) (A) (A) (A) (A) (A)
                 (A) (A) (A) (A) (A) (A) (A) (A) (A) (A) (A) (A)
                 (A) (A) (A) (A) (A) (A) (A) (A) (A) (A) (A) (A)
                 (A) (A) (A) (A) (A) (A) (A) (A) (A) (A) (A) (A)
                 (A) (A) (A) (A) (A) (A) (A) (A) (A) (A) (A) (A)
                 (A) (A) (A) (A) (A) (A) (A) (A) (A) (A) (A) (A)
                 (A) (A) (A) (A) (A) (A) (A) (A) (A) (A) (A) (A)
                 (A) (A) (A) (A) (A) (A) (A) (A) (A) (A) (A) (A)
                 (A) (A) (A) (A) (A) (A) (A) (A) (A) (A) (A) (A)
                 (A) (A) (A) (A) (A) (A) (A) (A) (A) (A) (A)
 Beta  Orbitals:
       Occupied  (A) (A) (A) (A) (A) (A) (A) (A) (A) (A) (A) (A)
                 (A) (A) (A) (A) (A) (A) (A) (A) (A) (A) (A) (A)
                 (A) (A) (A) (A) (A) (A) (A) (A)
       Virtual   (A) (A) (A) (A) (A) (A) (A) (A) (A) (A) (A) (A)
                 (A) (A) (A) (A) (A) (A) (A) (A) (A) (A) (A) (A)
                 (A) (A) (A) (A) (A) (A) (A) (A) (A) (A) (A) (A)
                 (A) (A) (A) (A) (A) (A) (A) (A) (A) (A) (A) (A)
                 (A) (A) (A) (A) (A) (A) (A) (A) (A) (A) (A) (A)
                 (A) (A) (A) (A) (A) (A) (A) (A) (A) (A) (A) (A)
                 (A) (A) (A) (A) (A) (A) (A) (A) (A) (A) (A) (A)
                 (A) (A) (A) (A) (A) (A) (A) (A) (A) (A) (A) (A)
                 (A) (A) (A) (A) (A) (A) (A) (A) (A) (A) (A) (A)
                 (A) (A) (A) (A) (A) (A) (A) (A) (A) (A) (A) (A)
                 (A) (A) (A) (A) (A) (A) (A) (A) (A) (A) (A) (A)
                 (A) (A) (A) (A) (A) (A) (A) (A) (A) (A) (A)
    48 initial guesses have been made.
 Convergence on wavefunction:    0.001000000000000
 Davidson Disk Diagonalization:  ConvIn= 1.00D-03 SkipCon=T Conv= 1.00D-03.
 Max sub-space:  2000 roots to seek:    48 dimension of matrix:         6578
 Iteration     1 Dimension    48 NMult     0 NNew     48
 CISAX will form    10 AO SS matrices at one time.
 NMat=    10 NSing=    10 JSym2X= 0.
 FoFJK:  IHMeth= 1 ICntrl=       0 DoSepK=F KAlg= 0 I1Cent=           0 FoldK=F
 IRaf= 920000000 NMat=      20 IRICut=      25 DoRegI=T DoRafI=T ISym2E= 0 IDoP0=0 IntGTp=1.
 NMat=    10 NSing=    10 JSym2X= 0.
 NMat=    10 NSing=    10 JSym2X= 0.
 NMat=    10 NSing=    10 JSym2X= 0.
 NMat=     8 NSing=     8 JSym2X= 0.
 New state      2 was old state      3
 New state      3 was old state      2
 New state      4 was old state      5
 New state      5 was old state      9
 New state      6 was old state      4
 New state      7 was old state     12
 New state      8 was old state      6
 New state      9 was old state      8
 New state     10 was old state      7
 New state     11 was old state     18
 New state     12 was old state     13
 Excitation Energies [eV] at current iteration:
 Root      1 :     3.402310421727447
 Root      2 :     3.675344354658474
 Root      3 :     3.875854796324637
 Root      4 :     4.048571909450059
 Root      5 :     4.636409179451117
 Root      6 :     4.871019735464919
 Root      7 :     5.190602174993329
 Root      8 :     5.712408847289651
 Root      9 :     5.789198241369943
 Root     10 :     5.808419485210867
 Root     11 :     5.908705263389607
 Root     12 :     6.543664382246954
 Root     13 :     6.582484526144092
 Root     14 :     6.594932702857391
 Root     15 :     6.677762922100838
 Root     16 :     6.754369188450747
 Root     17 :     6.787072776931296
 Root     18 :     6.794014429889693
 Root     19 :     6.913772717813343
 Root     20 :     7.087982924446528
 Root     21 :     7.324760193335710
 Root     22 :     7.494560087305378
 Root     23 :     7.575607210772028
 Root     24 :     7.834214114804076
 Root     25 :     7.851845986523521
 Root     26 :     7.882479538396734
 Root     27 :     7.911565577201414
 Root     28 :     7.983273771330147
 Root     29 :     8.016341460766645
 Root     30 :     8.172185885995461
 Root     31 :     8.228709084610063
 Root     32 :     8.396164200178173
 Root     33 :     8.483351058724505
 Root     34 :     8.526276171090453
 Root     35 :     8.557409744256365
 Root     36 :     8.601362275598449
 Root     37 :     8.616588886730002
 Root     38 :     8.643331225774785
 Root     39 :     8.675780510203937
 Root     40 :     8.732945545782304
 Root     41 :     8.843867756465867
 Root     42 :     8.924568332127818
 Root     43 :     8.936608129401193
 Root     44 :     9.008419508672073
 Root     45 :     9.274468654622845
 Root     46 :     9.301712004860779
 Root     47 :     9.826130695192282
 Root     48 :    10.095516079967668
 Iteration     2 Dimension    72 NMult    48 NNew     24
 CISAX will form     8 AO SS matrices at one time.
 NMat=     8 NSing=     8 JSym2X= 0.
 NMat=     8 NSing=     8 JSym2X= 0.
 NMat=     8 NSing=     8 JSym2X= 0.
 Root      1 not converged, maximum delta is    0.032914033786548
 Root      2 not converged, maximum delta is    0.110249007339232
 Root      3 not converged, maximum delta is    0.019230341515512
 Root      4 not converged, maximum delta is    0.027617920094964
 Root      5 not converged, maximum delta is    0.074131294239939
 Root      6 not converged, maximum delta is    0.040197921836096
 Root      7 not converged, maximum delta is    0.047063624985649
 Root      8 not converged, maximum delta is    0.065111239978451
 New state      9 was old state     11
 Root      9 not converged, maximum delta is    0.153214778882054
 New state     10 was old state      9
 Root     10 not converged, maximum delta is    0.016356002503958
 New state     11 was old state     10
 Root     11 not converged, maximum delta is    0.010149066528213
 Root     12 not converged, maximum delta is    0.049661072399976
 Excitation Energies [eV] at current iteration:
 Root      1 :     3.312074882576733   Change is   -0.090235539150714
 Root      2 :     3.359832241022030   Change is   -0.315512113636444
 Root      3 :     3.828906622784892   Change is   -0.046948173539746
 Root      4 :     3.997200592494820   Change is   -0.051371316955239
 Root      5 :     4.462810871291764   Change is   -0.173598308159352
 Root      6 :     4.746830288646761   Change is   -0.124189446818158
 Root      7 :     5.150119481357035   Change is   -0.040482693636294
 Root      8 :     5.203718233572489   Change is   -0.508690613717162
 Root      9 :     5.420524628115084   Change is   -0.488180635274523
 Root     10 :     5.773233155380181   Change is   -0.015965085989762
 Root     11 :     5.800420799747624   Change is   -0.007998685463242
 Root     12 :     6.443180979114032   Change is   -0.100483403132923
 Iteration     3 Dimension    96 NMult    72 NNew     24
 CISAX will form     8 AO SS matrices at one time.
 NMat=     8 NSing=     8 JSym2X= 0.
 NMat=     8 NSing=     8 JSym2X= 0.
 NMat=     8 NSing=     8 JSym2X= 0.
 Root      1 not converged, maximum delta is    0.002229638602695
 Root      2 not converged, maximum delta is    0.011370948062649
 Root      3 not converged, maximum delta is    0.002513340484380
 Root      4 not converged, maximum delta is    0.002520821860478
 Root      5 not converged, maximum delta is    0.003374496826544
 Root      6 not converged, maximum delta is    0.005385431101729
 Root      7 not converged, maximum delta is    0.006321365371063
 Root      8 not converged, maximum delta is    0.011688197001718
 Root      9 not converged, maximum delta is    0.024217116641622
 Root     10 not converged, maximum delta is    0.001751385275458
 Root     11 not converged, maximum delta is    0.001010130284247
 Root     12 not converged, maximum delta is    0.006986591361898
 Excitation Energies [eV] at current iteration:
 Root      1 :     3.310976070262137   Change is   -0.001098812314596
 Root      2 :     3.351917082029393   Change is   -0.007915158992637
 Root      3 :     3.827295819093712   Change is   -0.001610803691179
 Root      4 :     3.995812623255226   Change is   -0.001387969239594
 Root      5 :     4.459539132498624   Change is   -0.003271738793141
 Root      6 :     4.742174416201149   Change is   -0.004655872445612
 Root      7 :     5.148919891165129   Change is   -0.001199590191907
 Root      8 :     5.182205392463832   Change is   -0.021512841108657
 Root      9 :     5.391784141204886   Change is   -0.028740486910198
 Root     10 :     5.772714441885488   Change is   -0.000518713494693
 Root     11 :     5.800169949807302   Change is   -0.000250849940322
 Root     12 :     6.440695629026703   Change is   -0.002485350087329
 Iteration     4 Dimension   120 NMult    96 NNew     24
 CISAX will form     8 AO SS matrices at one time.
 NMat=     8 NSing=     8 JSym2X= 0.
 NMat=     8 NSing=     8 JSym2X= 0.
 NMat=     8 NSing=     8 JSym2X= 0.
 Root      1 has converged.
 Root      2 has converged.
 Root      3 has converged.
 Root      4 has converged.
 Root      5 has converged.
 Root      6 has converged.
 Root      7 has converged.
 Root      8 not converged, maximum delta is    0.004460432634373
 Root      9 not converged, maximum delta is    0.004300411127910
 Root     10 has converged.
 Root     11 has converged.
 Root     12 not converged, maximum delta is    0.004561869691426
 Excitation Energies [eV] at current iteration:
 Root      1 :     3.310955902683392   Change is   -0.000020167578745
 Root      2 :     3.351756859902476   Change is   -0.000160222126916
 Root      3 :     3.827250976404887   Change is   -0.000044842688825
 Root      4 :     3.995788733447771   Change is   -0.000023889807456
 Root      5 :     4.459468903401216   Change is   -0.000070229097407
 Root      6 :     4.741910803518468   Change is   -0.000263612682680
 Root      7 :     5.148875314089773   Change is   -0.000044577075355
 Root      8 :     5.180054035206166   Change is   -0.002151357257666
 Root      9 :     5.390527036842360   Change is   -0.001257104362527
 Root     10 :     5.772682283194106   Change is   -0.000032158691382
 Root     11 :     5.800155949158056   Change is   -0.000014000649246
 Root     12 :     6.440454029787424   Change is   -0.000241599239279
 Iteration     5 Dimension   126 NMult   120 NNew      6
 CISAX will form     6 AO SS matrices at one time.
 NMat=     6 NSing=     6 JSym2X= 0.
 Root      1 has converged.
 Root      2 has converged.
 Root      3 has converged.
 Root      4 has converged.
 Root      5 has converged.
 Root      6 has converged.
 Root      7 has converged.
 Root      8 not converged, maximum delta is    0.001152149441037
 Root      9 has converged.
 Root     10 has converged.
 Root     11 has converged.
 Root     12 not converged, maximum delta is    0.008994663647375
 Excitation Energies [eV] at current iteration:
 Root      1 :     3.310955862808988   Change is   -0.000000039874404
 Root      2 :     3.351755630092668   Change is   -0.000001229809809
 Root      3 :     3.827250976401880   Change is   -0.000000000003007
 Root      4 :     3.995788697683451   Change is   -0.000000035764320
 Root      5 :     4.459467923911387   Change is   -0.000000979489829
 Root      6 :     4.741910568747792   Change is   -0.000000234770676
 Root      7 :     5.148874748416202   Change is   -0.000000565673571
 Root      8 :     5.179917021813070   Change is   -0.000137013393097
 Root      9 :     5.390463061261576   Change is   -0.000063975580784
 Root     10 :     5.772682145074175   Change is   -0.000000138119932
 Root     11 :     5.800155949157730   Change is   -0.000000000000326
 Root     12 :     6.440409623051874   Change is   -0.000044406735550
 Iteration     6 Dimension   130 NMult   126 NNew      4
 CISAX will form     4 AO SS matrices at one time.
 NMat=     4 NSing=     4 JSym2X= 0.
 Root      1 has converged.
 Root      2 has converged.
 Root      3 has converged.
 Root      4 has converged.
 Root      5 has converged.
 Root      6 has converged.
 Root      7 has converged.
 Root      8 has converged.
 Root      9 has converged.
 Root     10 has converged.
 Root     11 has converged.
 Root     12 not converged, maximum delta is    0.008089076764097
 Excitation Energies [eV] at current iteration:
 Root      1 :     3.310955861199006   Change is   -0.000000001609983
 Root      2 :     3.351755630092251   Change is   -0.000000000000417
 Root      3 :     3.827250976397907   Change is   -0.000000000003973
 Root      4 :     3.995788697683306   Change is   -0.000000000000144
 Root      5 :     4.459467923910208   Change is   -0.000000000001180
 Root      6 :     4.741910378270613   Change is   -0.000000190477179
 Root      7 :     5.148874748416121   Change is   -0.000000000000080
 Root      8 :     5.179908493972452   Change is   -0.000008527840617
 Root      9 :     5.390463061248247   Change is   -0.000000000013329
 Root     10 :     5.772682141680724   Change is   -0.000000003393451
 Root     11 :     5.800155949157602   Change is   -0.000000000000128
 Root     12 :     6.440389801489665   Change is   -0.000019821562208
 Iteration     7 Dimension   132 NMult   130 NNew      2
 CISAX will form     2 AO SS matrices at one time.
 NMat=     2 NSing=     2 JSym2X= 0.
 Root      1 has converged.
 Root      2 has converged.
 Root      3 has converged.
 Root      4 has converged.
 Root      5 has converged.
 Root      6 has converged.
 Root      7 has converged.
 Root      8 has converged.
 Root      9 has converged.
 Root     10 has converged.
 Root     11 has converged.
 No map to state     12
 Excitation Energies [eV] at current iteration:
 Root      1 :     3.310955857660187   Change is   -0.000000003538819
 Root      2 :     3.351755630092152   Change is   -0.000000000000098
 Root      3 :     3.827250976388412   Change is   -0.000000000009494
 Root      4 :     3.995788697683183   Change is   -0.000000000000123
 Root      5 :     4.459467923909065   Change is   -0.000000000001143
 Root      6 :     4.741908548463269   Change is   -0.000001829807343
 Root      7 :     5.148874748415994   Change is   -0.000000000000128
 Root      8 :     5.179908492951633   Change is   -0.000000001020820
 Root      9 :     5.390463061246218   Change is   -0.000000000002028
 Root     10 :     5.772682101645254   Change is   -0.000000040035470
 Root     11 :     5.800155949157602   Change is    0.000000000000000
 Root     12 :     6.349909865283323
 Iteration     8 Dimension   134 NMult   132 NNew      2
 CISAX will form     2 AO SS matrices at one time.
 NMat=     2 NSing=     2 JSym2X= 0.
 Root      1 has converged.
 Root      2 has converged.
 Root      3 has converged.
 Root      4 has converged.
 Root      5 has converged.
 Root      6 has converged.
 Root      7 has converged.
 Root      8 has converged.
 Root      9 has converged.
 Root     10 has converged.
 Root     11 has converged.
 Root     12 not converged, maximum delta is    0.018201622440239
 Excitation Energies [eV] at current iteration:
 Root      1 :     3.310955855802684   Change is   -0.000000001857502
 Root      2 :     3.351755630091981   Change is   -0.000000000000171
 Root      3 :     3.827250976386329   Change is   -0.000000000002083
 Root      4 :     3.995788697683244   Change is    0.000000000000061
 Root      5 :     4.459467923909120   Change is    0.000000000000055
 Root      6 :     4.741907663823963   Change is   -0.000000884639306
 Root      7 :     5.148874748416010   Change is    0.000000000000016
 Root      8 :     5.179908492196485   Change is   -0.000000000755148
 Root      9 :     5.390463061245014   Change is   -0.000000000001205
 Root     10 :     5.772682091351189   Change is   -0.000000010294064
 Root     11 :     5.800155949157376   Change is   -0.000000000000227
 Root     12 :     6.314941614807123   Change is   -0.034968250476201
 Iteration     9 Dimension   136 NMult   134 NNew      2
 CISAX will form     2 AO SS matrices at one time.
 NMat=     2 NSing=     2 JSym2X= 0.
 Root      1 has converged.
 Root      2 has converged.
 Root      3 has converged.
 Root      4 has converged.
 Root      5 has converged.
 Root      6 has converged.
 Root      7 has converged.
 Root      8 has converged.
 Root      9 has converged.
 Root     10 has converged.
 Root     11 has converged.
 Root     12 not converged, maximum delta is    0.004400540970349
 Excitation Energies [eV] at current iteration:
 Root      1 :     3.310955853245750   Change is   -0.000000002556934
 Root      2 :     3.351755630088596   Change is   -0.000000000003385
 Root      3 :     3.827250976294784   Change is   -0.000000000091546
 Root      4 :     3.995788697683183   Change is   -0.000000000000061
 Root      5 :     4.459467923907056   Change is   -0.000000000002065
 Root      6 :     4.741907474411780   Change is   -0.000000189412183
 Root      7 :     5.148874748415962   Change is   -0.000000000000048
 Root      8 :     5.179908485202010   Change is   -0.000000006994475
 Root      9 :     5.390463061221391   Change is   -0.000000000023623
 Root     10 :     5.772682087058034   Change is   -0.000000004293155
 Root     11 :     5.800155949157007   Change is   -0.000000000000369
 Root     12 :     6.313274367092087   Change is   -0.001667247715035
 Iteration    10 Dimension   138 NMult   136 NNew      2
 CISAX will form     2 AO SS matrices at one time.
 NMat=     2 NSing=     2 JSym2X= 0.
 Root      1 has converged.
 Root      2 has converged.
 Root      3 has converged.
 Root      4 has converged.
 Root      5 has converged.
 Root      6 has converged.
 Root      7 has converged.
 Root      8 has converged.
 Root      9 has converged.
 Root     10 has converged.
 Root     11 has converged.
 Root     12 not converged, maximum delta is    0.001118693347017
 Excitation Energies [eV] at current iteration:
 Root      1 :     3.310955846217646   Change is   -0.000000007028104
 Root      2 :     3.351755630087689   Change is   -0.000000000000907
 Root      3 :     3.827250976279984   Change is   -0.000000000014799
 Root      4 :     3.995788697683183   Change is    0.000000000000000
 Root      5 :     4.459467923906595   Change is   -0.000000000000461
 Root      6 :     4.741907140688214   Change is   -0.000000333723565
 Root      7 :     5.148874748415994   Change is    0.000000000000032
 Root      8 :     5.179908482712491   Change is   -0.000000002489519
 Root      9 :     5.390463061216434   Change is   -0.000000000004957
 Root     10 :     5.772682081831097   Change is   -0.000000005226937
 Root     11 :     5.800155949156852   Change is   -0.000000000000156
 Root     12 :     6.313048819077132   Change is   -0.000225548014956
 Iteration    11 Dimension   140 NMult   138 NNew      2
 CISAX will form     2 AO SS matrices at one time.
 NMat=     2 NSing=     2 JSym2X= 0.
 Root      1 has converged.
 Root      2 has converged.
 Root      3 has converged.
 Root      4 has converged.
 Root      5 has converged.
 Root      6 has converged.
 Root      7 has converged.
 Root      8 has converged.
 Root      9 has converged.
 Root     10 has converged.
 Root     11 has converged.
 Root     12 has converged.
 Excitation Energies [eV] at current iteration:
 Root      1 :     3.310955840421307   Change is   -0.000000005796340
 Root      2 :     3.351755630087493   Change is   -0.000000000000196
 Root      3 :     3.827250976278846   Change is   -0.000000000001138
 Root      4 :     3.995788697683121   Change is   -0.000000000000062
 Root      5 :     4.459467923906521   Change is   -0.000000000000074
 Root      6 :     4.741904789895631   Change is   -0.000002350792584
 Root      7 :     5.148874748415962   Change is   -0.000000000000032
 Root      8 :     5.179908481864945   Change is   -0.000000000847546
 Root      9 :     5.390463061213994   Change is   -0.000000000002440
 Root     10 :     5.772682078991528   Change is   -0.000000002839569
 Root     11 :     5.800155949155945   Change is   -0.000000000000907
 Root     12 :     6.313028328483683   Change is   -0.000020490593449
 Convergence achieved on expansion vectors.
 ***********************************************************************
 Excited states from <AA,BB:AA,BB> singles matrix:
 ***********************************************************************
 
 ExtSpn:  IState=     1 X2= 1.003 Y2= 0.003 X2-Y2-1=-2.22D-16
          S2Grnd=  0.000 Ra=  0.500 Rb=  0.500 T=  1.000 S2Ext=  2.000 S2=  2.000
 ExtSpn:  IState=     2 X2= 1.037 Y2= 0.037 X2-Y2-1= 4.44D-16
          S2Grnd=  0.000 Ra=  0.500 Rb=  0.500 T=  1.000 S2Ext=  2.000 S2=  2.000
 ExtSpn:  IState=     3 X2= 1.001 Y2= 0.001 X2-Y2-1=-4.44D-16
          S2Grnd=  0.000 Ra=  0.500 Rb=  0.500 T= -1.000 S2Ext=  0.000 S2=  0.000
 ExtSpn:  IState=     4 X2= 1.004 Y2= 0.004 X2-Y2-1=-1.67D-15
          S2Grnd=  0.000 Ra=  0.500 Rb=  0.500 T=  1.000 S2Ext=  2.000 S2=  2.000
 ExtSpn:  IState=     5 X2= 1.013 Y2= 0.013 X2-Y2-1=-4.44D-16
          S2Grnd=  0.000 Ra=  0.500 Rb=  0.500 T=  1.000 S2Ext=  2.000 S2=  2.000
 ExtSpn:  IState=     6 X2= 1.004 Y2= 0.004 X2-Y2-1= 4.44D-16
          S2Grnd=  0.000 Ra=  0.500 Rb=  0.500 T= -1.000 S2Ext=  0.000 S2=  0.000
 ExtSpn:  IState=     7 X2= 1.003 Y2= 0.003 X2-Y2-1= 8.88D-16
          S2Grnd=  0.000 Ra=  0.500 Rb=  0.500 T=  1.000 S2Ext=  2.000 S2=  2.000
 ExtSpn:  IState=     8 X2= 1.011 Y2= 0.011 X2-Y2-1= 2.22D-16
          S2Grnd=  0.000 Ra=  0.500 Rb=  0.500 T= -1.000 S2Ext=  0.000 S2=  0.000
 ExtSpn:  IState=     9 X2= 1.017 Y2= 0.017 X2-Y2-1=-1.11D-16
          S2Grnd=  0.000 Ra=  0.500 Rb=  0.500 T=  1.000 S2Ext=  2.000 S2=  2.000
 ExtSpn:  IState=    10 X2= 1.000 Y2= 0.000 X2-Y2-1= 0.00D+00
          S2Grnd=  0.000 Ra=  0.500 Rb=  0.500 T=  1.000 S2Ext=  2.000 S2=  2.000
 ExtSpn:  IState=    11 X2= 1.000 Y2= 0.000 X2-Y2-1= 2.22D-16
          S2Grnd=  0.000 Ra=  0.500 Rb=  0.500 T= -1.000 S2Ext=  0.000 S2=  0.000
 ExtSpn:  IState=    12 X2= 1.010 Y2= 0.010 X2-Y2-1= 4.44D-16
          S2Grnd=  0.000 Ra=  0.500 Rb=  0.500 T= -1.000 S2Ext=  0.000 S2=  0.000
 1PDM for each excited state written to RWF  633
 Ground to excited state transition densities written to RWF  633
 Ground to excited state transition electric dipole moments (Au):
       state          X           Y           Z        Dip. S.      Osc.
         1        -0.0000     -0.0000      0.0000      0.0000      0.0000
         2        -0.0000     -0.0000     -0.0000      0.0000      0.0000
         3        -0.0000      0.0000     -0.0203      0.0004      0.0000
         4         0.0000     -0.0000     -0.0000      0.0000      0.0000
         5         0.0000     -0.0000      0.0000      0.0000      0.0000
         6        -0.1372      0.4388      0.0000      0.2114      0.0246
         7        -0.0000      0.0000     -0.0000      0.0000      0.0000
         8        -1.5296     -0.1757     -0.0000      2.3704      0.3008
         9        -0.0000     -0.0000     -0.0000      0.0000      0.0000
        10         0.0000     -0.0000      0.0000      0.0000      0.0000
        11         0.0000     -0.0001      0.0014      0.0000      0.0000
        12        -0.0188     -0.8993     -0.0000      0.8091      0.1251
 Ground to excited state transition velocity dipole moments (Au):
       state          X           Y           Z        Dip. S.      Osc.
         1         0.0000     -0.0000     -0.0000      0.0000      0.0000
         2         0.0000      0.0000     -0.0000      0.0000      0.0000
         3         0.0000      0.0000      0.0012      0.0000      0.0000
         4        -0.0000      0.0000     -0.0000      0.0000      0.0000
         5         0.0000     -0.0000      0.0000      0.0000      0.0000
         6         0.0240     -0.0802     -0.0000      0.0070      0.0268
         7         0.0000      0.0000     -0.0000      0.0000      0.0000
         8         0.2827      0.0277      0.0000      0.0807      0.2825
         9         0.0000      0.0000      0.0000      0.0000      0.0000
        10        -0.0000      0.0000     -0.0000      0.0000      0.0000
        11        -0.0000      0.0000     -0.0029      0.0000      0.0000
        12        -0.0013      0.2099     -0.0000      0.0441      0.1266
 Ground to excited state transition magnetic dipole moments (Au):
       state          X           Y           Z
         1         0.0000      0.0000     -0.0000
         2        -0.0000     -0.0000      0.0000
         3         0.4272      0.7260      0.0000
         4        -0.0000     -0.0000     -0.0000
         5        -0.0000     -0.0000     -0.0000
         6        -0.0000     -0.0000     -0.4761
         7         0.0000      0.0000     -0.0000
         8        -0.0000     -0.0000     -0.0701
         9        -0.0000     -0.0000     -0.0000
        10         0.0000      0.0000      0.0000
        11         0.0948      0.0130      0.0001
        12         0.0000     -0.0000      0.8425
 Ground to excited state transition velocity quadrupole moments (Au):
       state          XX          YY          ZZ          XY          XZ          YZ
         1         0.0000     -0.0000      0.0000     -0.0000     -0.0000      0.0000
         2         0.0000     -0.0000     -0.0000     -0.0000     -0.0000      0.0000
         3         0.0000      0.0000      0.0000     -0.0000     -0.0458      0.0264
         4        -0.0000     -0.0000     -0.0000      0.0000      0.0000     -0.0000
         5        -0.0000      0.0000      0.0000     -0.0000      0.0000     -0.0000
         6         0.0077      0.0083      0.0065     -0.1676     -0.0000     -0.0000
         7         0.0000     -0.0000     -0.0000     -0.0000     -0.0000      0.0000
         8         0.1566     -0.0328      0.0063     -0.1043      0.0000     -0.0000
         9        -0.0000     -0.0000     -0.0000     -0.0000      0.0000     -0.0000
        10         0.0000     -0.0000     -0.0000      0.0001     -0.0000      0.0000
        11         0.0000     -0.0000     -0.0000      0.0001     -0.0201      0.0154
        12         0.0075      0.0053     -0.0129      0.5601      0.0000      0.0000
 <0|del|b> * <b|rxdel|0> + <0|del|b> * <b|delr+rdel|0>
 Rotatory Strengths (R) in cgs (10**-40 erg-esu-cm/Gauss)
       state          XX          YY          ZZ    R(velocity)    E-M Angle
         1        -0.0000      0.0000     -0.0000     -0.0000       90.00
         2        -0.0000     -0.0000     -0.0000     -0.0000       90.00
         3         0.0040      0.0023      0.0053      0.0039       90.00
         4        -0.0000      0.0000     -0.0000      0.0000       90.00
         5         0.0000      0.0000     -0.0000      0.0000       90.00
         6         0.0017     -0.0014      0.0010      0.0004       90.00
         7         0.0000      0.0000     -0.0000      0.0000       90.00
         8        -0.0015     -0.0079     -0.0030     -0.0041       90.00
         9        -0.0000     -0.0000     -0.0000     -0.0000       90.00
        10         0.0000      0.0000      0.0000      0.0000       90.00
        11        -0.0002     -0.0007     -0.0004     -0.0004       90.00
        12        -0.0120     -0.0002     -0.0007     -0.0043       90.00
 1/2[<0|r|b>*<b|rxdel|0> + (<0|rxdel|b>*<b|r|0>)*]
 Rotatory Strengths (R) in cgs (10**-40 erg-esu-cm/Gauss)
       state          XX          YY          ZZ     R(length)
         1         0.0000      0.0000      0.0000      0.0000
         2        -0.0000     -0.0000      0.0000     -0.0000
         3         0.0046     -0.0008      0.0006      0.0015
         4         0.0000     -0.0000     -0.0000     -0.0000
         5         0.0000     -0.0000      0.0000     -0.0000
         6        -0.0032      0.0018      0.0021      0.0003
         7         0.0000     -0.0000     -0.0000     -0.0000
         8        -0.0103     -0.0027     -0.0004     -0.0045
         9        -0.0000     -0.0000     -0.0000     -0.0000
        10        -0.0000      0.0000     -0.0000      0.0000
        11        -0.0002      0.0005     -0.0001      0.0001
        12         0.0004     -0.0121      0.0040     -0.0026
  1/2[<0|del|b>*<b|r|0> + (<0|r|b>*<b|del|0>)*] (Au)
       state          X           Y           Z        Dip. S.   Osc.(frdel)
         1        -0.0000      0.0000     -0.0000     -0.0000     -0.0000
         2        -0.0000     -0.0000      0.0000      0.0000      0.0000
         3        -0.0000      0.0000     -0.0000      0.0000      0.0000
         4        -0.0000     -0.0000      0.0000      0.0000      0.0000
         5         0.0000      0.0000      0.0000     -0.0000     -0.0000
         6        -0.0033     -0.0352     -0.0000      0.0385      0.0257
         7        -0.0000      0.0000      0.0000      0.0000      0.0000
         8        -0.4324     -0.0049     -0.0000      0.4372      0.2915
         9        -0.0000     -0.0000     -0.0000      0.0000      0.0000
        10        -0.0000     -0.0000     -0.0000      0.0000      0.0000
        11        -0.0000     -0.0000     -0.0000      0.0000      0.0000
        12         0.0000     -0.1888      0.0000      0.1887      0.1258

 Excitation energies and oscillator strengths:
 
 Excited State   1:  3.000-A      3.3110 eV  374.47 nm  f=0.0000  <S**2>=2.000
     32A -> 33A       -0.68662
     32A -> 35A        0.16374
     32B -> 33B        0.68663
     32B -> 35B       -0.16374
 This state for optimization and/or second-order correction.
 Total Energy, E(TD-HF/TD-DFT) =  -384.803906825    
 Copying the excited state density for this state as the 1-particle RhoCI density.
 
 Excited State   2:  3.000-A      3.3518 eV  369.91 nm  f=0.0000  <S**2>=2.000
     30A -> 33A       -0.42204
     30A -> 34A       -0.18671
     31A -> 33A       -0.47600
     31A -> 34A        0.20680
     30B -> 33B        0.42204
     30B -> 34B        0.18671
     31B -> 33B        0.47600
     31B -> 34B       -0.20680
 
 Excited State   3:  1.000-A      3.8273 eV  323.95 nm  f=0.0000  <S**2>=0.000
     32A -> 33A        0.69593
     32A -> 35A       -0.12039
     32B -> 33B        0.69592
     32B -> 35B       -0.12039
 
 Excited State   4:  3.000-A      3.9958 eV  310.29 nm  f=0.0000  <S**2>=2.000
     30A -> 33A       -0.50817
     31A -> 33A        0.46865
     30B -> 33B        0.50817
     31B -> 33B       -0.46865
 
 Excited State   5:  3.000-A      4.4595 eV  278.02 nm  f=0.0000  <S**2>=2.000
     30A -> 33A       -0.20665
     30A -> 34A        0.41507
     31A -> 33A       -0.18930
     31A -> 34A       -0.48816
     30B -> 33B        0.20665
     30B -> 34B       -0.41507
     31B -> 33B        0.18930
     31B -> 34B        0.48816
 
 Excited State   6:  1.000-A      4.7419 eV  261.46 nm  f=0.0246  <S**2>=0.000
     30A -> 33A       -0.43036
     30A -> 34A        0.17811
     31A -> 33A        0.50451
     31A -> 34A        0.16863
     30B -> 33B       -0.43036
     30B -> 34B        0.17811
     31B -> 33B        0.50450
     31B -> 34B        0.16863
 
 Excited State   7:  3.000-A      5.1489 eV  240.80 nm  f=0.0000  <S**2>=2.000
     30A -> 34A        0.52834
     31A -> 34A        0.44694
     30B -> 34B       -0.52834
     31B -> 34B       -0.44694
 
 Excited State   8:  1.000-A      5.1799 eV  239.36 nm  f=0.3008  <S**2>=0.000
     30A -> 33A        0.51584
     31A -> 33A        0.45662
     31A -> 34A       -0.11865
     30B -> 33B        0.51584
     31B -> 33B        0.45662
     31B -> 34B       -0.11865
 
 Excited State   9:  3.000-A      5.3905 eV  230.01 nm  f=0.0000  <S**2>=2.000
     22A -> 33A       -0.14872
     26A -> 33A        0.11149
     28A -> 33A       -0.56505
     28A -> 35A        0.13756
     30A -> 35A        0.20435
     31A -> 34A        0.11632
     31A -> 35A        0.24119
     22B -> 33B        0.14872
     26B -> 33B       -0.11149
     28B -> 33B        0.56505
     28B -> 35B       -0.13756
     30B -> 35B       -0.20435
     31B -> 34B       -0.11632
     31B -> 35B       -0.24120
 
 Excited State  10:  3.000-A      5.7727 eV  214.78 nm  f=0.0000  <S**2>=2.000
     32A -> 34A        0.70395
     32B -> 34B       -0.70395
 
 Excited State  11:  1.000-A      5.8002 eV  213.76 nm  f=0.0000  <S**2>=0.000
     32A -> 34A        0.70592
     32B -> 34B        0.70592
 
 Excited State  12:  1.000-A      6.3130 eV  196.39 nm  f=0.1251  <S**2>=0.000
     30A -> 33A        0.17053
     30A -> 34A        0.42870
     30A -> 35A       -0.20968
     31A -> 33A       -0.14513
     31A -> 34A        0.41424
     31A -> 35A        0.21969
     30B -> 33B        0.17053
     30B -> 34B        0.42870
     30B -> 35B       -0.20968
     31B -> 33B       -0.14513
     31B -> 34B        0.41424
     31B -> 35B        0.21969
 SavETr:  write IOETrn=   770 NScale= 10 NData=  16 NLR=1 NState=   12 LETran=     226.
 Leave Link  914 at Fri May 10 12:39:34 2019, MaxMem=   104857600 cpu:            2104.1 elap:              66.1
 (Enter /opt/software/gaussian/g16.b01/l601.exe)
 Copying SCF densities to generalized density rwf, IOpCl= 1 IROHF=0.

 **********************************************************************

            Population analysis using the SCF Density.

 **********************************************************************

 Orbital symmetries:
 Alpha Orbitals:
       Occupied  (A) (A) (A) (A) (A) (A) (A) (A) (A) (A) (A) (A)
                 (A) (A) (A) (A) (A) (A) (A) (A) (A) (A) (A) (A)
                 (A) (A) (A) (A) (A) (A) (A) (A)
       Virtual   (A) (A) (A) (A) (A) (A) (A) (A) (A) (A) (A) (A)
                 (A) (A) (A) (A) (A) (A) (A) (A) (A) (A) (A) (A)
                 (A) (A) (A) (A) (A) (A) (A) (A) (A) (A) (A) (A)
                 (A) (A) (A) (A) (A) (A) (A) (A) (A) (A) (A) (A)
                 (A) (A) (A) (A) (A) (A) (A) (A) (A) (A) (A) (A)
                 (A) (A) (A) (A) (A) (A) (A) (A) (A) (A) (A) (A)
                 (A) (A) (A) (A) (A) (A) (A) (A) (A) (A) (A) (A)
                 (A) (A) (A) (A) (A) (A) (A) (A) (A) (A) (A) (A)
                 (A) (A) (A) (A) (A) (A) (A) (A) (A) (A) (A) (A)
                 (A) (A) (A) (A) (A) (A) (A) (A) (A) (A) (A) (A)
                 (A) (A) (A) (A) (A) (A) (A) (A) (A) (A) (A) (A)
                 (A) (A) (A) (A) (A) (A) (A) (A) (A) (A) (A)
 Beta  Orbitals:
       Occupied  (A) (A) (A) (A) (A) (A) (A) (A) (A) (A) (A) (A)
                 (A) (A) (A) (A) (A) (A) (A) (A) (A) (A) (A) (A)
                 (A) (A) (A) (A) (A) (A) (A) (A)
       Virtual   (A) (A) (A) (A) (A) (A) (A) (A) (A) (A) (A) (A)
                 (A) (A) (A) (A) (A) (A) (A) (A) (A) (A) (A) (A)
                 (A) (A) (A) (A) (A) (A) (A) (A) (A) (A) (A) (A)
                 (A) (A) (A) (A) (A) (A) (A) (A) (A) (A) (A) (A)
                 (A) (A) (A) (A) (A) (A) (A) (A) (A) (A) (A) (A)
                 (A) (A) (A) (A) (A) (A) (A) (A) (A) (A) (A) (A)
                 (A) (A) (A) (A) (A) (A) (A) (A) (A) (A) (A) (A)
                 (A) (A) (A) (A) (A) (A) (A) (A) (A) (A) (A) (A)
                 (A) (A) (A) (A) (A) (A) (A) (A) (A) (A) (A) (A)
                 (A) (A) (A) (A) (A) (A) (A) (A) (A) (A) (A) (A)
                 (A) (A) (A) (A) (A) (A) (A) (A) (A) (A) (A) (A)
                 (A) (A) (A) (A) (A) (A) (A) (A) (A) (A) (A)
 The electronic state is 1-A.
 Alpha  occ. eigenvalues --  -19.14107 -10.28144 -10.20331 -10.20275 -10.20193
 Alpha  occ. eigenvalues --  -10.19878 -10.19825 -10.19759 -10.18673  -1.03876
 Alpha  occ. eigenvalues --   -0.86248  -0.77402  -0.75333  -0.72999  -0.63031
 Alpha  occ. eigenvalues --   -0.60900  -0.55296  -0.51197  -0.46619  -0.46038
 Alpha  occ. eigenvalues --   -0.44673  -0.44221  -0.42713  -0.41729  -0.39039
 Alpha  occ. eigenvalues --   -0.37920  -0.35933  -0.35408  -0.34693  -0.26179
 Alpha  occ. eigenvalues --   -0.25928  -0.25469
 Alpha virt. eigenvalues --   -0.05846  -0.00946   0.03844   0.09316   0.12003
 Alpha virt. eigenvalues --    0.14866   0.15453   0.15974   0.16665   0.18196
 Alpha virt. eigenvalues --    0.18907   0.20011   0.22307   0.26748   0.28928
 Alpha virt. eigenvalues --    0.30109   0.31569   0.34643   0.36649   0.47669
 Alpha virt. eigenvalues --    0.50659   0.51872   0.53022   0.53755   0.55247
 Alpha virt. eigenvalues --    0.56418   0.58079   0.58471   0.59696   0.59832
 Alpha virt. eigenvalues --    0.60730   0.61240   0.64618   0.66158   0.66309
 Alpha virt. eigenvalues --    0.68555   0.72300   0.73760   0.76313   0.80245
 Alpha virt. eigenvalues --    0.80744   0.81587   0.82890   0.84407   0.86018
 Alpha virt. eigenvalues --    0.88317   0.89279   0.92449   0.93766   0.95270
 Alpha virt. eigenvalues --    0.97322   1.00799   1.02465   1.05336   1.07837
 Alpha virt. eigenvalues --    1.11854   1.14728   1.17839   1.24267   1.26339
 Alpha virt. eigenvalues --    1.26714   1.30610   1.33926   1.38048   1.39654
 Alpha virt. eigenvalues --    1.41045   1.42154   1.42286   1.44122   1.44874
 Alpha virt. eigenvalues --    1.58090   1.67447   1.71375   1.75047   1.75409
 Alpha virt. eigenvalues --    1.77048   1.81319   1.85716   1.87405   1.88657
 Alpha virt. eigenvalues --    1.92010   1.92024   1.94090   1.96506   1.96882
 Alpha virt. eigenvalues --    1.99565   2.02698   2.02951   2.05875   2.06925
 Alpha virt. eigenvalues --    2.07231   2.12070   2.16526   2.16796   2.27232
 Alpha virt. eigenvalues --    2.28016   2.29358   2.32923   2.36525   2.37571
 Alpha virt. eigenvalues --    2.38708   2.40658   2.44177   2.45121   2.45863
 Alpha virt. eigenvalues --    2.48603   2.51488   2.53090   2.57006   2.58510
 Alpha virt. eigenvalues --    2.59426   2.64521   2.65228   2.65252   2.72595
 Alpha virt. eigenvalues --    2.74418   2.75281   2.81373   2.84527   2.87141
 Alpha virt. eigenvalues --    2.93649   3.03113   3.05419   3.07763   3.18398
 Alpha virt. eigenvalues --    3.22230   3.23762   3.25096   3.37863   3.41822
 Alpha virt. eigenvalues --    3.42494   3.45552   3.51003   3.88873   3.97310
 Alpha virt. eigenvalues --    4.11784   4.14827   4.15935   4.34091   4.41904
 Alpha virt. eigenvalues --    4.42952   4.59267   4.83197
  Beta  occ. eigenvalues --  -19.14107 -10.28144 -10.20331 -10.20275 -10.20193
  Beta  occ. eigenvalues --  -10.19878 -10.19825 -10.19759 -10.18673  -1.03876
  Beta  occ. eigenvalues --   -0.86248  -0.77402  -0.75333  -0.72999  -0.63031
  Beta  occ. eigenvalues --   -0.60900  -0.55296  -0.51197  -0.46619  -0.46038
  Beta  occ. eigenvalues --   -0.44673  -0.44221  -0.42713  -0.41729  -0.39039
  Beta  occ. eigenvalues --   -0.37920  -0.35933  -0.35408  -0.34693  -0.26179
  Beta  occ. eigenvalues --   -0.25928  -0.25469
  Beta virt. eigenvalues --   -0.05846  -0.00946   0.03844   0.09316   0.12003
  Beta virt. eigenvalues --    0.14866   0.15453   0.15974   0.16665   0.18196
  Beta virt. eigenvalues --    0.18907   0.20011   0.22307   0.26748   0.28928
  Beta virt. eigenvalues --    0.30109   0.31569   0.34643   0.36649   0.47669
  Beta virt. eigenvalues --    0.50659   0.51872   0.53022   0.53755   0.55247
  Beta virt. eigenvalues --    0.56418   0.58079   0.58471   0.59696   0.59832
  Beta virt. eigenvalues --    0.60730   0.61240   0.64618   0.66158   0.66309
  Beta virt. eigenvalues --    0.68555   0.72300   0.73760   0.76313   0.80245
  Beta virt. eigenvalues --    0.80744   0.81587   0.82890   0.84407   0.86018
  Beta virt. eigenvalues --    0.88317   0.89279   0.92449   0.93766   0.95270
  Beta virt. eigenvalues --    0.97322   1.00799   1.02465   1.05336   1.07837
  Beta virt. eigenvalues --    1.11854   1.14728   1.17839   1.24267   1.26339
  Beta virt. eigenvalues --    1.26714   1.30610   1.33926   1.38048   1.39654
  Beta virt. eigenvalues --    1.41045   1.42154   1.42286   1.44122   1.44874
  Beta virt. eigenvalues --    1.58090   1.67447   1.71375   1.75047   1.75409
  Beta virt. eigenvalues --    1.77048   1.81319   1.85716   1.87405   1.88657
  Beta virt. eigenvalues --    1.92010   1.92024   1.94090   1.96506   1.96882
  Beta virt. eigenvalues --    1.99565   2.02698   2.02951   2.05875   2.06925
  Beta virt. eigenvalues --    2.07231   2.12070   2.16526   2.16796   2.27232
  Beta virt. eigenvalues --    2.28016   2.29358   2.32923   2.36525   2.37571
  Beta virt. eigenvalues --    2.38708   2.40658   2.44177   2.45121   2.45863
  Beta virt. eigenvalues --    2.48603   2.51488   2.53090   2.57006   2.58510
  Beta virt. eigenvalues --    2.59426   2.64521   2.65228   2.65252   2.72595
  Beta virt. eigenvalues --    2.74418   2.75281   2.81373   2.84527   2.87141
  Beta virt. eigenvalues --    2.93649   3.03113   3.05419   3.07763   3.18398
  Beta virt. eigenvalues --    3.22230   3.23762   3.25096   3.37863   3.41822
  Beta virt. eigenvalues --    3.42494   3.45552   3.51003   3.88873   3.97310
  Beta virt. eigenvalues --    4.11784   4.14827   4.15935   4.34091   4.41904
  Beta virt. eigenvalues --    4.42952   4.59267   4.83197
          Condensed to atoms (all electrons):
               1          2          3          4          5          6
     1  C    4.561065   0.568416   0.333849  -0.018111  -0.018106  -0.022029
     2  O    0.568416   8.080957  -0.090353   0.001552   0.001555   0.005491
     3  C    0.333849  -0.090353   5.177158   0.362622   0.362615   0.359449
     4  H   -0.018111   0.001552   0.362622   0.553526  -0.026900  -0.022151
     5  H   -0.018106   0.001555   0.362615  -0.026900   0.553549  -0.022160
     6  H   -0.022029   0.005491   0.359449  -0.022151  -0.022160   0.564572
     7  C    0.281866  -0.087936  -0.113023   0.000744   0.000743   0.005896
     8  C   -0.032578  -0.001419   0.009706  -0.000343  -0.000343  -0.000142
     9  C   -0.039507   0.004305  -0.007889   0.000324   0.000324   0.000063
    10  C    0.006617   0.001053  -0.000111  -0.000004  -0.000004   0.000002
    11  H   -0.010234   0.017340   0.000726  -0.000022  -0.000022  -0.000017
    12  C    0.004732  -0.000069  -0.000069   0.000105   0.000105  -0.000002
    13  H   -0.011453   0.000071   0.006865   0.000845   0.000847  -0.000100
    14  C    0.000079  -0.000015  -0.000012   0.000001   0.000001   0.000000
    15  H   -0.000146   0.000003   0.000002   0.000000   0.000000  -0.000000
    16  H   -0.000122   0.000000   0.000010  -0.000004  -0.000004  -0.000000
    17  H    0.000008   0.000000  -0.000000   0.000000   0.000000  -0.000000
               7          8          9         10         11         12
     1  C    0.281866  -0.032578  -0.039507   0.006617  -0.010234   0.004732
     2  O   -0.087936  -0.001419   0.004305   0.001053   0.017340  -0.000069
     3  C   -0.113023   0.009706  -0.007889  -0.000111   0.000726  -0.000069
     4  H    0.000744  -0.000343   0.000324  -0.000004  -0.000022   0.000105
     5  H    0.000743  -0.000343   0.000324  -0.000004  -0.000022   0.000105
     6  H    0.005896  -0.000142   0.000063   0.000002  -0.000017  -0.000002
     7  C    5.041087   0.484231   0.502540  -0.026775  -0.049234  -0.020407
     8  C    0.484231   4.965364  -0.075333   0.493688   0.369174  -0.040189
     9  C    0.502540  -0.075333   4.959149  -0.039421   0.005740   0.516974
    10  C   -0.026775   0.493688  -0.039421   4.868429  -0.039617  -0.032562
    11  H   -0.049234   0.369174   0.005740  -0.039617   0.595391   0.000229
    12  C   -0.020407  -0.040189   0.516974  -0.032562   0.000229   4.835762
    13  H   -0.039030   0.005283   0.370221   0.000293  -0.000153  -0.039861
    14  C   -0.035228  -0.036131  -0.040155   0.529913   0.004589   0.541715
    15  H    0.003575  -0.037375   0.000773   0.373628  -0.005235   0.004385
    16  H    0.003445   0.000768  -0.035797   0.004355   0.000016   0.372553
    17  H    0.000653   0.004335   0.004684  -0.039817  -0.000159  -0.039578
              13         14         15         16         17
     1  C   -0.011453   0.000079  -0.000146  -0.000122   0.000008
     2  O    0.000071  -0.000015   0.000003   0.000000   0.000000
     3  C    0.006865  -0.000012   0.000002   0.000010  -0.000000
     4  H    0.000845   0.000001   0.000000  -0.000004   0.000000
     5  H    0.000847   0.000001   0.000000  -0.000004   0.000000
     6  H   -0.000100   0.000000  -0.000000  -0.000000  -0.000000
     7  C   -0.039030  -0.035228   0.003575   0.003445   0.000653
     8  C    0.005283  -0.036131  -0.037375   0.000768   0.004335
     9  C    0.370221  -0.040155   0.000773  -0.035797   0.004684
    10  C    0.000293   0.529913   0.373628   0.004355  -0.039817
    11  H   -0.000153   0.004589  -0.005235   0.000016  -0.000159
    12  C   -0.039861   0.541715   0.004385   0.372553  -0.039578
    13  H    0.595110   0.004651   0.000015  -0.005617  -0.000170
    14  C    0.004651   4.823335  -0.040484  -0.039986   0.373800
    15  H    0.000015  -0.040484   0.595997  -0.000169  -0.005544
    16  H   -0.005617  -0.039986  -0.000169   0.594685  -0.005606
    17  H   -0.000170   0.373800  -0.005544  -0.005606   0.594618
          Atomic-Atomic Spin Densities.
               1          2          3          4          5          6
     1  C   -0.000000  -0.000000   0.000000   0.000000   0.000000  -0.000000
     2  O   -0.000000   0.000001   0.000000   0.000000   0.000000  -0.000000
     3  C    0.000000   0.000000  -0.000000   0.000000   0.000000   0.000000
     4  H    0.000000   0.000000   0.000000  -0.000000   0.000000  -0.000000
     5  H    0.000000   0.000000   0.000000   0.000000  -0.000000  -0.000000
     6  H   -0.000000  -0.000000   0.000000  -0.000000  -0.000000  -0.000000
     7  C    0.000000  -0.000000  -0.000000  -0.000000  -0.000000   0.000000
     8  C    0.000000   0.000000  -0.000000  -0.000000  -0.000000   0.000000
     9  C    0.000000  -0.000000   0.000000  -0.000000  -0.000000  -0.000000
    10  C   -0.000000   0.000000  -0.000000   0.000000   0.000000   0.000000
    11  H    0.000000  -0.000000  -0.000000   0.000000   0.000000   0.000000
    12  C   -0.000000  -0.000000  -0.000000   0.000000   0.000000  -0.000000
    13  H   -0.000000  -0.000000   0.000000  -0.000000  -0.000000   0.000000
    14  C   -0.000000   0.000000   0.000000   0.000000   0.000000  -0.000000
    15  H    0.000000  -0.000000  -0.000000  -0.000000  -0.000000   0.000000
    16  H    0.000000  -0.000000  -0.000000   0.000000   0.000000  -0.000000
    17  H    0.000000   0.000000   0.000000  -0.000000  -0.000000  -0.000000
               7          8          9         10         11         12
     1  C    0.000000   0.000000   0.000000  -0.000000   0.000000  -0.000000
     2  O   -0.000000   0.000000  -0.000000   0.000000  -0.000000  -0.000000
     3  C   -0.000000  -0.000000   0.000000  -0.000000  -0.000000  -0.000000
     4  H   -0.000000  -0.000000  -0.000000   0.000000   0.000000   0.000000
     5  H   -0.000000  -0.000000  -0.000000   0.000000   0.000000   0.000000
     6  H    0.000000   0.000000  -0.000000   0.000000   0.000000  -0.000000
     7  C    0.000003  -0.000000   0.000000  -0.000000  -0.000000  -0.000000
     8  C   -0.000000  -0.000003   0.000000   0.000000   0.000000  -0.000000
     9  C    0.000000   0.000000  -0.000003   0.000000  -0.000000   0.000000
    10  C   -0.000000   0.000000   0.000000   0.000003  -0.000000  -0.000000
    11  H   -0.000000   0.000000  -0.000000  -0.000000   0.000000   0.000000
    12  C   -0.000000  -0.000000   0.000000  -0.000000   0.000000   0.000003
    13  H   -0.000000  -0.000000   0.000000   0.000000  -0.000000  -0.000000
    14  C    0.000000   0.000000   0.000000  -0.000000  -0.000000  -0.000000
    15  H    0.000000   0.000000  -0.000000  -0.000000  -0.000000   0.000000
    16  H    0.000000  -0.000000   0.000000   0.000000   0.000000   0.000000
    17  H    0.000000  -0.000000  -0.000000  -0.000000  -0.000000  -0.000000
              13         14         15         16         17
     1  C   -0.000000  -0.000000   0.000000   0.000000   0.000000
     2  O   -0.000000   0.000000  -0.000000  -0.000000   0.000000
     3  C    0.000000   0.000000  -0.000000  -0.000000   0.000000
     4  H   -0.000000   0.000000  -0.000000   0.000000  -0.000000
     5  H   -0.000000   0.000000  -0.000000   0.000000  -0.000000
     6  H    0.000000  -0.000000   0.000000  -0.000000  -0.000000
     7  C   -0.000000   0.000000   0.000000   0.000000   0.000000
     8  C   -0.000000   0.000000   0.000000  -0.000000  -0.000000
     9  C    0.000000   0.000000  -0.000000   0.000000  -0.000000
    10  C    0.000000  -0.000000  -0.000000   0.000000  -0.000000
    11  H   -0.000000  -0.000000  -0.000000   0.000000  -0.000000
    12  C   -0.000000  -0.000000   0.000000   0.000000  -0.000000
    13  H    0.000000  -0.000000  -0.000000   0.000000  -0.000000
    14  C   -0.000000  -0.000003   0.000000   0.000000  -0.000000
    15  H   -0.000000   0.000000  -0.000000   0.000000  -0.000000
    16  H    0.000000   0.000000   0.000000  -0.000000   0.000000
    17  H   -0.000000  -0.000000  -0.000000   0.000000   0.000000
 Mulliken charges and spin densities:
               1          2
     1  C    0.395655  -0.000000
     2  O   -0.500951   0.000000
     3  C   -0.401543  -0.000000
     4  H    0.147817  -0.000000
     5  H    0.147801  -0.000000
     6  H    0.131130  -0.000000
     7  C    0.046852   0.000002
     8  C   -0.108694  -0.000003
     9  C   -0.126997  -0.000003
    10  C   -0.099667   0.000003
    11  H    0.111488   0.000000
    12  C   -0.103824   0.000003
    13  H    0.112182   0.000000
    14  C   -0.086075  -0.000003
    15  H    0.110575  -0.000000
    16  H    0.111472  -0.000000
    17  H    0.112776   0.000000
 Sum of Mulliken charges =  -0.00000   0.00000
 Mulliken charges and spin densities with hydrogens summed into heavy atoms:
               1          2
     1  C    0.395655  -0.000000
     2  O   -0.500951   0.000000
     3  C    0.025205  -0.000000
     7  C    0.046852   0.000002
     8  C    0.002794  -0.000002
     9  C   -0.014815  -0.000002
    10  C    0.010909   0.000002
    12  C    0.007649   0.000002
    14  C    0.026702  -0.000003
 Electronic spatial extent (au):  <R**2>=           1235.0977
 Charge=             -0.0000 electrons
 Dipole moment (field-independent basis, Debye):
    X=              2.4229    Y=              3.1682    Z=             -0.0002  Tot=              3.9885
 Quadrupole moment (field-independent basis, Debye-Ang):
   XX=            -49.8806   YY=            -49.5182   ZZ=            -53.9894
   XY=             -7.3140   XZ=             -0.0008   YZ=             -0.0002
 Traceless Quadrupole moment (field-independent basis, Debye-Ang):
   XX=              1.2488   YY=              1.6112   ZZ=             -2.8600
   XY=             -7.3140   XZ=             -0.0008   YZ=             -0.0002
 Octapole moment (field-independent basis, Debye-Ang**2):
  XXX=             20.2047  YYY=              3.7401  ZZZ=              0.0002  XYY=              9.9908
  XXY=             15.8401  XXZ=             -0.0023  XZZ=             -8.7656  YZZ=             -0.6909
  YYZ=             -0.0014  XYZ=             -0.0005
 Hexadecapole moment (field-independent basis, Debye-Ang**3):
 XXXX=          -1081.5569 YYYY=           -399.3571 ZZZZ=            -59.8091 XXXY=            -29.9979
 XXXZ=             -0.0034 YYYX=             -5.2284 YYYZ=             -0.0026 ZZZX=             -0.0024
 ZZZY=              0.0012 XXYY=           -262.0182 XXZZ=           -208.5473 YYZZ=            -83.0978
 XXYZ=             -0.0003 YYXZ=             -0.0028 ZZXY=              1.1294
 N-N= 4.005117386504D+02 E-N=-1.695278712815D+03  KE= 3.812319387701D+02
 Leave Link  601 at Fri May 10 12:39:35 2019, MaxMem=   104857600 cpu:               3.7 elap:               0.2
 (Enter /opt/software/gaussian/g16.b01/l9999.exe)
 Electronic transition elements 
                 1             2             3             4             5 
      1  -0.384804D+03 -0.384802D+03 -0.384785D+03 -0.384779D+03 -0.384762D+03
      2  -0.827352D-05  0.000000D+00 -0.152162D-04  0.000000D+00  0.000000D+00
      3  -0.202337D-04  0.000000D+00  0.164924D-05  0.000000D+00  0.000000D+00
      4   0.000000D+00  0.000000D+00 -0.203172D-01  0.000000D+00  0.000000D+00
      5   0.328840D-05  0.000000D+00  0.186229D-05  0.000000D+00  0.000000D+00
      6  -0.409004D-05  0.000000D+00  0.203004D-05  0.000000D+00  0.000000D+00
      7   0.000000D+00  0.000000D+00  0.116753D-02  0.000000D+00  0.000000D+00
      8   0.146252D-05  0.000000D+00  0.427184D+00  0.000000D+00  0.000000D+00
      9   0.229695D-05  0.000000D+00  0.726023D+00  0.000000D+00  0.000000D+00
     10  -0.677729D-05  0.000000D+00  0.444110D-04 -0.150816D-05  0.000000D+00
     11   0.128134D-05  0.000000D+00  0.135476D-04  0.000000D+00  0.000000D+00
     12  -0.169476D-05  0.000000D+00  0.225547D-05  0.000000D+00  0.000000D+00
     13   0.183899D-05  0.000000D+00  0.194602D-05  0.000000D+00  0.000000D+00
     14  -0.117824D-04  0.000000D+00 -0.259966D-04  0.000000D+00  0.000000D+00
     15   0.000000D+00  0.000000D+00 -0.458095D-01  0.000000D+00  0.000000D+00
     16   0.000000D+00  0.000000D+00  0.263575D-01  0.000000D+00  0.000000D+00
                 6             7             8             9            10 
      1  -0.384751D+03 -0.384736D+03 -0.384735D+03 -0.384727D+03 -0.384713D+03
      2  -0.137243D+00 -0.175051D-05 -0.152957D+01 -0.271927D-05  0.000000D+00
      3   0.438775D+00  0.000000D+00 -0.175678D+00 -0.145488D-05 -0.689672D-05
      4   0.627870D-05  0.000000D+00 -0.728442D-05  0.000000D+00  0.000000D+00
      5   0.240166D-01  0.000000D+00  0.282664D+00  0.000000D+00  0.000000D+00
      6  -0.802194D-01  0.000000D+00  0.276659D-01  0.000000D+00  0.272517D-04
      7  -0.128636D-05  0.000000D+00  0.000000D+00  0.000000D+00  0.000000D+00
      8  -0.324825D-04  0.000000D+00 -0.953794D-05  0.000000D+00  0.000000D+00
      9  -0.594149D-05  0.000000D+00 -0.215803D-04  0.000000D+00  0.000000D+00
     10  -0.476144D+00 -0.326779D-05 -0.701166D-01 -0.124826D-05  0.342797D-04
     11   0.770925D-02  0.000000D+00  0.156632D+00 -0.136792D-05  0.242255D-05
     12   0.834813D-02  0.000000D+00 -0.328438D-01  0.000000D+00 -0.432405D-04
     13   0.648956D-02  0.000000D+00  0.630679D-02  0.000000D+00 -0.321468D-05
     14  -0.167561D+00  0.000000D+00 -0.104307D+00  0.000000D+00  0.627073D-04
     15  -0.594235D-05  0.000000D+00  0.534296D-05  0.000000D+00  0.000000D+00
     16  -0.130363D-04  0.000000D+00 -0.546570D-05  0.000000D+00  0.000000D+00
                11            12 
      1  -0.384712D+03 -0.384694D+03
      2   0.297391D-05 -0.187695D-01
      3  -0.579409D-04 -0.899312D+00
      4   0.137923D-02 -0.675776D-05
      5  -0.192567D-05 -0.130886D-02
      6   0.114068D-04  0.209888D+00
      7  -0.293669D-02  0.000000D+00
      8   0.947845D-01  0.303185D-04
      9   0.130435D-01 -0.191025D-04
     10   0.115784D-03  0.842457D+00
     11   0.410851D-04  0.747779D-02
     12  -0.162091D-04  0.526171D-02
     13  -0.434393D-05 -0.129251D-01
     14   0.540074D-04  0.560113D+00
     15  -0.200856D-01  0.168126D-04
     16   0.154203D-01  0.252924D-04
 1\1\GINC-GRA677\SP\UB3LYP TD-FC\6-31G(d,p)\C8H8O1\RZK\10-May-2019\0\\#
 p td=(50-50,nstates=12) ub3lyp/6-31g(d,p) scrf=(iefpcm,solvent=acetoni
 trile) guess=(core,mix,always) empiricaldispersion=gd3\\Title Card Req
 uired\\0,1\C,0,-1.697308,-0.201402,-0.000018\O,0,-2.217905,-1.312239,-
 0.000029\C,0,-2.553274,1.049452,-0.000024\H,0,-2.343318,1.663518,0.882
 011\H,0,-2.342868,1.663956,-0.881626\H,0,-3.604616,0.76106,-0.000401\C
 ,0,-0.206967,-0.05671,0.000057\C,0,0.578022,-1.222025,0.000049\C,0,0.4
 28351,1.195472,0.000075\C,0,1.96697,-1.139173,-0.000003\H,0,0.075953,-
 2.183491,0.000004\C,0,1.820979,1.278019,-0.000002\H,0,-0.155236,2.1095
 23,-0.000039\C,0,2.59142,0.112896,-0.000029\H,0,2.56501,-2.045346,-0.0
 00081\H,0,2.303854,2.250264,-0.000141\H,0,3.675304,0.179252,-0.000125\
 \Version=ES64L-G16RevB.01\State=1-A\HF=-384.9255822\S2=0.\S2-1=0.\S2A=
 0.\RMSD=6.610e-09\PG=C01 [X(C8H8O1)]\\@


 THE WORLD IS MADE UP OF THE WILLS, THE WON'TS, AND THE CANT'S:
 THE WILLS DO EVERYTHING,
 THE WON'TS DO NOTHING,
 THE CAN'TS CAN'T DO ANYTHING.

                               -- FROM WALT DISNEY'S "BLACK HOLE"
 Job cpu time:       0 days  0 hours 41 minutes 45.3 seconds.
 Elapsed time:       0 days  0 hours  1 minutes 19.4 seconds.
 File lengths (MBytes):  RWF=    366 Int=      0 D2E=      0 Chk=     18 Scr=      1
 Normal termination of Gaussian 16 at Fri May 10 12:39:35 2019.
