 Entering Gaussian System, Link 0=g16
 Initial command:
 /opt/software/gaussian/g16.b01/l1.exe "/localscratch/rzk.14592377.0/Gau-19097.inp" -scrdir="/localscratch/rzk.14592377.0/"
 Entering Link 1 = /opt/software/gaussian/g16.b01/l1.exe PID=     19098.
  
 Copyright (c) 1988-2017, Gaussian, Inc.  All Rights Reserved.
  
 This is part of the Gaussian(R) 16 program.  It is based on
 the Gaussian(R) 09 system (copyright 2009, Gaussian, Inc.),
 the Gaussian(R) 03 system (copyright 2003, Gaussian, Inc.),
 the Gaussian(R) 98 system (copyright 1998, Gaussian, Inc.),
 the Gaussian(R) 94 system (copyright 1995, Gaussian, Inc.),
 the Gaussian 92(TM) system (copyright 1992, Gaussian, Inc.),
 the Gaussian 90(TM) system (copyright 1990, Gaussian, Inc.),
 the Gaussian 88(TM) system (copyright 1988, Gaussian, Inc.),
 the Gaussian 86(TM) system (copyright 1986, Carnegie Mellon
 University), and the Gaussian 82(TM) system (copyright 1983,
 Carnegie Mellon University). Gaussian is a federally registered
 trademark of Gaussian, Inc.
  
 This software contains proprietary and confidential information,
 including trade secrets, belonging to Gaussian, Inc.
  
 This software is provided under written license and may be
 used, copied, transmitted, or stored only in accord with that
 written license.
  
 The following legend is applicable only to US Government
 contracts under FAR:
  
                    RESTRICTED RIGHTS LEGEND
  
 Use, reproduction and disclosure by the US Government is
 subject to restrictions as set forth in subparagraphs (a)
 and (c) of the Commercial Computer Software - Restricted
 Rights clause in FAR 52.227-19.
  
 Gaussian, Inc.
 340 Quinnipiac St., Bldg. 40, Wallingford CT 06492
  
  
 ---------------------------------------------------------------
 Warning -- This program may not be used in any manner that
 competes with the business of Gaussian, Inc. or will provide
 assistance to any competitor of Gaussian, Inc.  The licensee
 of this program is prohibited from giving any competitor of
 Gaussian, Inc. access to this program.  By using this program,
 the user acknowledges that Gaussian, Inc. is engaged in the
 business of creating and licensing software in the field of
 computational chemistry and represents and warrants to the
 licensee that it is not a competitor of Gaussian, Inc. and that
 it will not use this program in any manner prohibited above.
 ---------------------------------------------------------------
  

 Cite this work as:
 Gaussian 16, Revision B.01,
 M. J. Frisch, G. W. Trucks, H. B. Schlegel, G. E. Scuseria, 
 M. A. Robb, J. R. Cheeseman, G. Scalmani, V. Barone, 
 G. A. Petersson, H. Nakatsuji, X. Li, M. Caricato, A. V. Marenich, 
 J. Bloino, B. G. Janesko, R. Gomperts, B. Mennucci, H. P. Hratchian, 
 J. V. Ortiz, A. F. Izmaylov, J. L. Sonnenberg, D. Williams-Young, 
 F. Ding, F. Lipparini, F. Egidi, J. Goings, B. Peng, A. Petrone, 
 T. Henderson, D. Ranasinghe, V. G. Zakrzewski, J. Gao, N. Rega, 
 G. Zheng, W. Liang, M. Hada, M. Ehara, K. Toyota, R. Fukuda, 
 J. Hasegawa, M. Ishida, T. Nakajima, Y. Honda, O. Kitao, H. Nakai, 
 T. Vreven, K. Throssell, J. A. Montgomery, Jr., J. E. Peralta, 
 F. Ogliaro, M. J. Bearpark, J. J. Heyd, E. N. Brothers, K. N. Kudin, 
 V. N. Staroverov, T. A. Keith, R. Kobayashi, J. Normand, 
 K. Raghavachari, A. P. Rendell, J. C. Burant, S. S. Iyengar, 
 J. Tomasi, M. Cossi, J. M. Millam, M. Klene, C. Adamo, R. Cammi, 
 J. W. Ochterski, R. L. Martin, K. Morokuma, O. Farkas, 
 J. B. Foresman, and D. J. Fox, Gaussian, Inc., Wallingford CT, 2016.
 
 ******************************************
 Gaussian 16:  ES64L-G16RevB.01 20-Dec-2017
                10-May-2019 
 ******************************************
 %NProcShared=32
 Will use up to   32 processors via shared memory.
 %chk=AA.chk
 ----------------------------------------------------------------------
 #p opt freq rb3lyp/6-31g(d,p) scrf=(iefpcm,solvent=acetonitrile) empir
 icaldispersion=gd3
 ----------------------------------------------------------------------
 1/18=20,19=15,26=3,38=1/1,3;
 2/9=110,12=2,17=6,18=5,40=1/2;
 3/5=1,6=6,7=101,11=2,25=1,30=1,70=2201,71=1,72=2,74=-5,116=1,124=31/1,2,3;
 4//1;
 5/5=2,38=5,53=2/2;
 6/7=2,8=2,9=2,10=2,28=1/1;
 7//1,2,3,16;
 1/18=20,19=15,26=3/3(2);
 2/9=110/2;
 99//99;
 2/9=110/2;
 3/5=1,6=6,7=101,11=2,25=1,30=1,70=2205,71=1,72=2,74=-5,116=1,124=31/1,2,3;
 4/5=5,16=3,69=1/1;
 5/5=2,38=5,53=2/2;
 7//1,2,3,16;
 1/18=20,19=15,26=3/3(-5);
 2/9=110/2;
 6/7=2,8=2,9=2,10=2,19=2,28=1/1;
 99/9=1/99;
 Leave Link    1 at Fri May 10 12:03:42 2019, MaxMem=           0 cpu:               2.9 elap:               0.1
 (Enter /opt/software/gaussian/g16.b01/l101.exe)
 -------------------
 Title Card Required
 -------------------
 Symbolic Z-matrix:
 Charge =  0 Multiplicity = 1
 C                     0.35429  -1.47937  -0.30068 
 C                     1.78959   1.48604   0.3137 
 O                     2.51655   1.44709  -0.67856 
 O                     1.08739  -1.59167   0.68272 
 C                     0.94441  -1.34421  -1.68628 
 H                     0.59689  -2.15548  -2.33388 
 H                     0.62986  -0.39991  -2.13981 
 H                     2.03185  -1.35996  -1.62133 
 C                     2.34462   1.20312   1.69138 
 H                     2.13324   2.03014   2.37627 
 H                     1.87762   0.30053   2.09587 
 H                     3.42118   1.04823   1.61972 
 C                    -1.12782  -1.46691  -0.13376 
 C                    -1.66107  -1.66547   1.1511 
 C                    -2.00002  -1.24392  -1.2101 
 C                    -3.0362   -1.64507   1.35551 
 H                    -0.97697  -1.82964   1.97628 
 C                    -3.37897  -1.21781  -1.00329 
 H                    -1.611    -1.07944  -2.2084 
 C                    -3.89843  -1.41902   0.27693 
 H                    -3.43947  -1.80029   2.35146 
 H                    -4.04635  -1.03762  -1.84013 
 H                    -4.97248  -1.39839   0.4357 
 C                     0.33579   1.78998   0.16355 
 C                    -0.15191   2.12626  -1.11132 
 C                    -0.56215   1.70368   1.23851 
 C                    -1.50806   2.36076  -1.30891 
 H                     0.55151   2.19258  -1.93417 
 C                    -1.92258   1.93338   1.03808 
 H                    -0.21041   1.43512   2.22813 
 C                    -2.39736   2.25813  -0.23361 
 H                    -1.87676   2.6149   -2.2978 
 H                    -2.61288   1.84333   1.8703 
 H                    -3.45857   2.42581  -0.38923 
 
 Add virtual bond connecting atoms H11        and O4         Dist= 4.71D+00.
 Add virtual bond connecting atoms H28        and H7         Dist= 4.92D+00.
 ITRead=  0  0  0  0  0  0  0  0  0  0  0  0  0  0  0  0  0  0  0  0
 ITRead=  0  0  0  0  0  0  0  0  0  0  0  0  0  0
 MicOpt= -1 -1 -1 -1 -1 -1 -1 -1 -1 -1 -1 -1 -1 -1 -1 -1 -1 -1 -1 -1
 MicOpt= -1 -1 -1 -1 -1 -1 -1 -1 -1 -1 -1 -1 -1 -1
 NAtoms=     34 NQM=       34 NQMF=       0 NMMI=      0 NMMIF=      0
                NMic=       0 NMicF=      0.
                    Isotopes and Nuclear Properties:
 (Nuclear quadrupole moments (NQMom) in fm**2, nuclear magnetic moments (NMagM)
  in nuclear magnetons)

  Atom         1           2           3           4           5           6           7           8           9          10
 IAtWgt=          12          12          16          16          12           1           1           1          12           1
 AtmWgt=  12.0000000  12.0000000  15.9949146  15.9949146  12.0000000   1.0078250   1.0078250   1.0078250  12.0000000   1.0078250
 NucSpn=           0           0           0           0           0           1           1           1           0           1
 AtZEff=  -0.0000000  -0.0000000  -0.0000000  -0.0000000  -0.0000000  -0.0000000  -0.0000000  -0.0000000  -0.0000000  -0.0000000
 NQMom=    0.0000000   0.0000000   0.0000000   0.0000000   0.0000000   0.0000000   0.0000000   0.0000000   0.0000000   0.0000000
 NMagM=    0.0000000   0.0000000   0.0000000   0.0000000   0.0000000   2.7928460   2.7928460   2.7928460   0.0000000   2.7928460
 AtZNuc=   6.0000000   6.0000000   8.0000000   8.0000000   6.0000000   1.0000000   1.0000000   1.0000000   6.0000000   1.0000000

  Atom        11          12          13          14          15          16          17          18          19          20
 IAtWgt=           1           1          12          12          12          12           1          12           1          12
 AtmWgt=   1.0078250   1.0078250  12.0000000  12.0000000  12.0000000  12.0000000   1.0078250  12.0000000   1.0078250  12.0000000
 NucSpn=           1           1           0           0           0           0           1           0           1           0
 AtZEff=  -0.0000000  -0.0000000  -0.0000000  -0.0000000  -0.0000000  -0.0000000  -0.0000000  -0.0000000  -0.0000000  -0.0000000
 NQMom=    0.0000000   0.0000000   0.0000000   0.0000000   0.0000000   0.0000000   0.0000000   0.0000000   0.0000000   0.0000000
 NMagM=    2.7928460   2.7928460   0.0000000   0.0000000   0.0000000   0.0000000   2.7928460   0.0000000   2.7928460   0.0000000
 AtZNuc=   1.0000000   1.0000000   6.0000000   6.0000000   6.0000000   6.0000000   1.0000000   6.0000000   1.0000000   6.0000000

  Atom        21          22          23          24          25          26          27          28          29          30
 IAtWgt=           1           1           1          12          12          12          12           1          12           1
 AtmWgt=   1.0078250   1.0078250   1.0078250  12.0000000  12.0000000  12.0000000  12.0000000   1.0078250  12.0000000   1.0078250
 NucSpn=           1           1           1           0           0           0           0           1           0           1
 AtZEff=  -0.0000000  -0.0000000  -0.0000000  -0.0000000  -0.0000000  -0.0000000  -0.0000000  -0.0000000  -0.0000000  -0.0000000
 NQMom=    0.0000000   0.0000000   0.0000000   0.0000000   0.0000000   0.0000000   0.0000000   0.0000000   0.0000000   0.0000000
 NMagM=    2.7928460   2.7928460   2.7928460   0.0000000   0.0000000   0.0000000   0.0000000   2.7928460   0.0000000   2.7928460
 AtZNuc=   1.0000000   1.0000000   1.0000000   6.0000000   6.0000000   6.0000000   6.0000000   1.0000000   6.0000000   1.0000000

  Atom        31          32          33          34
 IAtWgt=          12           1           1           1
 AtmWgt=  12.0000000   1.0078250   1.0078250   1.0078250
 NucSpn=           0           1           1           1
 AtZEff=  -0.0000000  -0.0000000  -0.0000000  -0.0000000
 NQMom=    0.0000000   0.0000000   0.0000000   0.0000000
 NMagM=    0.0000000   2.7928460   2.7928460   2.7928460
 AtZNuc=   6.0000000   1.0000000   1.0000000   1.0000000
 Leave Link  101 at Fri May 10 12:03:42 2019, MaxMem=   104857600 cpu:               5.4 elap:               0.2
 (Enter /opt/software/gaussian/g16.b01/l103.exe)

 GradGradGradGradGradGradGradGradGradGradGradGradGradGradGradGradGradGrad
 Berny optimization.
 Initialization pass.
                           ----------------------------
                           !    Initial Parameters    !
                           ! (Angstroms and Degrees)  !
 --------------------------                            --------------------------
 ! Name  Definition              Value          Derivative Info.                !
 --------------------------------------------------------------------------------
 ! R1    R(1,4)                  1.2317         estimate D2E/DX2                !
 ! R2    R(1,5)                  1.5121         estimate D2E/DX2                !
 ! R3    R(1,13)                 1.4915         estimate D2E/DX2                !
 ! R4    R(2,3)                  1.2307         estimate D2E/DX2                !
 ! R5    R(2,9)                  1.512          estimate D2E/DX2                !
 ! R6    R(2,24)                 1.4928         estimate D2E/DX2                !
 ! R7    R(4,11)                 2.4904         estimate D2E/DX2                !
 ! R8    R(5,6)                  1.0947         estimate D2E/DX2                !
 ! R9    R(5,7)                  1.0938         estimate D2E/DX2                !
 ! R10   R(5,8)                  1.0895         estimate D2E/DX2                !
 ! R11   R(7,28)                 2.6018         estimate D2E/DX2                !
 ! R12   R(9,10)                 1.0944         estimate D2E/DX2                !
 ! R13   R(9,11)                 1.0938         estimate D2E/DX2                !
 ! R14   R(9,12)                 1.09           estimate D2E/DX2                !
 ! R15   R(13,14)                1.4052         estimate D2E/DX2                !
 ! R16   R(13,15)                1.4032         estimate D2E/DX2                !
 ! R17   R(14,16)                1.3904         estimate D2E/DX2                !
 ! R18   R(14,17)                1.0844         estimate D2E/DX2                !
 ! R19   R(15,18)                1.3946         estimate D2E/DX2                !
 ! R20   R(15,19)                1.084          estimate D2E/DX2                !
 ! R21   R(16,20)                1.3992         estimate D2E/DX2                !
 ! R22   R(16,21)                1.0856         estimate D2E/DX2                !
 ! R23   R(18,20)                1.3962         estimate D2E/DX2                !
 ! R24   R(18,22)                1.0854         estimate D2E/DX2                !
 ! R25   R(20,23)                1.0859         estimate D2E/DX2                !
 ! R26   R(24,25)                1.4058         estimate D2E/DX2                !
 ! R27   R(24,26)                1.4033         estimate D2E/DX2                !
 ! R28   R(25,27)                1.3904         estimate D2E/DX2                !
 ! R29   R(25,28)                1.0846         estimate D2E/DX2                !
 ! R30   R(26,29)                1.3942         estimate D2E/DX2                !
 ! R31   R(26,30)                1.0841         estimate D2E/DX2                !
 ! R32   R(27,31)                1.3992         estimate D2E/DX2                !
 ! R33   R(27,32)                1.0856         estimate D2E/DX2                !
 ! R34   R(29,31)                1.3957         estimate D2E/DX2                !
 ! R35   R(29,33)                1.085          estimate D2E/DX2                !
 ! R36   R(31,34)                1.0856         estimate D2E/DX2                !
 ! A1    A(4,1,5)              120.4962         estimate D2E/DX2                !
 ! A2    A(4,1,13)             120.1875         estimate D2E/DX2                !
 ! A3    A(5,1,13)             119.3152         estimate D2E/DX2                !
 ! A4    A(3,2,9)              120.7901         estimate D2E/DX2                !
 ! A5    A(3,2,24)             120.0403         estimate D2E/DX2                !
 ! A6    A(9,2,24)             119.1596         estimate D2E/DX2                !
 ! A7    A(1,4,11)             124.934          estimate D2E/DX2                !
 ! A8    A(1,5,6)              110.6075         estimate D2E/DX2                !
 ! A9    A(1,5,7)              110.1757         estimate D2E/DX2                !
 ! A10   A(1,5,8)              109.4887         estimate D2E/DX2                !
 ! A11   A(6,5,7)              107.6515         estimate D2E/DX2                !
 ! A12   A(6,5,8)              109.963          estimate D2E/DX2                !
 ! A13   A(7,5,8)              108.9197         estimate D2E/DX2                !
 ! A14   A(5,7,28)             146.7346         estimate D2E/DX2                !
 ! A15   A(2,9,10)             110.9726         estimate D2E/DX2                !
 ! A16   A(2,9,11)             109.5504         estimate D2E/DX2                !
 ! A17   A(2,9,12)             109.2232         estimate D2E/DX2                !
 ! A18   A(10,9,11)            108.0406         estimate D2E/DX2                !
 ! A19   A(10,9,12)            109.8333         estimate D2E/DX2                !
 ! A20   A(11,9,12)            109.1924         estimate D2E/DX2                !
 ! A21   A(4,11,9)             123.5475         estimate D2E/DX2                !
 ! A22   A(1,13,14)            118.5699         estimate D2E/DX2                !
 ! A23   A(1,13,15)            122.2177         estimate D2E/DX2                !
 ! A24   A(14,13,15)           119.2051         estimate D2E/DX2                !
 ! A25   A(13,14,16)           120.5084         estimate D2E/DX2                !
 ! A26   A(13,14,17)           118.5408         estimate D2E/DX2                !
 ! A27   A(16,14,17)           120.9502         estimate D2E/DX2                !
 ! A28   A(13,15,18)           120.2535         estimate D2E/DX2                !
 ! A29   A(13,15,19)           120.4954         estimate D2E/DX2                !
 ! A30   A(18,15,19)           119.2478         estimate D2E/DX2                !
 ! A31   A(14,16,20)           119.9004         estimate D2E/DX2                !
 ! A32   A(14,16,21)           120.0098         estimate D2E/DX2                !
 ! A33   A(20,16,21)           120.0893         estimate D2E/DX2                !
 ! A34   A(15,18,20)           120.0767         estimate D2E/DX2                !
 ! A35   A(15,18,22)           119.7833         estimate D2E/DX2                !
 ! A36   A(20,18,22)           120.1398         estimate D2E/DX2                !
 ! A37   A(16,20,18)           120.0551         estimate D2E/DX2                !
 ! A38   A(16,20,23)           119.9895         estimate D2E/DX2                !
 ! A39   A(18,20,23)           119.9553         estimate D2E/DX2                !
 ! A40   A(2,24,25)            118.5407         estimate D2E/DX2                !
 ! A41   A(2,24,26)            122.2482         estimate D2E/DX2                !
 ! A42   A(25,24,26)           119.1699         estimate D2E/DX2                !
 ! A43   A(24,25,27)           120.5042         estimate D2E/DX2                !
 ! A44   A(24,25,28)           118.5325         estimate D2E/DX2                !
 ! A45   A(27,25,28)           120.9624         estimate D2E/DX2                !
 ! A46   A(24,26,29)           120.2739         estimate D2E/DX2                !
 ! A47   A(24,26,30)           120.4574         estimate D2E/DX2                !
 ! A48   A(29,26,30)           119.253          estimate D2E/DX2                !
 ! A49   A(25,27,31)           119.8915         estimate D2E/DX2                !
 ! A50   A(25,27,32)           120.0139         estimate D2E/DX2                !
 ! A51   A(31,27,32)           120.0927         estimate D2E/DX2                !
 ! A52   A(7,28,25)             91.0635         estimate D2E/DX2                !
 ! A53   A(26,29,31)           120.0828         estimate D2E/DX2                !
 ! A54   A(26,29,33)           119.7942         estimate D2E/DX2                !
 ! A55   A(31,29,33)           120.1157         estimate D2E/DX2                !
 ! A56   A(27,31,29)           120.0722         estimate D2E/DX2                !
 ! A57   A(27,31,34)           119.9882         estimate D2E/DX2                !
 ! A58   A(29,31,34)           119.9388         estimate D2E/DX2                !
 ! D1    D(5,1,4,11)            93.0531         estimate D2E/DX2                !
 ! D2    D(13,1,4,11)          -86.5631         estimate D2E/DX2                !
 ! D3    D(4,1,5,6)            120.9748         estimate D2E/DX2                !
 ! D4    D(4,1,5,7)           -120.1239         estimate D2E/DX2                !
 ! D5    D(4,1,5,8)             -0.357          estimate D2E/DX2                !
 ! D6    D(13,1,5,6)           -59.4056         estimate D2E/DX2                !
 ! D7    D(13,1,5,7)            59.4957         estimate D2E/DX2                !
 ! D8    D(13,1,5,8)           179.2626         estimate D2E/DX2                !
 ! D9    D(4,1,13,14)           -3.7483         estimate D2E/DX2                !
 ! D10   D(4,1,13,15)          175.2553         estimate D2E/DX2                !
 ! D11   D(5,1,13,14)          176.6309         estimate D2E/DX2                !
 ! D12   D(5,1,13,15)           -4.3655         estimate D2E/DX2                !
 ! D13   D(3,2,9,10)           124.9368         estimate D2E/DX2                !
 ! D14   D(3,2,9,11)          -115.8492         estimate D2E/DX2                !
 ! D15   D(3,2,9,12)             3.707          estimate D2E/DX2                !
 ! D16   D(24,2,9,10)          -56.2171         estimate D2E/DX2                !
 ! D17   D(24,2,9,11)           62.9969         estimate D2E/DX2                !
 ! D18   D(24,2,9,12)         -177.4468         estimate D2E/DX2                !
 ! D19   D(3,2,24,25)           -4.7419         estimate D2E/DX2                !
 ! D20   D(3,2,24,26)          172.8996         estimate D2E/DX2                !
 ! D21   D(9,2,24,25)          176.4031         estimate D2E/DX2                !
 ! D22   D(9,2,24,26)           -5.9553         estimate D2E/DX2                !
 ! D23   D(1,4,11,9)           -50.6923         estimate D2E/DX2                !
 ! D24   D(1,5,7,28)            56.5903         estimate D2E/DX2                !
 ! D25   D(6,5,7,28)           177.2823         estimate D2E/DX2                !
 ! D26   D(8,5,7,28)           -63.5207         estimate D2E/DX2                !
 ! D27   D(5,7,28,25)          -69.0169         estimate D2E/DX2                !
 ! D28   D(2,9,11,4)            30.5609         estimate D2E/DX2                !
 ! D29   D(10,9,11,4)          151.5663         estimate D2E/DX2                !
 ! D30   D(12,9,11,4)          -89.0142         estimate D2E/DX2                !
 ! D31   D(1,13,14,16)         179.1956         estimate D2E/DX2                !
 ! D32   D(1,13,14,17)          -0.5245         estimate D2E/DX2                !
 ! D33   D(15,13,14,16)          0.1614         estimate D2E/DX2                !
 ! D34   D(15,13,14,17)       -179.5588         estimate D2E/DX2                !
 ! D35   D(1,13,15,18)        -178.879          estimate D2E/DX2                !
 ! D36   D(1,13,15,19)           0.4525         estimate D2E/DX2                !
 ! D37   D(14,13,15,18)          0.1185         estimate D2E/DX2                !
 ! D38   D(14,13,15,19)        179.45           estimate D2E/DX2                !
 ! D39   D(13,14,16,20)         -0.3064         estimate D2E/DX2                !
 ! D40   D(13,14,16,21)        179.9462         estimate D2E/DX2                !
 ! D41   D(17,14,16,20)        179.407          estimate D2E/DX2                !
 ! D42   D(17,14,16,21)         -0.3404         estimate D2E/DX2                !
 ! D43   D(13,15,18,20)         -0.2521         estimate D2E/DX2                !
 ! D44   D(13,15,18,22)        179.5632         estimate D2E/DX2                !
 ! D45   D(19,15,18,20)       -179.5919         estimate D2E/DX2                !
 ! D46   D(19,15,18,22)          0.2234         estimate D2E/DX2                !
 ! D47   D(14,16,20,18)          0.1718         estimate D2E/DX2                !
 ! D48   D(14,16,20,23)       -179.7283         estimate D2E/DX2                !
 ! D49   D(21,16,20,18)        179.919          estimate D2E/DX2                !
 ! D50   D(21,16,20,23)          0.0189         estimate D2E/DX2                !
 ! D51   D(15,18,20,16)          0.107          estimate D2E/DX2                !
 ! D52   D(15,18,20,23)       -179.9929         estimate D2E/DX2                !
 ! D53   D(22,18,20,16)       -179.7077         estimate D2E/DX2                !
 ! D54   D(22,18,20,23)          0.1925         estimate D2E/DX2                !
 ! D55   D(2,24,25,27)         177.2263         estimate D2E/DX2                !
 ! D56   D(2,24,25,28)          -2.441          estimate D2E/DX2                !
 ! D57   D(26,24,25,27)         -0.4893         estimate D2E/DX2                !
 ! D58   D(26,24,25,28)        179.8433         estimate D2E/DX2                !
 ! D59   D(2,24,26,29)        -176.862          estimate D2E/DX2                !
 ! D60   D(2,24,26,30)           1.6854         estimate D2E/DX2                !
 ! D61   D(25,24,26,29)          0.7652         estimate D2E/DX2                !
 ! D62   D(25,24,26,30)        179.3126         estimate D2E/DX2                !
 ! D63   D(24,25,27,31)         -0.1941         estimate D2E/DX2                !
 ! D64   D(24,25,27,32)       -179.6845         estimate D2E/DX2                !
 ! D65   D(28,25,27,31)        179.4651         estimate D2E/DX2                !
 ! D66   D(28,25,27,32)         -0.0253         estimate D2E/DX2                !
 ! D67   D(24,25,28,7)          77.7755         estimate D2E/DX2                !
 ! D68   D(27,25,28,7)        -101.8902         estimate D2E/DX2                !
 ! D69   D(24,26,29,31)         -0.3583         estimate D2E/DX2                !
 ! D70   D(24,26,29,33)        178.6656         estimate D2E/DX2                !
 ! D71   D(30,26,29,31)       -178.9231         estimate D2E/DX2                !
 ! D72   D(30,26,29,33)          0.1009         estimate D2E/DX2                !
 ! D73   D(25,27,31,29)          0.6091         estimate D2E/DX2                !
 ! D74   D(25,27,31,34)       -179.0534         estimate D2E/DX2                !
 ! D75   D(32,27,31,29)       -179.9009         estimate D2E/DX2                !
 ! D76   D(32,27,31,34)          0.4366         estimate D2E/DX2                !
 ! D77   D(26,29,31,27)         -0.3336         estimate D2E/DX2                !
 ! D78   D(26,29,31,34)        179.329          estimate D2E/DX2                !
 ! D79   D(33,29,31,27)       -179.3544         estimate D2E/DX2                !
 ! D80   D(33,29,31,34)          0.3082         estimate D2E/DX2                !
 --------------------------------------------------------------------------------
 Trust Radius=3.00D-01 FncErr=1.00D-07 GrdErr=1.00D-06 EigMax=2.50D+02 EigMin=1.00D-04
 Number of steps in this run=    184 maximum allowed number of steps=    204.
 GradGradGradGradGradGradGradGradGradGradGradGradGradGradGradGradGradGrad

 Leave Link  103 at Fri May 10 12:03:42 2019, MaxMem=   104857600 cpu:               0.6 elap:               0.0
 (Enter /opt/software/gaussian/g16.b01/l202.exe)
                          Input orientation:                          
 ---------------------------------------------------------------------
 Center     Atomic      Atomic             Coordinates (Angstroms)
 Number     Number       Type             X           Y           Z
 ---------------------------------------------------------------------
      1          6           0        0.354292   -1.479367   -0.300682
      2          6           0        1.789590    1.486036    0.313703
      3          8           0        2.516551    1.447090   -0.678564
      4          8           0        1.087393   -1.591673    0.682724
      5          6           0        0.944413   -1.344207   -1.686276
      6          1           0        0.596890   -2.155483   -2.333883
      7          1           0        0.629864   -0.399910   -2.139806
      8          1           0        2.031853   -1.359962   -1.621332
      9          6           0        2.344620    1.203121    1.691376
     10          1           0        2.133242    2.030138    2.376266
     11          1           0        1.877621    0.300528    2.095869
     12          1           0        3.421182    1.048234    1.619719
     13          6           0       -1.127817   -1.466906   -0.133755
     14          6           0       -1.661066   -1.665472    1.151099
     15          6           0       -2.000025   -1.243915   -1.210097
     16          6           0       -3.036203   -1.645070    1.355511
     17          1           0       -0.976966   -1.829640    1.976279
     18          6           0       -3.378972   -1.217805   -1.003288
     19          1           0       -1.611000   -1.079441   -2.208397
     20          6           0       -3.898430   -1.419016    0.276932
     21          1           0       -3.439469   -1.800289    2.351458
     22          1           0       -4.046348   -1.037619   -1.840128
     23          1           0       -4.972479   -1.398392    0.435704
     24          6           0        0.335793    1.789979    0.163553
     25          6           0       -0.151912    2.126260   -1.111322
     26          6           0       -0.562152    1.703684    1.238513
     27          6           0       -1.508064    2.360762   -1.308906
     28          1           0        0.551512    2.192584   -1.934174
     29          6           0       -1.922581    1.933380    1.038083
     30          1           0       -0.210412    1.435119    2.228133
     31          6           0       -2.397359    2.258132   -0.233613
     32          1           0       -1.876758    2.614901   -2.297804
     33          1           0       -2.612881    1.843333    1.870299
     34          1           0       -3.458570    2.425814   -0.389234
 ---------------------------------------------------------------------
                    Distance matrix (angstroms):
                    1          2          3          4          5
     1  C    0.000000
     2  C    3.351293   0.000000
     3  O    3.658184   1.230684   0.000000
     4  O    1.231721   3.178294   3.623490   0.000000
     5  C    1.512079   3.567144   3.358339   2.386178   0.000000
     6  H    2.156361   4.657564   4.404964   3.107795   1.094685
     7  H    2.150243   3.304764   3.017652   3.097791   1.093768
     8  H    2.138360   3.450037   3.000547   2.500874   1.089491
     9  C    3.889144   1.511980   2.388660   3.226278   4.456231
    10  H    4.758922   2.160627   3.133506   4.132723   5.413295
    11  H    3.351420   2.142264   3.069253   2.490354   4.228552
    12  H    4.413901   2.135285   2.501909   3.646044   4.773653
    13  C    1.491532   4.175087   4.697830   2.364183   2.592202
    14  C    2.490777   4.747659   5.521611   2.789059   3.865544
    15  C    2.534814   4.912818   5.284269   3.638112   2.984379
    16  C    3.777021   5.846150   6.673229   4.178461   5.018794
    17  H    2.660731   4.627278   5.476295   2.447752   4.164331
    18  C    3.807799   5.979904   6.477986   4.788615   4.378825
    19  H    2.767976   4.950421   5.075473   3.987767   2.621612
    20  C    4.292193   6.387038   7.090805   5.005288   5.226176
    21  H    4.639985   6.503494   7.429716   4.829148   5.977435
    22  H    4.683019   6.713121   7.112992   5.746917   5.002536
    23  H    5.378040   7.352577   8.088506   6.067984   6.286123
    24  C    3.302193   1.492800   2.362719   3.502858   3.689906
    25  C    3.730137   2.491990   2.787337   4.310163   3.684649
    26  C    3.652507   2.536402   3.635854   3.726832   4.484838
    27  C    4.385371   3.777900   4.174884   5.130763   4.459131
    28  H    4.023732   2.661766   2.448203   4.632054   3.567172
    29  C    4.315470   3.808550   4.784271   4.648895   5.136571
    30  H    3.899747   2.769051   3.985644   3.637864   4.937699
    31  C    4.641657   4.292578   5.000228   5.272966   5.123916
    32  H    5.072387   4.640734   4.825649   5.946848   4.899746
    33  H    4.955563   4.683204   5.741497   5.186678   5.955164
    34  H    5.458589   5.377777   6.061657   6.160769   5.939835
                    6          7          8          9         10
     6  H    0.000000
     7  H    1.766576   0.000000
     8  H    1.788771   1.776538   0.000000
     9  C    5.526074   4.493112   4.200149   0.000000
    10  H    6.485777   5.344173   5.242504   1.094400   0.000000
    11  H    5.224458   4.470845   4.074138   1.093790   1.770739
    12  H    5.819914   4.901286   4.270135   1.090005   1.787537
    13  C    2.879117   2.872658   3.493972   4.745310   5.400373
    14  C    4.181337   4.204767   4.627889   4.956435   5.436482
    15  C    2.972847   2.914279   4.054457   5.769096   6.376936
    16  C    5.203029   5.216101   5.884562   6.097397   6.424349
    17  H    4.600075   4.644156   4.713427   4.506855   4.973054
    18  C    4.296185   4.246339   5.447863   6.773596   7.235677
    19  H    2.459348   2.342635   3.700502   6.005435   6.686401
    20  C    5.250394   5.233034   6.226970   6.917509   7.258439
    21  H    6.194415   6.220288   6.775863   6.550715   6.762240
    22  H    4.801362   4.729000   6.090674   7.637860   8.085570
    23  H    6.265913   6.246316   7.300243   7.866671   8.124769
    24  C    4.676754   3.191795   3.998070   2.591145   2.860874
    25  C    4.515383   2.837338   4.145200   3.865226   4.170664
    26  C    5.385031   4.154401   4.928844   2.984120   2.943842
    27  C    5.087030   3.589212   5.145135   5.018466   5.191234
    28  H    4.366636   2.601816   3.861329   4.163999   4.594361
    29  C    5.868278   4.696615   5.792766   4.378250   4.271978
    30  H    5.861412   4.811682   5.259145   2.621091   2.422541
    31  C    5.732073   4.456774   5.885090   5.225418   5.233526
    32  H    5.373714   3.923927   5.615549   5.977183   6.186193
    33  H    6.630860   5.623920   6.635220   5.001870   4.776671
    34  H    6.420023   5.269204   6.781955   6.284977   6.250833
                   11         12         13         14         15
    11  H    0.000000
    12  H    1.779990   0.000000
    13  C    4.138563   5.485799   0.000000
    14  C    4.156928   5.780402   1.405216   0.000000
    15  C    5.324552   6.530796   1.403205   2.422365   0.000000
    16  C    5.336586   7.001536   2.427260   1.390396   2.795878
    17  H    3.563788   5.268112   2.146293   1.084374   3.397457
    18  C    6.288233   7.632640   2.426075   2.791593   1.394613
    19  H    5.709772   6.671156   2.165118   3.410594   1.083972
    20  C    6.295088   7.840097   2.801295   2.414686   2.417821
    21  H    5.722779   7.464453   3.410449   2.149827   3.881524
    22  H    7.237135   8.490308   3.407905   3.877010   2.151031
    23  H    7.250265   8.822778   3.887210   3.398320   3.401177
    24  C    2.886095   3.491451   3.582994   4.111306   4.067859
    25  C    4.211695   4.624687   3.849529   4.666190   3.844913
    26  C    2.942176   4.054859   3.500820   3.544921   4.092861
    27  C    5.224933   5.881925   4.022016   4.720762   3.639435
    28  H    4.645394   4.709002   4.410615   5.412856   4.340985
    29  C    4.269268   5.447714   3.683314   3.610111   3.893008
    30  H    2.380057   3.702475   3.852518   3.588602   4.711832
    31  C    5.247300   6.225280   3.936701   4.225426   3.657284
    32  H    6.225435   6.772710   4.680296   5.501186   4.011080
    33  H    4.753497   6.091378   4.144796   3.706064   4.404036
    34  H    6.258395   7.298261   4.544331   4.726761   4.033371
                   16         17         18         19         20
    16  C    0.000000
    17  H    2.158675   0.000000
    18  C    2.421565   3.875796   0.000000
    19  H    3.879765   4.298408   2.144098   0.000000
    20  C    1.399239   3.404606   1.396168   3.394776   0.000000
    21  H    1.085646   2.491092   3.405476   4.965400   2.158627
    22  H    3.406097   4.961186   1.085430   2.463390   2.156220
    23  H    2.157790   4.303890   2.154663   4.288653   1.085917
    24  C    4.958899   4.255697   4.920138   4.201157   5.314052
    25  C    5.350451   5.085581   4.648479   3.689042   5.341594
    26  C    4.165185   3.633283   4.636296   4.552698   4.669758
    27  C    5.047872   5.351072   4.049672   3.557341   4.745045
    28  H    6.198493   5.814308   5.286398   3.931641   6.142852
    29  C    3.761146   3.991832   4.027187   4.440023   3.965084
    30  H    4.270144   3.362988   5.245937   5.288427   5.055170
    31  C    4.262443   4.859117   3.692980   3.956959   4.004409
    32  H    5.730478   6.231481   4.315328   3.704967   5.195085
    33  H    3.551502   4.022211   4.267899   5.116848   3.851542
    34  H    4.449115   5.464696   3.695857   4.360009   3.926827
                   21         22         23         24         25
    21  H    0.000000
    22  H    4.303413   0.000000
    23  H    2.486313   2.483402   0.000000
    24  C    5.650624   5.586878   6.198187   0.000000
    25  C    6.181963   5.070298   6.168819   1.405791   0.000000
    26  C    4.668557   5.397443   5.451455   1.403314   2.422518
    27  C    5.868810   4.274819   5.401581   2.427702   1.390388
    28  H    7.087849   5.619909   7.001850   2.146878   1.084569
    29  C    4.238654   4.649873   4.556912   2.426030   2.791489
    30  H    4.572733   6.113885   5.823991   2.164892   3.410727
    31  C    4.923349   4.020203   4.522101   2.801255   2.414497
    32  H    6.599364   4.272878   5.758652   3.410888   2.149791
    33  H    3.767060   4.911413   4.258468   3.407419   3.876400
    34  H    5.037033   3.800782   4.194877   3.886779   3.397813
                   26         27         28         29         30
    26  C    0.000000
    27  C    2.795683   0.000000
    28  H    3.397825   2.158957   0.000000
    29  C    1.394166   2.421330   3.875904   0.000000
    30  H    1.084065   3.879608   4.298730   2.143830   0.000000
    31  C    2.417137   1.399155   3.404709   1.395739   3.394154
    32  H    3.881242   1.085560   2.491400   3.405101   4.965149
    33  H    2.150382   3.405246   4.960784   1.084991   2.463035
    34  H    3.400040   2.157429   4.303719   2.153831   4.287495
                   31         32         33         34
    31  C    0.000000
    32  H    2.158517   0.000000
    33  H    2.155215   4.302357   0.000000
    34  H    1.085589   2.486066   2.481927   0.000000
 Stoichiometry    C16H16O2
 Framework group  C1[X(C16H16O2)]
 Deg. of freedom    96
 Full point group                 C1      NOp   1
 Largest Abelian subgroup         C1      NOp   1
 Largest concise Abelian subgroup C1      NOp   1
                         Standard orientation:                         
 ---------------------------------------------------------------------
 Center     Atomic      Atomic             Coordinates (Angstroms)
 Number     Number       Type             X           Y           Z
 ---------------------------------------------------------------------
      1          6           0       -0.111952   -1.901137    0.362452
      2          6           0       -2.743405    0.086942   -0.232666
      3          8           0       -3.349393   -0.250770    0.783854
      4          8           0       -0.740993   -2.354561   -0.594549
      5          6           0       -0.664071   -2.012425    1.765720
      6          1           0        0.027821   -2.565101    2.409281
      7          1           0       -0.796634   -1.016926    2.199005
      8          1           0       -1.629346   -2.516850    1.737588
      9          6           0       -3.146808   -0.448256   -1.587992
     10          1           0       -3.347836    0.368803   -2.287788
     11          1           0       -2.334109   -1.054038   -1.999000
     12          1           0       -4.036262   -1.068751   -1.478593
     13          6           0        1.201169   -1.227820    0.145600
     14          6           0        1.733635   -1.196296   -1.154445
     15          6           0        1.906952   -0.610799    1.189697
     16          6           0        2.946734   -0.564872   -1.405236
     17          1           0        1.175725   -1.670206   -1.954453
     18          6           0        3.120823    0.027377    0.936326
     19          1           0        1.511233   -0.614820    2.198848
     20          6           0        3.642287    0.050452   -0.358598
     21          1           0        3.351061   -0.546128   -2.412607
     22          1           0        3.656894    0.508353    1.748390
     23          1           0        4.587689    0.547833   -0.553641
     24          6           0       -1.578612    1.015429   -0.134576
     25          6           0       -1.261955    1.565550    1.119753
     26          6           0       -0.765751    1.316176   -1.238252
     27          6           0       -0.151859    2.389277    1.269224
     28          1           0       -1.898644    1.328351    1.965124
     29          6           0        0.350398    2.137602   -1.086032
     30          1           0       -0.984209    0.894488   -2.212752
     31          6           0        0.660623    2.671541    0.165670
     32          1           0        0.088206    2.805686    2.242576
     33          1           0        0.985808    2.347493   -1.940085
     34          1           0        1.536435    3.302019    0.283798
 ---------------------------------------------------------------------
 Rotational constants (GHZ):           0.6094224           0.3826981           0.3189895
 Leave Link  202 at Fri May 10 12:03:42 2019, MaxMem=   104857600 cpu:               1.0 elap:               0.1
 (Enter /opt/software/gaussian/g16.b01/l301.exe)
 Standard basis: 6-31G(d,p) (6D, 7F)
 Ernie: Thresh=  0.10000D-02 Tol=  0.10000D-05 Strict=F.
 There are   350 symmetry adapted cartesian basis functions of A   symmetry.
 There are   350 symmetry adapted basis functions of A   symmetry.
   350 basis functions,   616 primitive gaussians,   350 cartesian basis functions
    64 alpha electrons       64 beta electrons
       nuclear repulsion energy      1291.3341735329 Hartrees.
 IExCor=  402 DFT=T Ex+Corr=B3LYP ExCW=0 ScaHFX=  0.200000
 ScaDFX=  0.800000  0.720000  1.000000  0.810000 ScalE2=  1.000000  1.000000
 IRadAn=      5 IRanWt=     -1 IRanGd=            0 ICorTp=0 IEmpDi=131
 NAtoms=   34 NActive=   34 NUniq=   34 SFac= 1.00D+00 NAtFMM=   60 NAOKFM=F Big=F
 Integral buffers will be    131072 words long.
 Raffenetti 2 integral format.
 Two-electron integral symmetry is turned on.
 R6Disp:  Grimme-D3 Dispersion energy=       -0.0392765280 Hartrees.
 Nuclear repulsion after empirical dispersion term =     1291.2948970048 Hartrees.
 ------------------------------------------------------------------------------
 Polarizable Continuum Model (PCM)
 =================================
 Model                : PCM.
 Atomic radii         : UFF (Universal Force Field).
 Polarization charges : Total charges.
 Charge compensation  : None.
 Solution method      : On-the-fly selection.
 Cavity type          : Scaled VdW (van der Waals Surface) (Alpha=1.100).
 Cavity algorithm     : GePol (No added spheres)
                        Default sphere list used, NSphG=   34.
                        Lebedev-Laikov grids with approx.  5.0 points / Ang**2.
                        Smoothing algorithm: York/Karplus (Gamma=1.0000).
                        Polarization charges: spherical gaussians, with
                                              point-specific exponents (IZeta= 3).
                        Self-potential: point-specific (ISelfS= 7).
                        Self-field    : sphere-specific E.n sum rule (ISelfD= 2).
 1st derivatives      : Analytical E(r).r(x)/FMM algorithm (CHGder, D1EAlg=3).
                        Cavity 1st derivative terms included.
 Solvent              : Acetonitrile, Eps=  35.688000 Eps(inf)=   1.806874
 ------------------------------------------------------------------------------
 GePol: Number of generator spheres                  =      34
 GePol: Total number of spheres                      =      34
 GePol: Number of exposed spheres                    =      34 (100.00%)
 GePol: Number of points                             =    2429
 GePol: Average weight of points                     =       0.13
 GePol: Minimum weight of points                     =   0.95D-10
 GePol: Maximum weight of points                     =    0.20577
 GePol: Number of points with low weight             =     156
 GePol: Fraction of low-weight points (<1% of avg)   =       6.42%
 GePol: Cavity surface area                          =    310.412 Ang**2
 GePol: Cavity volume                                =    360.224 Ang**3
 Leave Link  301 at Fri May 10 12:03:42 2019, MaxMem=   104857600 cpu:               3.4 elap:               0.1
 (Enter /opt/software/gaussian/g16.b01/l302.exe)
 NPDir=0 NMtPBC=     1 NCelOv=     1 NCel=       1 NClECP=     1 NCelD=      1
         NCelK=      1 NCelE2=     1 NClLst=     1 CellRange=     0.0.
 One-electron integrals computed using PRISM.
 One-electron integral symmetry used in STVInt
 PrsmSu:  requested number of processors reduced to:  28 ShMem   1 Linda.
 NBasis=   350 RedAO= T EigKep=  4.63D-04  NBF=   350
 NBsUse=   350 1.00D-06 EigRej= -1.00D+00 NBFU=   350
 Precomputing XC quadrature grid using
 IXCGrd= 4 IRadAn=           5 IRanWt=          -1 IRanGd=           0 AccXCQ= 0.00D+00.
 Generated NRdTot=       0 NPtTot=           0 NUsed=           0 NTot=          32
 NSgBfM=   349   349   349   349   349 MxSgAt=    34 MxSgA2=    34.
 Leave Link  302 at Fri May 10 12:03:42 2019, MaxMem=   104857600 cpu:              12.8 elap:               0.4
 (Enter /opt/software/gaussian/g16.b01/l303.exe)
 DipDrv:  MaxL=1.
 Leave Link  303 at Fri May 10 12:03:43 2019, MaxMem=   104857600 cpu:               2.3 elap:               0.1
 (Enter /opt/software/gaussian/g16.b01/l401.exe)
 ExpMin= 1.61D-01 ExpMax= 5.48D+03 ExpMxC= 8.25D+02 IAcc=3 IRadAn=         5 AccDes= 0.00D+00
 Harris functional with IExCor=  402 and IRadAn=       5 diagonalized for initial guess.
 HarFok:  IExCor=  402 AccDes= 0.00D+00 IRadAn=         5 IDoV= 1 UseB2=F ITyADJ=14
 ICtDFT=  3500011 ScaDFX=  1.000000  1.000000  1.000000  1.000000
 FoFCou: FMM=F IPFlag=           0 FMFlag=      100000 FMFlg1=           0
         NFxFlg=           0 DoJE=T BraDBF=F KetDBF=T FulRan=T
         wScrn=  0.000000 ICntrl=       500 IOpCl=  0 I1Cent=   200000004 NGrid=           0
         NMat0=    1 NMatS0=      1 NMatT0=    0 NMatD0=    1 NMtDS0=    0 NMtDT0=    0
 Petite list used in FoFCou.
 Harris En= -769.918388723712    
 JPrj=0 DoOrth=F DoCkMO=F.
 Leave Link  401 at Fri May 10 12:03:43 2019, MaxMem=   104857600 cpu:              25.1 elap:               0.8
 (Enter /opt/software/gaussian/g16.b01/l502.exe)
 Integral symmetry usage will be decided dynamically.
 Closed shell SCF:
 Using DIIS extrapolation, IDIIS=  1040.
 NGot=   104857600 LenX=   104597610 LenY=   104474669
 Requested convergence on RMS density matrix=1.00D-08 within 128 cycles.
 Requested convergence on MAX density matrix=1.00D-06.
 Requested convergence on             energy=1.00D-06.
 No special actions if energy rises.
 Fock matrices will be formed incrementally for  20 cycles.

 Cycle   1  Pass 1  IDiag  1:
 FoFJK:  IHMeth= 1 ICntrl=       0 DoSepK=F KAlg= 0 I1Cent=           0 FoldK=F
 IRaf= 840000000 NMat=       1 IRICut=       1 DoRegI=T DoRafI=F ISym2E= 0 IDoP0=0 IntGTp=1.
 FoFCou: FMM=F IPFlag=           0 FMFlag=      100000 FMFlg1=           0
         NFxFlg=           0 DoJE=F BraDBF=F KetDBF=F FulRan=T
         wScrn=  0.000000 ICntrl=         0 IOpCl=  0 I1Cent=           0 NGrid=           0
         NMat0=    1 NMatS0=      1 NMatT0=    0 NMatD0=    1 NMtDS0=    0 NMtDT0=    0
 Symmetry not used in FoFCou.
 Inv3:  Mode=1 IEnd=    17700123.
 Iteration    1 A*A^-1 deviation from unit magnitude is 3.11D-15 for   1197.
 Iteration    1 A*A^-1 deviation from orthogonality  is 2.69D-15 for   2215    653.
 Iteration    1 A^-1*A deviation from unit magnitude is 3.11D-15 for   1197.
 Iteration    1 A^-1*A deviation from orthogonality  is 2.44D-15 for   2265    708.
 E= -769.417898738832    
 DIIS: error= 2.44D-02 at cycle   1 NSaved=   1.
 NSaved= 1 IEnMin= 1 EnMin= -769.417898738832     IErMin= 1 ErrMin= 2.44D-02
 ErrMax= 2.44D-02  0.00D+00 EMaxC= 1.00D-01 BMatC= 4.56D-01 BMatP= 4.56D-01
 IDIUse=3 WtCom= 7.56D-01 WtEn= 2.44D-01
 Coeff-Com:  0.100D+01
 Coeff-En:   0.100D+01
 Coeff:      0.100D+01
 Gap=     0.164 Goal=   None    Shift=    0.000
 GapD=    0.164 DampG=1.000 DampE=0.500 DampFc=0.5000 IDamp=-1.
 Damping current iteration by 5.00D-01
 RMSDP=4.25D-03 MaxDP=1.52D-01              OVMax= 1.95D-01

 Cycle   2  Pass 1  IDiag  1:
 RMSU=  2.09D-03    CP:  9.77D-01
 E= -769.607883729569     Delta-E=       -0.189984990737 Rises=F Damp=T
 DIIS: error= 7.17D-03 at cycle   2 NSaved=   2.
 NSaved= 2 IEnMin= 2 EnMin= -769.607883729569     IErMin= 2 ErrMin= 7.17D-03
 ErrMax= 7.17D-03  0.00D+00 EMaxC= 1.00D-01 BMatC= 4.08D-02 BMatP= 4.56D-01
 IDIUse=3 WtCom= 9.28D-01 WtEn= 7.17D-02
 Coeff-Com:  0.107D+00 0.893D+00
 Coeff-En:   0.136D+00 0.864D+00
 Coeff:      0.109D+00 0.891D+00
 Gap=     0.203 Goal=   None    Shift=    0.000
 RMSDP=1.17D-03 MaxDP=4.50D-02 DE=-1.90D-01 OVMax= 1.70D-01

 Cycle   3  Pass 1  IDiag  1:
 RMSU=  1.12D-03    CP:  9.66D-01  8.75D-01
 E= -769.822048135082     Delta-E=       -0.214164405512 Rises=F Damp=F
 DIIS: error= 1.26D-02 at cycle   3 NSaved=   3.
 NSaved= 3 IEnMin= 3 EnMin= -769.822048135082     IErMin= 2 ErrMin= 7.17D-03
 ErrMax= 1.26D-02  0.00D+00 EMaxC= 1.00D-01 BMatC= 5.10D-02 BMatP= 4.08D-02
 IDIUse=2 WtCom= 0.00D+00 WtEn= 1.00D+00
 Coeff-En:   0.000D+00 0.000D+00 0.100D+01
 Coeff:      0.000D+00 0.000D+00 0.100D+01
 Gap=     0.188 Goal=   None    Shift=    0.000
 RMSDP=1.92D-03 MaxDP=9.88D-02 DE=-2.14D-01 OVMax= 1.63D-01

 Cycle   4  Pass 1  IDiag  1:
 RMSU=  1.14D-03    CP:  9.72D-01  1.22D+00 -2.04D-01
 E= -769.651833806495     Delta-E=        0.170214328586 Rises=F Damp=F
 DIIS: error= 2.90D-02 at cycle   4 NSaved=   4.
 NSaved= 4 IEnMin= 3 EnMin= -769.822048135082     IErMin= 2 ErrMin= 7.17D-03
 ErrMax= 2.90D-02  0.00D+00 EMaxC= 1.00D-01 BMatC= 2.66D-01 BMatP= 4.08D-02
 IDIUse=2 WtCom= 0.00D+00 WtEn= 1.00D+00
 Coeff-En:   0.000D+00 0.000D+00 0.780D+00 0.220D+00
 Coeff:      0.000D+00 0.000D+00 0.780D+00 0.220D+00
 Gap=     0.181 Goal=   None    Shift=    0.000
 RMSDP=1.04D-03 MaxDP=5.38D-02 DE= 1.70D-01 OVMax= 8.20D-02

 Cycle   5  Pass 1  IDiag  1:
 RMSU=  1.36D-04    CP:  9.70D-01  9.93D-01  4.19D-01  4.88D-01
 E= -769.850678301971     Delta-E=       -0.198844495475 Rises=F Damp=F
 DIIS: error= 7.49D-03 at cycle   5 NSaved=   5.
 NSaved= 5 IEnMin= 5 EnMin= -769.850678301971     IErMin= 2 ErrMin= 7.17D-03
 ErrMax= 7.49D-03  0.00D+00 EMaxC= 1.00D-01 BMatC= 1.75D-02 BMatP= 4.08D-02
 IDIUse=3 WtCom= 9.25D-01 WtEn= 7.49D-02
 Coeff-Com: -0.386D-02 0.194D-01 0.270D+00-0.982D-01 0.813D+00
 Coeff-En:   0.000D+00 0.000D+00 0.299D+00 0.000D+00 0.701D+00
 Coeff:     -0.357D-02 0.179D-01 0.272D+00-0.909D-01 0.805D+00
 Gap=     0.190 Goal=   None    Shift=    0.000
 RMSDP=3.45D-04 MaxDP=1.73D-02 DE=-1.99D-01 OVMax= 2.68D-02

 Cycle   6  Pass 1  IDiag  1:
 RMSU=  4.39D-05    CP:  9.68D-01  9.44D-01  6.36D-01  3.00D-01  7.91D-01
 E= -769.864996244898     Delta-E=       -0.014317942928 Rises=F Damp=F
 DIIS: error= 2.85D-04 at cycle   6 NSaved=   6.
 NSaved= 6 IEnMin= 6 EnMin= -769.864996244898     IErMin= 6 ErrMin= 2.85D-04
 ErrMax= 2.85D-04  0.00D+00 EMaxC= 1.00D-01 BMatC= 4.39D-05 BMatP= 1.75D-02
 IDIUse=3 WtCom= 9.97D-01 WtEn= 2.85D-03
 Coeff-Com: -0.323D-02 0.966D-02 0.124D+00-0.627D-01 0.449D+00 0.484D+00
 Coeff-En:   0.000D+00 0.000D+00 0.000D+00 0.000D+00 0.000D+00 0.100D+01
 Coeff:     -0.322D-02 0.963D-02 0.123D+00-0.625D-01 0.448D+00 0.485D+00
 Gap=     0.188 Goal=   None    Shift=    0.000
 RMSDP=2.35D-05 MaxDP=8.32D-04 DE=-1.43D-02 OVMax= 2.03D-03

 Cycle   7  Pass 1  IDiag  1:
 RMSU=  1.01D-05    CP:  9.68D-01  9.45D-01  6.31D-01  3.06D-01  8.55D-01
                    CP:  6.09D-01
 E= -769.865040950365     Delta-E=       -0.000044705467 Rises=F Damp=F
 DIIS: error= 8.42D-05 at cycle   7 NSaved=   7.
 NSaved= 7 IEnMin= 7 EnMin= -769.865040950365     IErMin= 7 ErrMin= 8.42D-05
 ErrMax= 8.42D-05  0.00D+00 EMaxC= 1.00D-01 BMatC= 2.42D-06 BMatP= 4.39D-05
 IDIUse=1 WtCom= 1.00D+00 WtEn= 0.00D+00
 Coeff-Com: -0.101D-02 0.240D-02 0.395D-01-0.221D-01 0.150D+00 0.225D+00
 Coeff-Com:  0.606D+00
 Coeff:     -0.101D-02 0.240D-02 0.395D-01-0.221D-01 0.150D+00 0.225D+00
 Coeff:      0.606D+00
 Gap=     0.188 Goal=   None    Shift=    0.000
 RMSDP=5.57D-06 MaxDP=2.83D-04 DE=-4.47D-05 OVMax= 5.18D-04

 Cycle   8  Pass 1  IDiag  1:
 RMSU=  3.43D-06    CP:  9.68D-01  9.45D-01  6.33D-01  3.05D-01  8.53D-01
                    CP:  6.39D-01  6.72D-01
 E= -769.865043056452     Delta-E=       -0.000002106087 Rises=F Damp=F
 DIIS: error= 2.84D-05 at cycle   8 NSaved=   8.
 NSaved= 8 IEnMin= 8 EnMin= -769.865043056452     IErMin= 8 ErrMin= 2.84D-05
 ErrMax= 2.84D-05  0.00D+00 EMaxC= 1.00D-01 BMatC= 4.00D-07 BMatP= 2.42D-06
 IDIUse=1 WtCom= 1.00D+00 WtEn= 0.00D+00
 Coeff-Com: -0.887D-04-0.399D-04 0.907D-02-0.478D-02 0.324D-01 0.694D-01
 Coeff-Com:  0.350D+00 0.544D+00
 Coeff:     -0.887D-04-0.399D-04 0.907D-02-0.478D-02 0.324D-01 0.694D-01
 Coeff:      0.350D+00 0.544D+00
 Gap=     0.188 Goal=   None    Shift=    0.000
 RMSDP=1.90D-06 MaxDP=7.82D-05 DE=-2.11D-06 OVMax= 1.56D-04

 Cycle   9  Pass 1  IDiag  1:
 RMSU=  8.27D-07    CP:  9.68D-01  9.45D-01  6.33D-01  3.05D-01  8.53D-01
                    CP:  6.35D-01  7.46D-01  5.69D-01
 E= -769.865043441497     Delta-E=       -0.000000385045 Rises=F Damp=F
 DIIS: error= 6.02D-06 at cycle   9 NSaved=   9.
 NSaved= 9 IEnMin= 9 EnMin= -769.865043441497     IErMin= 9 ErrMin= 6.02D-06
 ErrMax= 6.02D-06  0.00D+00 EMaxC= 1.00D-01 BMatC= 1.64D-08 BMatP= 4.00D-07
 IDIUse=1 WtCom= 1.00D+00 WtEn= 0.00D+00
 Coeff-Com:  0.467D-05-0.132D-03 0.289D-02-0.149D-02 0.988D-02 0.239D-01
 Coeff-Com:  0.142D+00 0.269D+00 0.554D+00
 Coeff:      0.467D-05-0.132D-03 0.289D-02-0.149D-02 0.988D-02 0.239D-01
 Coeff:      0.142D+00 0.269D+00 0.554D+00
 Gap=     0.188 Goal=   None    Shift=    0.000
 RMSDP=4.40D-07 MaxDP=1.78D-05 DE=-3.85D-07 OVMax= 3.82D-05

 Cycle  10  Pass 1  IDiag  1:
 RMSU=  2.91D-07    CP:  9.68D-01  9.45D-01  6.33D-01  3.05D-01  8.52D-01
                    CP:  6.37D-01  7.47D-01  6.03D-01  6.67D-01
 E= -769.865043454928     Delta-E=       -0.000000013430 Rises=F Damp=F
 DIIS: error= 2.53D-06 at cycle  10 NSaved=  10.
 NSaved=10 IEnMin=10 EnMin= -769.865043454928     IErMin=10 ErrMin= 2.53D-06
 ErrMax= 2.53D-06  0.00D+00 EMaxC= 1.00D-01 BMatC= 2.84D-09 BMatP= 1.64D-08
 IDIUse=1 WtCom= 1.00D+00 WtEn= 0.00D+00
 Coeff-Com:  0.166D-04-0.754D-04 0.370D-03-0.219D-03 0.118D-02 0.440D-02
 Coeff-Com:  0.358D-01 0.845D-01 0.331D+00 0.543D+00
 Coeff:      0.166D-04-0.754D-04 0.370D-03-0.219D-03 0.118D-02 0.440D-02
 Coeff:      0.358D-01 0.845D-01 0.331D+00 0.543D+00
 Gap=     0.188 Goal=   None    Shift=    0.000
 RMSDP=1.80D-07 MaxDP=1.17D-05 DE=-1.34D-08 OVMax= 1.38D-05

 Cycle  11  Pass 1  IDiag  1:
 RMSU=  9.91D-08    CP:  9.68D-01  9.45D-01  6.33D-01  3.05D-01  8.53D-01
                    CP:  6.36D-01  7.47D-01  6.08D-01  7.49D-01  5.77D-01
 E= -769.865043456947     Delta-E=       -0.000000002020 Rises=F Damp=F
 DIIS: error= 9.66D-07 at cycle  11 NSaved=  11.
 NSaved=11 IEnMin=11 EnMin= -769.865043456947     IErMin=11 ErrMin= 9.66D-07
 ErrMax= 9.66D-07  0.00D+00 EMaxC= 1.00D-01 BMatC= 3.97D-10 BMatP= 2.84D-09
 IDIUse=1 WtCom= 1.00D+00 WtEn= 0.00D+00
 Coeff-Com:  0.958D-05-0.303D-04-0.153D-03 0.474D-04-0.534D-03-0.209D-03
 Coeff-Com:  0.473D-02 0.200D-01 0.146D+00 0.342D+00 0.488D+00
 Coeff:      0.958D-05-0.303D-04-0.153D-03 0.474D-04-0.534D-03-0.209D-03
 Coeff:      0.473D-02 0.200D-01 0.146D+00 0.342D+00 0.488D+00
 Gap=     0.188 Goal=   None    Shift=    0.000
 RMSDP=5.92D-08 MaxDP=3.29D-06 DE=-2.02D-09 OVMax= 3.95D-06

 Cycle  12  Pass 1  IDiag  1:
 RMSU=  3.14D-08    CP:  9.68D-01  9.45D-01  6.33D-01  3.05D-01  8.53D-01
                    CP:  6.36D-01  7.48D-01  6.08D-01  7.54D-01  6.57D-01
                    CP:  5.79D-01
 E= -769.865043457249     Delta-E=       -0.000000000301 Rises=F Damp=F
 DIIS: error= 1.87D-07 at cycle  12 NSaved=  12.
 NSaved=12 IEnMin=12 EnMin= -769.865043457249     IErMin=12 ErrMin= 1.87D-07
 ErrMax= 1.87D-07  0.00D+00 EMaxC= 1.00D-01 BMatC= 1.79D-11 BMatP= 3.97D-10
 IDIUse=1 WtCom= 1.00D+00 WtEn= 0.00D+00
 Coeff-Com:  0.182D-05-0.478D-05-0.790D-04 0.252D-04-0.244D-03-0.276D-03
 Coeff-Com: -0.744D-03 0.194D-02 0.407D-01 0.112D+00 0.228D+00 0.619D+00
 Coeff:      0.182D-05-0.478D-05-0.790D-04 0.252D-04-0.244D-03-0.276D-03
 Coeff:     -0.744D-03 0.194D-02 0.407D-01 0.112D+00 0.228D+00 0.619D+00
 Gap=     0.188 Goal=   None    Shift=    0.000
 RMSDP=1.54D-08 MaxDP=6.38D-07 DE=-3.01D-10 OVMax= 1.41D-06

 Cycle  13  Pass 1  IDiag  1:
 RMSU=  9.48D-09    CP:  9.68D-01  9.45D-01  6.33D-01  3.05D-01  8.53D-01
                    CP:  6.36D-01  7.48D-01  6.08D-01  7.55D-01  6.62D-01
                    CP:  6.16D-01  6.62D-01
 E= -769.865043457260     Delta-E=       -0.000000000011 Rises=F Damp=F
 DIIS: error= 8.02D-08 at cycle  13 NSaved=  13.
 NSaved=13 IEnMin=13 EnMin= -769.865043457260     IErMin=13 ErrMin= 8.02D-08
 ErrMax= 8.02D-08  0.00D+00 EMaxC= 1.00D-01 BMatC= 2.58D-12 BMatP= 1.79D-11
 IDIUse=1 WtCom= 1.00D+00 WtEn= 0.00D+00
 Coeff-Com:  0.262D-06-0.472D-06-0.340D-04 0.135D-04-0.105D-03-0.133D-03
 Coeff-Com: -0.924D-03-0.888D-03 0.956D-02 0.296D-01 0.770D-01 0.337D+00
 Coeff-Com:  0.549D+00
 Coeff:      0.262D-06-0.472D-06-0.340D-04 0.135D-04-0.105D-03-0.133D-03
 Coeff:     -0.924D-03-0.888D-03 0.956D-02 0.296D-01 0.770D-01 0.337D+00
 Coeff:      0.549D+00
 Gap=     0.188 Goal=   None    Shift=    0.000
 RMSDP=5.47D-09 MaxDP=2.35D-07 DE=-1.11D-11 OVMax= 6.20D-07

 Error on total polarization charges =  0.00924
 SCF Done:  E(RB3LYP) =  -769.865043457     A.U. after   13 cycles
            NFock= 13  Conv=0.55D-08     -V/T= 2.0096
 KE= 7.625269042290D+02 PE=-4.371573775526D+03 EE= 1.547886930835D+03
 Leave Link  502 at Fri May 10 12:04:07 2019, MaxMem=   104857600 cpu:             741.8 elap:              24.0
 (Enter /opt/software/gaussian/g16.b01/l601.exe)
 Copying SCF densities to generalized density rwf, IOpCl= 0 IROHF=0.

 **********************************************************************

            Population analysis using the SCF Density.

 **********************************************************************

 Orbital symmetries:
       Occupied  (A) (A) (A) (A) (A) (A) (A) (A) (A) (A) (A) (A)
                 (A) (A) (A) (A) (A) (A) (A) (A) (A) (A) (A) (A)
                 (A) (A) (A) (A) (A) (A) (A) (A) (A) (A) (A) (A)
                 (A) (A) (A) (A) (A) (A) (A) (A) (A) (A) (A) (A)
                 (A) (A) (A) (A) (A) (A) (A) (A) (A) (A) (A) (A)
                 (A) (A) (A) (A)
       Virtual   (A) (A) (A) (A) (A) (A) (A) (A) (A) (A) (A) (A)
                 (A) (A) (A) (A) (A) (A) (A) (A) (A) (A) (A) (A)
                 (A) (A) (A) (A) (A) (A) (A) (A) (A) (A) (A) (A)
                 (A) (A) (A) (A) (A) (A) (A) (A) (A) (A) (A) (A)
                 (A) (A) (A) (A) (A) (A) (A) (A) (A) (A) (A) (A)
                 (A) (A) (A) (A) (A) (A) (A) (A) (A) (A) (A) (A)
                 (A) (A) (A) (A) (A) (A) (A) (A) (A) (A) (A) (A)
                 (A) (A) (A) (A) (A) (A) (A) (A) (A) (A) (A) (A)
                 (A) (A) (A) (A) (A) (A) (A) (A) (A) (A) (A) (A)
                 (A) (A) (A) (A) (A) (A) (A) (A) (A) (A) (A) (A)
                 (A) (A) (A) (A) (A) (A) (A) (A) (A) (A) (A) (A)
                 (A) (A) (A) (A) (A) (A) (A) (A) (A) (A) (A) (A)
                 (A) (A) (A) (A) (A) (A) (A) (A) (A) (A) (A) (A)
                 (A) (A) (A) (A) (A) (A) (A) (A) (A) (A) (A) (A)
                 (A) (A) (A) (A) (A) (A) (A) (A) (A) (A) (A) (A)
                 (A) (A) (A) (A) (A) (A) (A) (A) (A) (A) (A) (A)
                 (A) (A) (A) (A) (A) (A) (A) (A) (A) (A) (A) (A)
                 (A) (A) (A) (A) (A) (A) (A) (A) (A) (A) (A) (A)
                 (A) (A) (A) (A) (A) (A) (A) (A) (A) (A) (A) (A)
                 (A) (A) (A) (A) (A) (A) (A) (A) (A) (A) (A) (A)
                 (A) (A) (A) (A) (A) (A) (A) (A) (A) (A) (A) (A)
                 (A) (A) (A) (A) (A) (A) (A) (A) (A) (A) (A) (A)
                 (A) (A) (A) (A) (A) (A) (A) (A) (A) (A) (A) (A)
                 (A) (A) (A) (A) (A) (A) (A) (A) (A) (A)
 The electronic state is 1-A.
 Alpha  occ. eigenvalues --  -19.13996 -19.13765 -10.27973 -10.27794 -10.20057
 Alpha  occ. eigenvalues --  -10.20037 -10.19965 -10.19963 -10.19959 -10.19951
 Alpha  occ. eigenvalues --  -10.19657 -10.19630 -10.19563 -10.19555 -10.19548
 Alpha  occ. eigenvalues --  -10.19500 -10.18322 -10.18148  -1.03634  -1.03348
 Alpha  occ. eigenvalues --   -0.86186  -0.85883  -0.77266  -0.77181  -0.75232
 Alpha  occ. eigenvalues --   -0.75039  -0.72854  -0.72662  -0.62922  -0.62802
 Alpha  occ. eigenvalues --   -0.60737  -0.60676  -0.55159  -0.55049  -0.51176
 Alpha  occ. eigenvalues --   -0.50832  -0.46436  -0.46371  -0.46009  -0.45798
 Alpha  occ. eigenvalues --   -0.45181  -0.44510  -0.44393  -0.43111  -0.42539
 Alpha  occ. eigenvalues --   -0.42476  -0.41398  -0.41372  -0.38802  -0.38732
 Alpha  occ. eigenvalues --   -0.38186  -0.37276  -0.35728  -0.35690  -0.35127
 Alpha  occ. eigenvalues --   -0.34709  -0.34487  -0.34452  -0.26723  -0.26024
 Alpha  occ. eigenvalues --   -0.25509  -0.25352  -0.25134  -0.24881
 Alpha virt. eigenvalues --   -0.06106  -0.05317  -0.01073  -0.00402   0.03951
 Alpha virt. eigenvalues --    0.04108   0.08738   0.10187   0.12042   0.12183
 Alpha virt. eigenvalues --    0.14815   0.14873   0.15322   0.15807   0.16161
 Alpha virt. eigenvalues --    0.16270   0.16692   0.16981   0.18198   0.18575
 Alpha virt. eigenvalues --    0.19357   0.20126   0.20478   0.21775   0.22645
 Alpha virt. eigenvalues --    0.22859   0.27132   0.27212   0.28864   0.29471
 Alpha virt. eigenvalues --    0.30167   0.30419   0.31444   0.32547   0.33891
 Alpha virt. eigenvalues --    0.35974   0.36786   0.37246   0.41486   0.45800
 Alpha virt. eigenvalues --    0.47833   0.48959   0.49789   0.51582   0.51666
 Alpha virt. eigenvalues --    0.51866   0.52722   0.53474   0.53687   0.54743
 Alpha virt. eigenvalues --    0.55655   0.55960   0.57053   0.57620   0.59197
 Alpha virt. eigenvalues --    0.59600   0.59862   0.60041   0.60485   0.60880
 Alpha virt. eigenvalues --    0.61301   0.61816   0.65028   0.65481   0.66337
 Alpha virt. eigenvalues --    0.66982   0.68337   0.69352   0.69902   0.71524
 Alpha virt. eigenvalues --    0.72219   0.74474   0.75477   0.75707   0.76942
 Alpha virt. eigenvalues --    0.78813   0.79339   0.80347   0.80978   0.81151
 Alpha virt. eigenvalues --    0.81926   0.82125   0.82310   0.82936   0.83277
 Alpha virt. eigenvalues --    0.83927   0.85265   0.86407   0.87602   0.88333
 Alpha virt. eigenvalues --    0.89630   0.90176   0.90939   0.91697   0.92691
 Alpha virt. eigenvalues --    0.93823   0.94953   0.96422   0.97242   0.99563
 Alpha virt. eigenvalues --    1.00945   1.01843   1.02600   1.03436   1.04733
 Alpha virt. eigenvalues --    1.06608   1.07660   1.09792   1.11351   1.13905
 Alpha virt. eigenvalues --    1.14363   1.14619   1.17177   1.17709   1.19937
 Alpha virt. eigenvalues --    1.20634   1.24329   1.24846   1.26219   1.26758
 Alpha virt. eigenvalues --    1.27100   1.28163   1.32513   1.32881   1.34921
 Alpha virt. eigenvalues --    1.35679   1.38255   1.39525   1.39932   1.40399
 Alpha virt. eigenvalues --    1.41022   1.41376   1.41445   1.42416   1.43015
 Alpha virt. eigenvalues --    1.43322   1.44767   1.47073   1.47446   1.49418
 Alpha virt. eigenvalues --    1.59588   1.60163   1.68579   1.69371   1.71659
 Alpha virt. eigenvalues --    1.73016   1.75272   1.76456   1.76573   1.77660
 Alpha virt. eigenvalues --    1.78389   1.79149   1.82640   1.83612   1.86635
 Alpha virt. eigenvalues --    1.86703   1.87602   1.88157   1.89524   1.91496
 Alpha virt. eigenvalues --    1.92643   1.93342   1.93900   1.94718   1.94902
 Alpha virt. eigenvalues --    1.95964   1.97038   1.97459   1.98582   2.00293
 Alpha virt. eigenvalues --    2.00899   2.01807   2.02942   2.03822   2.04133
 Alpha virt. eigenvalues --    2.04786   2.07513   2.07765   2.07999   2.08922
 Alpha virt. eigenvalues --    2.09537   2.10658   2.12592   2.13675   2.17130
 Alpha virt. eigenvalues --    2.17557   2.18793   2.19420   2.27372   2.28741
 Alpha virt. eigenvalues --    2.28819   2.29061   2.29709   2.30629   2.34343
 Alpha virt. eigenvalues --    2.35702   2.36962   2.37180   2.37824   2.38593
 Alpha virt. eigenvalues --    2.39341   2.40098   2.40849   2.41409   2.44341
 Alpha virt. eigenvalues --    2.45099   2.46208   2.46692   2.47146   2.47339
 Alpha virt. eigenvalues --    2.49148   2.50319   2.52340   2.52481   2.53906
 Alpha virt. eigenvalues --    2.54527   2.57221   2.57503   2.58856   2.59226
 Alpha virt. eigenvalues --    2.59776   2.59992   2.64698   2.65331   2.65569
 Alpha virt. eigenvalues --    2.66148   2.66637   2.67409   2.73244   2.73767
 Alpha virt. eigenvalues --    2.74863   2.74988   2.76091   2.76909   2.82085
 Alpha virt. eigenvalues --    2.82296   2.84984   2.85528   2.88205   2.88833
 Alpha virt. eigenvalues --    2.94871   2.96420   3.04058   3.04726   3.05971
 Alpha virt. eigenvalues --    3.06233   3.08589   3.09259   3.19404   3.20163
 Alpha virt. eigenvalues --    3.23359   3.23480   3.24077   3.24761   3.25591
 Alpha virt. eigenvalues --    3.25755   3.38443   3.38601   3.42538   3.42835
 Alpha virt. eigenvalues --    3.43067   3.43607   3.46338   3.46529   3.51341
 Alpha virt. eigenvalues --    3.51606   3.89420   3.89526   3.98839   4.06925
 Alpha virt. eigenvalues --    4.09979   4.13917   4.17076   4.20689   4.22080
 Alpha virt. eigenvalues --    4.25422   4.35085   4.38220   4.43557   4.44287
 Alpha virt. eigenvalues --    4.45838   4.48171   4.60113   4.62148   4.84136
 Alpha virt. eigenvalues --    4.85259
          Condensed to atoms (all electrons):
               1          2          3          4          5          6
     1  C    4.591928   0.002390  -0.000914   0.526423   0.338288  -0.018863
     2  C    0.002390   4.569355   0.543024   0.004293   0.000068   0.000105
     3  O   -0.000914   0.543024   8.114652  -0.000585   0.002061   0.000078
     4  O    0.526423   0.004293  -0.000585   8.123663  -0.088616   0.001680
     5  C    0.338288   0.000068   0.002061  -0.088616   5.174795   0.357271
     6  H   -0.018863   0.000105   0.000078   0.001680   0.357271   0.565404
     7  H   -0.018729  -0.000885   0.000700   0.001340   0.359439  -0.025520
     8  H   -0.021043   0.000591   0.001648   0.005067   0.359444  -0.022538
     9  C   -0.000473   0.340864  -0.088467  -0.003830  -0.000133   0.000002
    10  H    0.000016  -0.018960   0.001815   0.000138  -0.000001   0.000000
    11  H    0.000016  -0.018617   0.001031   0.010496   0.000210  -0.000004
    12  H    0.000022  -0.022003   0.005324  -0.000016  -0.000008  -0.000000
    13  C    0.283309  -0.000769  -0.000015  -0.085449  -0.111053   0.000493
    14  C   -0.032781  -0.000025   0.000002  -0.002052   0.009556  -0.000381
    15  C   -0.040561  -0.000086   0.000002   0.004293  -0.007656   0.000315
    16  C    0.006637   0.000001   0.000000   0.001083  -0.000111  -0.000004
    17  H   -0.011079   0.000008   0.000000   0.017517   0.000695  -0.000025
    18  C    0.004923   0.000001   0.000000  -0.000073  -0.000070   0.000071
    19  H   -0.012010  -0.000013  -0.000002   0.000068   0.007148   0.000578
    20  C    0.000099   0.000000  -0.000000  -0.000015  -0.000012   0.000001
    21  H   -0.000151   0.000000   0.000000   0.000003   0.000002   0.000000
    22  H   -0.000129  -0.000000   0.000000   0.000000   0.000009  -0.000003
    23  H    0.000008  -0.000000  -0.000000   0.000000  -0.000000   0.000000
    24  C    0.002370   0.278287  -0.086460  -0.002079  -0.001752  -0.000002
    25  C    0.000940  -0.033788  -0.002955  -0.000026  -0.002970   0.000020
    26  C    0.000808  -0.040359   0.004518  -0.000144   0.000131  -0.000003
    27  C    0.000086   0.006676   0.001116   0.000004  -0.000372   0.000009
    28  H   -0.000052  -0.010569   0.017163   0.000000  -0.000401   0.000010
    29  C   -0.000507   0.004890  -0.000073  -0.000009   0.000023  -0.000000
    30  H   -0.000046  -0.011788   0.000079  -0.000082   0.000002  -0.000000
    31  C   -0.000126   0.000093  -0.000017   0.000004   0.000012  -0.000000
    32  H   -0.000001  -0.000149   0.000004   0.000000  -0.000002   0.000000
    33  H   -0.000007  -0.000125   0.000000   0.000000   0.000000   0.000000
    34  H   -0.000001   0.000008   0.000000   0.000000   0.000000  -0.000000
               7          8          9         10         11         12
     1  C   -0.018729  -0.021043  -0.000473   0.000016   0.000016   0.000022
     2  C   -0.000885   0.000591   0.340864  -0.018960  -0.018617  -0.022003
     3  O    0.000700   0.001648  -0.088467   0.001815   0.001031   0.005324
     4  O    0.001340   0.005067  -0.003830   0.000138   0.010496  -0.000016
     5  C    0.359439   0.359444  -0.000133  -0.000001   0.000210  -0.000008
     6  H   -0.025520  -0.022538   0.000002   0.000000  -0.000004  -0.000000
     7  H    0.549921  -0.022712   0.000069  -0.000001  -0.000040  -0.000003
     8  H   -0.022712   0.563338   0.000023   0.000003  -0.000023   0.000025
     9  C    0.000069   0.000023   5.181751   0.356344   0.358713   0.359078
    10  H   -0.000001   0.000003   0.356344   0.569833  -0.025177  -0.023319
    11  H   -0.000040  -0.000023   0.358713  -0.025177   0.536214  -0.021107
    12  H   -0.000003   0.000025   0.359078  -0.023319  -0.021107   0.570382
    13  C   -0.000003   0.005784   0.000128   0.000005  -0.000320  -0.000001
    14  C   -0.000305  -0.000143  -0.000030  -0.000002   0.000058  -0.000000
    15  C   -0.000060   0.000079  -0.000000  -0.000000  -0.000002  -0.000000
    16  C   -0.000002   0.000002  -0.000001  -0.000000   0.000005   0.000000
    17  H   -0.000020  -0.000017  -0.000056  -0.000002   0.000345  -0.000000
    18  C    0.000138  -0.000002   0.000000   0.000000  -0.000000   0.000000
    19  H    0.000903  -0.000094  -0.000000  -0.000000  -0.000000  -0.000000
    20  C    0.000001   0.000000  -0.000000   0.000000   0.000000  -0.000000
    21  H    0.000000  -0.000000  -0.000000  -0.000000  -0.000000   0.000000
    22  H   -0.000004  -0.000000  -0.000000  -0.000000   0.000000   0.000000
    23  H    0.000000  -0.000000   0.000000   0.000000  -0.000000  -0.000000
    24  C    0.000636   0.000003  -0.111249   0.001072  -0.000421   0.005930
    25  C    0.005425  -0.000026   0.009546  -0.000402  -0.000261  -0.000145
    26  C   -0.000066  -0.000028  -0.007953   0.000404   0.000197   0.000062
    27  C    0.000557   0.000001  -0.000112  -0.000006  -0.000001   0.000002
    28  H    0.001777  -0.000001   0.000687  -0.000027  -0.000017  -0.000018
    29  C   -0.000043   0.000001  -0.000061   0.000092   0.000120  -0.000002
    30  H   -0.000000  -0.000001   0.007519   0.000512   0.000844  -0.000109
    31  C   -0.000021   0.000000  -0.000011   0.000001   0.000001   0.000000
    32  H    0.000011  -0.000000   0.000002   0.000000   0.000000  -0.000000
    33  H    0.000000  -0.000000   0.000009  -0.000003  -0.000004  -0.000000
    34  H   -0.000001  -0.000000  -0.000000   0.000000   0.000000  -0.000000
              13         14         15         16         17         18
     1  C    0.283309  -0.032781  -0.040561   0.006637  -0.011079   0.004923
     2  C   -0.000769  -0.000025  -0.000086   0.000001   0.000008   0.000001
     3  O   -0.000015   0.000002   0.000002   0.000000   0.000000   0.000000
     4  O   -0.085449  -0.002052   0.004293   0.001083   0.017517  -0.000073
     5  C   -0.111053   0.009556  -0.007656  -0.000111   0.000695  -0.000070
     6  H    0.000493  -0.000381   0.000315  -0.000004  -0.000025   0.000071
     7  H   -0.000003  -0.000305  -0.000060  -0.000002  -0.000020   0.000138
     8  H    0.005784  -0.000143   0.000079   0.000002  -0.000017  -0.000002
     9  C    0.000128  -0.000030  -0.000000  -0.000001  -0.000056   0.000000
    10  H    0.000005  -0.000002  -0.000000  -0.000000  -0.000002   0.000000
    11  H   -0.000320   0.000058  -0.000002   0.000005   0.000345  -0.000000
    12  H   -0.000001  -0.000000  -0.000000   0.000000  -0.000000   0.000000
    13  C    5.016843   0.485286   0.506098  -0.025967  -0.047653  -0.018857
    14  C    0.485286   4.958127  -0.073546   0.494433   0.367525  -0.040619
    15  C    0.506098  -0.073546   4.946022  -0.039656   0.005923   0.515175
    16  C   -0.025967   0.494433  -0.039656   4.868040  -0.040226  -0.032215
    17  H   -0.047653   0.367525   0.005923  -0.040226   0.598895   0.000223
    18  C   -0.018857  -0.040619   0.515175  -0.032215   0.000223   4.833998
    19  H   -0.038270   0.005367   0.368981   0.000299  -0.000153  -0.040231
    20  C   -0.035213  -0.036170  -0.039618   0.530069   0.004598   0.542925
    21  H    0.003526  -0.037510   0.000793   0.372854  -0.005261   0.004401
    22  H    0.003452   0.000793  -0.035936   0.004374   0.000016   0.371724
    23  H    0.000670   0.004360   0.004700  -0.040201  -0.000162  -0.039869
    24  C   -0.001101  -0.000566  -0.000366  -0.000006  -0.000039   0.000024
    25  C   -0.000474  -0.000055   0.000252   0.000006  -0.000000  -0.000105
    26  C    0.000099   0.001056  -0.000375  -0.000362   0.000133  -0.000033
    27  C   -0.000472  -0.000055   0.001232   0.000018  -0.000001  -0.000307
    28  H   -0.000005  -0.000001  -0.000006   0.000000  -0.000000  -0.000001
    29  C   -0.000416   0.001360  -0.000754  -0.000069  -0.000022   0.000042
    30  H   -0.000049   0.000318   0.000012   0.000008   0.000233  -0.000004
    31  C   -0.000699  -0.000190   0.001627  -0.000131   0.000006   0.000909
    32  H    0.000002   0.000001  -0.000033  -0.000000   0.000000  -0.000000
    33  H   -0.000075   0.000152  -0.000057   0.000924  -0.000006  -0.000020
    34  H   -0.000019  -0.000013  -0.000034   0.000001  -0.000000   0.000372
              19         20         21         22         23         24
     1  C   -0.012010   0.000099  -0.000151  -0.000129   0.000008   0.002370
     2  C   -0.000013   0.000000   0.000000  -0.000000  -0.000000   0.278287
     3  O   -0.000002  -0.000000   0.000000   0.000000  -0.000000  -0.086460
     4  O    0.000068  -0.000015   0.000003   0.000000   0.000000  -0.002079
     5  C    0.007148  -0.000012   0.000002   0.000009  -0.000000  -0.001752
     6  H    0.000578   0.000001   0.000000  -0.000003   0.000000  -0.000002
     7  H    0.000903   0.000001   0.000000  -0.000004   0.000000   0.000636
     8  H   -0.000094   0.000000  -0.000000  -0.000000  -0.000000   0.000003
     9  C   -0.000000  -0.000000  -0.000000  -0.000000   0.000000  -0.111249
    10  H   -0.000000   0.000000  -0.000000  -0.000000   0.000000   0.001072
    11  H   -0.000000   0.000000  -0.000000   0.000000  -0.000000  -0.000421
    12  H   -0.000000  -0.000000   0.000000   0.000000  -0.000000   0.005930
    13  C   -0.038270  -0.035213   0.003526   0.003452   0.000670  -0.001101
    14  C    0.005367  -0.036170  -0.037510   0.000793   0.004360  -0.000566
    15  C    0.368981  -0.039618   0.000793  -0.035936   0.004700  -0.000366
    16  C    0.000299   0.530069   0.372854   0.004374  -0.040201  -0.000006
    17  H   -0.000153   0.004598  -0.005261   0.000016  -0.000162  -0.000039
    18  C   -0.040231   0.542925   0.004401   0.371724  -0.039869   0.000024
    19  H    0.598803   0.004674   0.000015  -0.005642  -0.000172  -0.000014
    20  C    0.004674   4.822854  -0.040729  -0.040382   0.373112   0.000016
    21  H    0.000015  -0.040729   0.600528  -0.000172  -0.005579  -0.000000
    22  H   -0.005642  -0.040382  -0.000172   0.599580  -0.005659  -0.000000
    23  H   -0.000172   0.373112  -0.005579  -0.005659   0.599144   0.000000
    24  C   -0.000014   0.000016  -0.000000  -0.000000   0.000000   5.054473
    25  C    0.000139  -0.000006  -0.000000   0.000001   0.000000   0.483686
    26  C   -0.000015  -0.000047  -0.000007   0.000001  -0.000000   0.501529
    27  C    0.000483  -0.000038   0.000000  -0.000001  -0.000000  -0.027419
    28  H   -0.000022  -0.000000  -0.000000   0.000000   0.000000  -0.047924
    29  C   -0.000004   0.000124  -0.000034  -0.000003  -0.000004  -0.019511
    30  H    0.000000  -0.000000  -0.000002   0.000000  -0.000000  -0.039195
    31  C   -0.000006   0.000029  -0.000001  -0.000016   0.000000  -0.035474
    32  H    0.000060   0.000001  -0.000000   0.000006  -0.000000   0.003600
    33  H   -0.000000   0.000256   0.000062  -0.000001  -0.000000   0.003557
    34  H   -0.000004   0.000179  -0.000001   0.000038   0.000007   0.000668
              25         26         27         28         29         30
     1  C    0.000940   0.000808   0.000086  -0.000052  -0.000507  -0.000046
     2  C   -0.033788  -0.040359   0.006676  -0.010569   0.004890  -0.011788
     3  O   -0.002955   0.004518   0.001116   0.017163  -0.000073   0.000079
     4  O   -0.000026  -0.000144   0.000004   0.000000  -0.000009  -0.000082
     5  C   -0.002970   0.000131  -0.000372  -0.000401   0.000023   0.000002
     6  H    0.000020  -0.000003   0.000009   0.000010  -0.000000  -0.000000
     7  H    0.005425  -0.000066   0.000557   0.001777  -0.000043  -0.000000
     8  H   -0.000026  -0.000028   0.000001  -0.000001   0.000001  -0.000001
     9  C    0.009546  -0.007953  -0.000112   0.000687  -0.000061   0.007519
    10  H   -0.000402   0.000404  -0.000006  -0.000027   0.000092   0.000512
    11  H   -0.000261   0.000197  -0.000001  -0.000017   0.000120   0.000844
    12  H   -0.000145   0.000062   0.000002  -0.000018  -0.000002  -0.000109
    13  C   -0.000474   0.000099  -0.000472  -0.000005  -0.000416  -0.000049
    14  C   -0.000055   0.001056  -0.000055  -0.000001   0.001360   0.000318
    15  C    0.000252  -0.000375   0.001232  -0.000006  -0.000754   0.000012
    16  C    0.000006  -0.000362   0.000018   0.000000  -0.000069   0.000008
    17  H   -0.000000   0.000133  -0.000001  -0.000000  -0.000022   0.000233
    18  C   -0.000105  -0.000033  -0.000307  -0.000001   0.000042  -0.000004
    19  H    0.000139  -0.000015   0.000483  -0.000022  -0.000004   0.000000
    20  C   -0.000006  -0.000047  -0.000038  -0.000000   0.000124  -0.000000
    21  H   -0.000000  -0.000007   0.000000  -0.000000  -0.000034  -0.000002
    22  H    0.000001   0.000001  -0.000001   0.000000  -0.000003   0.000000
    23  H    0.000000  -0.000000  -0.000000   0.000000  -0.000004  -0.000000
    24  C    0.483686   0.501529  -0.027419  -0.047924  -0.019511  -0.039195
    25  C    4.973976  -0.075967   0.492630   0.367760  -0.040327   0.005388
    26  C   -0.075967   4.950910  -0.039246   0.005772   0.515806   0.369834
    27  C    0.492630  -0.039246   4.868003  -0.039702  -0.031428   0.000289
    28  H    0.367760   0.005772  -0.039702   0.594751   0.000240  -0.000153
    29  C   -0.040327   0.515806  -0.031428   0.000240   4.823154  -0.040316
    30  H    0.005388   0.369834   0.000289  -0.000153  -0.040316   0.598157
    31  C   -0.035987  -0.038762   0.529283   0.004528   0.543435   0.004706
    32  H   -0.037792   0.000792   0.372945  -0.005231   0.004398   0.000015
    33  H    0.000771  -0.035991   0.004405   0.000016   0.371015  -0.005684
    34  H    0.004389   0.004699  -0.040191  -0.000161  -0.039536  -0.000172
              31         32         33         34
     1  C   -0.000126  -0.000001  -0.000007  -0.000001
     2  C    0.000093  -0.000149  -0.000125   0.000008
     3  O   -0.000017   0.000004   0.000000   0.000000
     4  O    0.000004   0.000000   0.000000   0.000000
     5  C    0.000012  -0.000002   0.000000   0.000000
     6  H   -0.000000   0.000000   0.000000  -0.000000
     7  H   -0.000021   0.000011   0.000000  -0.000001
     8  H    0.000000  -0.000000  -0.000000  -0.000000
     9  C   -0.000011   0.000002   0.000009  -0.000000
    10  H    0.000001   0.000000  -0.000003   0.000000
    11  H    0.000001   0.000000  -0.000004   0.000000
    12  H    0.000000  -0.000000  -0.000000  -0.000000
    13  C   -0.000699   0.000002  -0.000075  -0.000019
    14  C   -0.000190   0.000001   0.000152  -0.000013
    15  C    0.001627  -0.000033  -0.000057  -0.000034
    16  C   -0.000131  -0.000000   0.000924   0.000001
    17  H    0.000006   0.000000  -0.000006  -0.000000
    18  C    0.000909  -0.000000  -0.000020   0.000372
    19  H   -0.000006   0.000060  -0.000000  -0.000004
    20  C    0.000029   0.000001   0.000256   0.000179
[...]
 7,-0.01059672,0.00976509,0.03466801,-0.07307559,0.02938386,-0.01936867
 ,0.00609308,0.01366979,0.00013219,-0.00087165,-0.00007798,-0.05292705,
 0.17638167,0.00016559,-0.00032443,-0.00011187,0.00555456,0.00190515,-0
 .00216772,-0.00048201,-0.00072067,0.00097517,-0.00008814,0.00019934,-0
 .00002244,-0.00000993,0.00012009,0.00010586,-0.00002201,0.00001171,0.0
 0002245,-0.00008969,0.00013225,-0.00000431,0.00002239,-0.00004166,0.00
 000855,-0.00030337,-0.00039359,-0.00027234,0.00005815,0.00038954,-0.00
 003814,0.00017411,-0.00028292,-0.00010897,-0.00008564,-0.00002701,0.00
 031825,-0.00012786,0.00013504,-0.00018249,-0.00005215,0.00007228,0.000
 19110,0.00007132,-0.00028535,-0.00025098,-0.00006280,-0.00006030,-0.00
 002478,0.00000739,-0.00003935,0.00000736,-0.00002962,-0.00017297,0.000
 03193,0.00002785,-0.00000312,-0.00002210,0.00003438,-0.00007966,-0.000
 10335,0.00001307,0.00001487,-0.00001744,0.00000308,0.00002288,0.000001
 79,0.00003161,0.00003011,0.00000098,0.00549675,-0.01033457,0.04695008,
 -0.02962846,0.00961048,-0.02924484,-0.00911590,0.02076197,-0.13374904,
 0.04949430,0.00710172,-0.04615655,-0.00080678,0.00002339,-0.00009978,-
 0.05500030,-0.13983701,0.67305622,0.00017930,-0.00000223,0.00009407,0.
 00034693,-0.00080690,0.00080869,0.00049342,0.00011897,-0.00062937,-0.0
 0011110,-0.00013243,-0.00014010,-0.00001403,0.00001035,-0.00001799,-0.
 00000022,-0.00000236,-0.00000383,0.00000523,-0.00001312,-0.00000841,-0
 .00000575,0.00000215,0.00000372,-0.00195595,0.00046574,-0.00004121,-0.
 00169435,-0.00023927,-0.00041711,-0.00140712,0.00077494,-0.00019052,0.
 00018291,-0.00005971,0.00002223,-0.00004425,0.00004911,-0.00004011,0.0
 0001073,0.00003976,0.00003158,0.00003031,-0.00000733,0.00003206,-0.000
 00924,0.00006272,0.00003311,0.00002034,-0.00001993,0.00000767,-0.00000
 945,-0.00001223,0.00004374,0.00000127,-0.00000022,0.00000675,-0.000020
 05,0.00000881,-0.00003286,0.00000104,-0.00000160,0.00000081,0.00000083
 ,0.00000339,0.00000434,0.00000406,-0.00000028,0.00000068,0.01058788,-0
 .00673099,0.02013709,-0.00338336,0.00049800,0.00314945,-0.07514636,0.0
 2241619,-0.06105257,-0.00087092,-0.00006982,0.00035694,0.00047407,-0.0
 0027987,0.00119137,-0.00290215,0.00905372,-0.02947818,0.07992183,-0.00
 001648,0.00003191,-0.00009763,-0.00018199,-0.00390676,-0.00098658,-0.0
 0006035,0.00061734,0.00011225,-0.00002537,0.00009824,0.00013877,-0.000
 00134,-0.00000544,0.00001735,-0.00000142,0.00000514,0.00000390,-0.0000
 0484,-0.00001120,-0.00000306,-0.00000421,-0.00000109,0.00000096,0.0006
 9170,0.00148864,0.00038961,-0.00025565,-0.00035160,-0.00017287,0.00068
 753,-0.00047905,-0.00005806,0.00000721,-0.00031189,-0.00022849,0.00004
 055,0.00009912,0.00002023,0.00002318,-0.00002629,0.00001166,-0.0000554
 5,0.00002904,-0.00002345,-0.00001467,0.00009174,0.00006663,0.00001710,
 -0.00003103,0.00001780,0.00001053,-0.00004842,-0.00000454,-0.00000014,
 -0.00000572,0.00000557,-0.00001559,-0.00000124,-0.00005000,0.00000981,
 0.00000254,-0.00000703,0.00000514,0.00000327,0.00000454,0.00001042,0.0
 0000202,0.00000271,0.00087283,0.00136102,0.00213236,0.00024435,0.00596
 877,0.00131121,0.02250253,-0.06324991,0.08270161,-0.00002163,-0.000552
 13,-0.00025542,0.00014882,0.00063059,0.00024185,0.00066242,0.00249069,
 0.00556258,-0.02634242,0.05413464,0.00003865,0.00006173,-0.00024318,-0
 .00188088,-0.00057938,-0.00123756,0.00059190,0.00001464,0.00031002,-0.
 00000799,0.00013844,0.00018519,-0.00002468,-0.00002822,0.00000753,0.00
 000267,-0.00001683,0.00000732,-0.00000851,0.00002321,0.00005621,-0.000
 00365,-0.00000518,0.00000801,-0.00087010,0.00045321,0.00021943,-0.0004
 1261,0.00037088,0.00031861,-0.00019119,-0.00060071,0.00009074,-0.00022
 585,-0.00018679,0.00048741,-0.00000692,0.00010872,-0.00002737,0.000048
 83,0.00012336,0.00004498,-0.00001119,0.00001405,-0.00002176,-0.0000592
 5,0.00008944,0.00006255,0.00004899,-0.00006704,0.00007080,0.00004238,-
 0.00003810,0.00003069,0.00000401,0.00000606,0.00002375,-0.00001392,-0.
 00001487,-0.00001798,0.00000561,-0.00000074,-0.00000704,0.00000788,0.0
 0000372,0.00000720,0.00001120,-0.00000112,0.00000289,-0.00709910,0.005
 80449,-0.01564098,0.00426265,0.00135126,-0.00050588,-0.06119229,0.0818
 2833,-0.30156007,0.00030585,-0.00033166,0.00046133,-0.00049818,0.00048
 242,-0.00083681,0.00066342,0.00173960,-0.00208007,0.06761116,-0.090916
 88,0.31768593,-0.00047108,-0.00001684,-0.00008702,-0.00012352,-0.00054
 586,0.00205273,-0.00084015,0.00037432,-0.00108372,0.00025266,0.0000138
 3,0.00018283,0.00003266,0.00011564,0.00000741,-0.00000527,0.00001141,0
 .00000248,-0.00011259,0.00002288,0.00000868,0.00004179,-0.00005107,-0.
 00000232,-0.00007222,0.00001180,0.00002349,0.00007558,0.00005535,-0.00
 001723,0.00005849,-0.00010735,-0.00004878,-0.00003520,-0.00001083,0.00
 009798,-0.00007191,0.00000647,-0.00034023,-0.00016019,0.00011046,0.000
 09027,0.00010889,-0.00020728,0.00002823,-0.00000552,0.00005358,-0.0000
 4915,0.00000658,-0.00000605,0.00001850,-0.00012017,-0.00033803,0.00033
 003,-0.00001083,0.00008986,0.00012180,0.00005001,-0.00023714,-0.000344
 35,0.00000106,-0.00000573,0.00002062,-0.00001386,0.00000512,-0.0000231
 6,-0.00002750,0.00000127,0.00001472,-0.00381238,-0.00445821,0.01494429
 ,-0.04918772,0.00462600,0.00918707,0.00428793,0.01007307,-0.03631722,-
 0.22825149,-0.01523360,0.13508592,-0.00379749,0.00204824,-0.00188348,-
 0.14296861,0.03085220,-0.08011278,-0.00535833,0.00171401,-0.00076834,0
 .72965674,0.00018759,0.00000260,0.00017684,-0.00103589,-0.00065906,0.0
 0040646,-0.00005728,0.00000537,-0.00015926,-0.00003978,-0.00012784,-0.
 00007062,-0.00001722,0.00005413,0.00005789,-0.00001165,0.00003324,-0.0
 0001579,-0.00005564,0.00003670,-0.00007562,-0.00000631,0.00000799,0.00
 000499,0.00010817,0.00020809,0.00020809,0.00004326,-0.00008248,-0.0000
 3329,0.00004713,-0.00002046,-0.00007674,0.00002752,-0.00001116,0.00001
 218,0.00003233,0.00009132,-0.00005922,0.00008789,0.00015344,-0.0000143
 9,0.00022887,-0.00038414,-0.00002507,-0.00006335,0.00025019,0.00000117
 ,0.00000560,-0.00000092,-0.00000502,-0.00048797,-0.00071919,0.00029997
 ,-0.00003325,0.00002499,0.00008966,-0.00005518,-0.00016341,-0.00039301
 ,0.00000780,-0.00000496,-0.00000270,0.00005264,0.00000921,0.00004989,0
 .00001703,0.00000644,-0.00000821,-0.00367724,-0.01042254,0.01113519,-0
 .00759272,0.01072545,-0.01314829,0.02147023,0.00243791,0.00425752,0.00
 188414,-0.06842769,0.02706877,0.00218074,0.00705159,0.00206703,0.01367
 750,-0.08242031,0.07459546,0.00159903,0.00686503,0.00168220,-0.0713314
 0,0.17947642,-0.00078527,0.00015906,-0.00019400,0.00184079,0.00038673,
 -0.00326087,0.00122470,-0.00032871,0.00054025,0.00029866,0.00012934,0.
 00021472,0.00009830,-0.00018287,-0.00029684,0.00006478,-0.00005809,0.0
 0001003,0.00013300,-0.00016492,0.00010663,-0.00000600,0.00001788,-0.00
 002730,-0.00013730,0.00036142,-0.00052441,-0.00019586,0.00004738,0.000
 24556,-0.00027548,-0.00005051,0.00011517,-0.00005294,0.00001964,-0.000
 06485,0.00009132,-0.00053214,-0.00015194,-0.00001667,-0.00002300,-0.00
 033334,0.00008877,-0.00040970,0.00032478,0.00005259,-0.00018864,-0.000
 20831,-0.00000596,0.00001083,0.00001465,0.00027295,0.00029451,-0.00017
 228,-0.00001879,0.00002355,-0.00005715,0.00017449,-0.00003632,0.000291
 43,-0.00002201,-0.00000665,0.00002291,-0.00000206,-0.00000497,-0.00001
 372,-0.00003348,-0.00001217,-0.00000056,0.01382922,0.01035544,-0.05687
 930,0.05396617,-0.01885907,0.05139217,-0.08251296,0.01122900,0.0066926
 0,0.07025101,0.03587390,-0.22773977,-0.00247549,0.00206464,0.00100280,
 -0.01463924,0.06705364,-0.30739220,0.00004058,0.00141415,0.00202462,0.
 00410641,-0.13198128,0.63805689,-0.00005847,-0.00004971,-0.00002055,0.
 00093500,0.00036110,-0.00177837,-0.00029638,-0.00002252,0.00035339,0.0
 0003779,0.00004154,0.00003389,0.00001106,0.00000561,0.00001369,-0.0000
 0045,0.00001128,0.00000024,0.00000456,-0.00002072,-0.00002920,0.000002
 50,-0.00000189,-0.00000282,-0.00054160,0.00003344,0.00003395,0.0000062
 2,-0.00001483,-0.00001380,0.00001235,-0.00000164,0.00000796,-0.0000802
 2,0.00004216,-0.00015746,0.00001323,-0.00000678,-0.00000752,0.00000099
 ,0.00000547,0.00001181,-0.00000534,0.00000728,-0.00000876,0.00000346,-
 0.00000019,-0.00000150,-0.00000210,-0.00000187,0.00000187,0.00000661,0
 .00001073,-0.00000398,-0.00000482,-0.00000104,-0.00000357,0.00000561,0
 .,-0.00000222,0.00000127,0.00000070,-0.00000160,0.00000135,0.00000152,
 -0.00000054,0.00000183,0.00000034,-0.00000007,-0.00527425,0.00162877,0
 .00037597,-0.00348026,0.00857367,-0.02959999,-0.00110493,-0.00004283,0
 .00047649,-0.07748759,0.02227971,-0.06576444,0.00093043,-0.00074043,0.
 00019157,-0.00294526,0.00037108,0.00308353,0.00016766,-0.00013574,-0.0
 0014373,0.00980241,-0.00662431,0.02196070,0.07818255,-0.00001779,0.000
 03898,0.00001221,-0.00031709,0.00043265,0.00036128,0.00022847,0.000112
 31,-0.00004766,-0.00000335,-0.00001545,-0.00001241,-0.00000976,-0.0000
 1460,-0.00000765,0.00000263,-0.00000970,0.00000252,0.00001184,0.000040
 96,0.00002394,-0.00000087,0.00000401,-0.00000213,0.00007509,-0.0002971
 9,-0.00006315,-0.00003288,0.00002094,-0.00004701,0.00002846,-0.0000085
 8,0.00005771,0.00001781,-0.00005421,0.00001721,-0.00000901,-0.00000602
 ,-0.00000530,0.00002089,0.00001718,-0.00003954,0.00000286,0.00005830,0
 .00004367,-0.00002133,0.00001701,-0.00000725,0.00000080,0.00000026,-0.
 00000311,0.00001313,0.00000403,-0.00000577,0.00001700,-0.00001454,-0.0
 0002388,0.00000184,-0.00001500,-0.00000661,-0.00000177,-0.00000158,0.0
 0000119,-0.00000388,0.00000521,-0.00000049,-0.00000111,0.00000205,0.00
 000050,0.00192626,0.00707619,0.00141877,0.00074156,0.00130568,0.005058
 31,-0.00017487,-0.00037414,-0.00024701,0.02205953,-0.05984691,0.077204
 52,-0.00060349,-0.00394556,-0.00128194,0.00028653,0.00650508,0.0017250
 8,-0.00014296,-0.00113543,-0.00028781,0.00133805,0.00213161,0.00189057
 ,-0.02500297,0.05124837,0.00000627,-0.00007787,-0.00002713,0.00104640,
 0.00000822,-0.00026357,-0.00046699,0.00006203,0.00019658,0.00000045,0.
 00005793,0.00001561,0.00000729,0.00000464,0.00002543,-0.00000308,0.000
 01546,0.00000112,0.00000545,-0.00001422,-0.00004430,-0.00000044,0.0000
 0114,-0.00000197,-0.00018021,-0.00004035,-0.00000110,-0.00000248,0.000
 00958,-0.00002322,0.00000741,-0.00001391,0.00000502,-0.00003945,0.0000
 0531,-0.00006136,0.00000560,-0.00000094,0.00001555,0.00002216,0.000000
 86,0.00002920,0.00000396,0.00000769,-0.00004010,-0.00000655,0.00001762
 ,0.00002161,-0.00000269,-0.00000268,0.00000177,-0.00002008,0.00000545,
 -0.00001602,-0.00000930,-0.00000328,-0.00000155,-0.00001325,0.00001032
 ,0.00000746,0.00000307,-0.00000003,-0.00000482,0.00000664,-0.00000104,
 0.00000319,0.00000727,0.00000102,-0.00000183,-0.00111377,0.00166214,0.
 00206215,0.00051122,0.00122689,-0.00213952,0.00057919,-0.00032067,0.00
 040666,-0.06567805,0.07715965,-0.29922143,-0.00031690,-0.00121050,0.00
 042219,0.00408954,0.00148923,-0.00052476,-0.00014195,-0.00026184,-0.00
 015269,-0.00831276,0.00584892,-0.01559950,0.07038185,-0.08480963,0.315
 26135,-0.00015181,-0.00007596,-0.00003564,0.00097076,-0.00049727,0.001
 40882,-0.00132362,0.00013672,0.00026617,0.00008926,0.00005965,0.000047
 40,0.00002436,0.00000535,0.00000566,0.00000003,0.00001390,0.00000098,-
 0.00000209,-0.00001059,-0.00003054,0.00000629,-0.00000234,-0.00000648,
 -0.00009726,0.00004346,-0.00003587,0.00001963,0.00000030,-0.00000230,0
 .00000891,-0.00001562,-0.00000942,-0.00005414,0.00002006,-0.00005062,0
 .00005049,0.00002041,0.00001323,-0.00012343,-0.00004097,0.00004984,-0.
 00005369,0.00002733,-0.00003214,0.00001432,-0.00017258,-0.00013615,-0.
 00000048,-0.00000799,0.00000411,0.00000701,-0.00001182,0.00002010,-0.0
 0000075,-0.00000543,-0.00001288,0.00008836,-0.00008036,0.00005538,0.00
 000402,0.00001892,-0.00000182,-0.00000157,-0.00000109,-0.00001017,0.00
 000145,0.00000330,-0.00000148,-0.00426164,0.00224063,-0.00312736,-0.00
 017915,0.00018409,-0.00085822,-0.01658860,-0.00404140,0.02282760,0.000
 39894,0.00117044,-0.00188277,0.00000903,-0.00013839,0.00010757,-0.1983
 3481,-0.01980599,0.14033319,0.00080005,-0.00052492,-0.00029933,0.00969
 713,0.00134543,-0.00807750,0.00038395,0.00008769,-0.00044154,0.2079114
 0,0.00013327,0.00000959,-0.00001771,0.00015539,0.00056086,-0.00011870,
 0.00007354,-0.00033401,-0.00011229,-0.00008521,0.00001208,-0.00002249,
 -0.00001675,0.00000073,0.00000164,0.00000260,-0.00000566,0.00000018,0.
 00000563,-0.00000071,0.00000837,-0.00000537,-0.00000279,0.00000460,-0.
 00000705,-0.00000301,-0.00001701,0.00000559,0.00000952,0.00001083,-0.0
 0001052,0.00001096,0.00000222,0.00000302,0.00001024,0.00000947,-0.0000
 5097,0.00000471,0.00003007,0.00015009,0.00004790,0.00000572,0.00002558
 ,0.00000635,0.00001171,-0.00000927,0.00019967,0.00020860,-0.00001275,0
 .00000500,-0.00000899,-0.00003280,0.00006655,-0.00002684,-0.00000369,0
 .00000589,0.00001435,-0.00014684,0.00013529,-0.00003545,-0.00000014,-0
 .00002114,-0.00001626,0.00000872,-0.00000299,0.00001827,0.00001953,-0.
 00001163,-0.00000156,0.00197415,0.00654052,0.00210524,0.00016986,-0.00
 064408,0.00005507,0.00439753,0.00330140,-0.00445471,0.00148191,0.00617
 733,0.00294079,-0.00016970,-0.00099586,-0.00030357,-0.02059902,-0.0417
 5585,0.02901400,-0.00063288,-0.00365109,-0.00123377,-0.00666528,0.0021
 1155,0.00569327,-0.00029934,0.00016829,0.00032929,0.02059288,0.0316294
 2,0.00015734,0.00003844,-0.00000845,-0.00063597,0.00015352,0.00035358,
 -0.00000912,-0.00006814,-0.00007096,-0.00008158,-0.00002241,-0.0000306
 8,-0.00002377,-0.00000017,0.00000121,0.00000111,-0.00000997,-0.0000009
 5,-0.00000668,0.00001536,0.00002350,-0.00000344,-0.00000427,0.00000589
 ,0.00004757,-0.00002341,0.00005008,0.00000488,-0.00001187,-0.00000289,
 0.00000698,0.00001600,0.00000302,0.00001286,0.00000248,0.00000350,-0.0
 0008221,0.00000482,-0.00000347,0.00011067,0.00005067,-0.00002265,0.000
 03523,-0.00002805,-0.00000584,0.00001925,0.00012316,0.00018258,-0.0000
 0676,0.00000455,-0.00000478,0.00002327,0.00008067,-0.00009367,-0.00000
 654,0.00001342,0.00002551,-0.00012591,0.00023336,0.00002415,-0.0000024
 6,-0.00001265,-0.00000956,0.00000690,0.00000260,0.00001554,-0.00000329
 ,-0.00001981,-0.00000215,-0.00144405,0.00197110,0.00116129,-0.00098069
 ,0.00003408,-0.00035007,-0.00733818,-0.00076263,0.00877514,-0.00283170
 ,0.00319183,-0.00344874,0.00009821,-0.00031148,-0.00001630,0.14017705,
 0.02813391,-0.19775274,0.00009685,-0.00130781,0.00045546,0.02229059,0.
 00240405,-0.01536233,0.00114894,0.00014457,-0.00089451,-0.15028708,-0.
 03284372,0.20642245,-0.00003596,-0.00007191,0.00000723,0.00045072,-0.0
 0023115,0.00003632,-0.00039986,0.00010048,-0.00003855,0.00002363,0.000
 04504,0.00001049,0.00002164,0.00000091,0.00002505,-0.00000394,0.000021
 53,-0.00000115,0.00000655,-0.00003221,-0.00005139,-0.00000079,0.000005
 76,-0.00000380,-0.00009186,0.00005112,-0.00003297,0.00002093,0.0000067
 4,0.00000251,-0.00000188,-0.00002584,-0.00000410,-0.00003433,0.0000050
 4,-0.00002121,0.00002789,0.00000312,-0.00000008,0.00002064,-0.00000329
 ,0.00005098,-0.00006067,-0.00001993,-0.00001179,0.00000754,0.00001574,
 0.00000630,-0.00000172,-0.00000509,0.00000355,0.00001062,-0.00010130,-
 0.00000315,-0.00000620,-0.00000976,-0.00001246,0.00000265,-0.00001787,
 -0.00004698,0.00000372,0.00000035,0.00000114,0.00002654,0.00001744,0.0
 0003050,0.00000829,0.00000337,-0.00000133,0.00035149,-0.00019033,0.000
 33369,-0.00087730,-0.00016206,0.00410408,0.00164038,0.00090218,-0.0010
 7120,-0.01578748,0.00428052,-0.00773066,-0.00078569,0.00021500,-0.0004
 3639,-0.00344802,0.00056646,0.00092436,-0.00029520,0.00001411,0.000072
 50,-0.31862591,0.04808629,-0.05923742,0.00077087,-0.00051731,0.0000657
 3,0.00068764,-0.00045172,-0.00036823,0.33637509,0.00003985,0.00002590,
 0.00000143,-0.00026860,-0.00125317,-0.00035460,0.00011297,0.00023774,0
 .00001635,-0.00002382,-0.00001347,-0.00000389,-0.00000756,0.00000728,0
 .00000901,-0.00000108,-0.00000112,-0.00000152,-0.00000252,0.00000097,0
 .00000543,-0.00000145,-0.00000163,0.00000090,0.00005353,0.00019233,0.0
 0004847,0.00005542,-0.00005462,-0.00001498,-0.00007438,-0.00000840,-0.
 00001915,0.00000730,-0.00002179,-0.00000618,-0.00001715,-0.00000794,0.
 00003881,-0.00001368,-0.00002996,-0.00004908,0.00002840,0.00012934,-0.
 00000492,0.00001401,-0.00001417,0.00000375,-0.00000059,0.00000603,-0.0
 0000114,-0.00001070,0.00007354,-0.00004022,-0.00000063,-0.00000228,0.0
 0000162,-0.00002529,0.00009688,0.00006905,-0.00000213,0.00000449,-0.00
 000556,-0.00001997,-0.00001412,-0.00002401,0.00000279,0.00000064,-0.00
 000418,-0.00024626,-0.00060103,0.00017811,0.00019562,0.00662688,0.0021
 0294,0.00094262,0.00641981,0.00325789,-0.00346540,0.00428868,-0.000562
 80,-0.00020906,-0.00007411,-0.00007278,0.00829984,0.00261455,0.0011746
 6,0.00039366,-0.00015147,0.00001335,0.04769109,-0.04823910,0.01581408,
 -0.00040762,-0.00345019,-0.00116647,-0.00053782,-0.00358503,-0.0011922
 0,-0.05250142,0.03679858,-0.00000715,-0.00000628,-0.00003256,0.0001842
 5,-0.00036929,-0.00010652,-0.00006918,0.00002039,0.00024387,0.00001166
 ,0.00001794,0.00002362,-0.00000395,-0.00000372,0.00000077,-0.00000006,
 -0.00000211,0.00000136,-0.00000039,0.00000969,0.00000428,-0.00000046,-
 0.00000047,-0.00000005,-0.00003254,0.00006136,-0.00000599,0.00003093,0
 .00002491,0.00002339,-0.00001385,-0.00005274,-0.00000351,-0.00001952,-
 0.00000967,0.00002616,0.00002349,-0.00000283,0.00002141,0.00000411,-0.
 00002218,0.00000323,-0.00003593,0.00003637,-0.00002057,0.00000455,-0.0
 0000701,0.00000430,0.00000171,-0.00000310,0.00000292,0.00002360,-0.000
 03567,-0.00001131,0.00000137,-0.00000138,0.00000079,-0.00000414,-0.000
 01288,-0.00000539,0.00000032,0.00000078,-0.00000093,0.00000318,0.00000
 720,0.00000075,0.00000276,0.00000094,-0.00000011,0.00031936,0.00010627
 ,-0.00116248,0.00329324,0.00213534,-0.00257278,-0.00027123,0.00322486,
 -0.00460355,0.02237376,-0.00409118,0.00933247,0.00103526,-0.00026220,0
 .00030639,-0.02921488,0.00484303,-0.00134285,-0.00147866,0.00021791,-0
 .00022928,-0.05922350,0.01570226,-0.07277655,-0.00053576,-0.00106372,0
 .00054448,0.00019924,-0.00125064,0.00057785,0.06339842,-0.01921220,0.0
 7175638\\-0.00002868,0.00001096,-0.00003910,-0.00003308,0.00000636,0.0
 0002543,0.00002213,-0.00000036,-0.00001590,0.00002323,-0.00000958,0.00
 001623,-0.00000521,-0.00001702,0.00002194,0.00000076,0.00000088,-0.000
 00278,0.00001094,0.00000766,0.00000860,-0.00000098,-0.00000095,-0.0000
 0217,0.00000252,-0.00000544,-0.00000917,-0.00000076,0.00000302,-0.0000
 0109,-0.00000160,0.00000785,0.00001120,-0.00000178,0.00000143,0.000000
 18,0.00001691,-0.00000023,0.00000413,-0.00000415,0.00000047,0.00000262
 ,-0.00000366,-0.00000145,0.00000048,0.00000082,0.00000044,-0.00000139,
 -0.00000159,0.00000128,0.00000042,-0.00000105,-0.00000091,-0.00000013,
 0.00000014,-0.00000061,0.00000069,-0.00000114,-0.00000016,-0.00000112,
 -0.00000035,0.00000144,0.00000033,0.00000050,-0.00000110,-0.00000071,-
 0.00000031,0.00000011,-0.00000065,0.00001584,-0.00000580,0.00000358,-0
 .00000727,0.00000216,-0.00000904,0.00000140,-0.00000037,-0.00000373,0.
 00000748,-0.00000110,-0.00000078,-0.00000403,-0.00000083,-0.00000188,-
 0.00000451,0.00000291,-0.00000376,-0.00000032,0.00000233,0.00000018,-0
 .00000173,-0.00000138,0.00000326,0.00000005,-0.00000159,-0.00000164,-0
 .00000059,0.00000038,-0.00000179,0.00000006,-0.00000079,-0.00000245\\\
 @


 SATCHEL PAIGE'S GUIDE TO LONGEVITY

    1.  AVOID FRIED MEATS, WHICH ANGRY UP THE BLOOD.

    2.  IF YOUR STOMACH DISPUTES YOU, LIE DOWN AND PACIFY IT WITH COOL
        THOUGHTS.

    3.  KEEP THE JUICES FLOWING BY JANGLING AROUND GENTLY AS YOU MOVE.

    4.  GO VERY LIGHT ON THE VICES, SUCH AS CARRYING ON IN SOCIETY.
        THE SOCIAL RUMBLE AIN'T RESTFUL.

    5.  AVOID RUNNING AT ALL TIMES.

    6.  DON'T LOOK BACK.  SOMETHING MAY BE GAINING ON YOU.
 Job cpu time:       0 days  2 hours 56 minutes 35.3 seconds.
 Elapsed time:       0 days  0 hours  5 minutes 36.1 seconds.
 File lengths (MBytes):  RWF=    525 Int=      0 D2E=      0 Chk=     22 Scr=      1
 Normal termination of Gaussian 16 at Fri May 10 12:20:21 2019.
