 Entering Gaussian System, Link 0=g16
 Initial command:
 /opt/software/gaussian/g16.b01/l1.exe "/localscratch/hpham196.14856182.0/Gau-22726.inp" -scrdir="/localscratch/hpham196.14856182.0/"
 Entering Link 1 = /opt/software/gaussian/g16.b01/l1.exe PID=     22727.
  
 Copyright (c) 1988-2017, Gaussian, Inc.  All Rights Reserved.
  
 This is part of the Gaussian(R) 16 program.  It is based on
 the Gaussian(R) 09 system (copyright 2009, Gaussian, Inc.),
 the Gaussian(R) 03 system (copyright 2003, Gaussian, Inc.),
 the Gaussian(R) 98 system (copyright 1998, Gaussian, Inc.),
 the Gaussian(R) 94 system (copyright 1995, Gaussian, Inc.),
 the Gaussian 92(TM) system (copyright 1992, Gaussian, Inc.),
 the Gaussian 90(TM) system (copyright 1990, Gaussian, Inc.),
 the Gaussian 88(TM) system (copyright 1988, Gaussian, Inc.),
 the Gaussian 86(TM) system (copyright 1986, Carnegie Mellon
 University), and the Gaussian 82(TM) system (copyright 1983,
 Carnegie Mellon University). Gaussian is a federally registered
 trademark of Gaussian, Inc.
  
 This software contains proprietary and confidential information,
 including trade secrets, belonging to Gaussian, Inc.
  
 This software is provided under written license and may be
 used, copied, transmitted, or stored only in accord with that
 written license.
  
 The following legend is applicable only to US Government
 contracts under FAR:
  
                    RESTRICTED RIGHTS LEGEND
  
 Use, reproduction and disclosure by the US Government is
 subject to restrictions as set forth in subparagraphs (a)
 and (c) of the Commercial Computer Software - Restricted
 Rights clause in FAR 52.227-19.
  
 Gaussian, Inc.
 340 Quinnipiac St., Bldg. 40, Wallingford CT 06492
  
  
 ---------------------------------------------------------------
 Warning -- This program may not be used in any manner that
 competes with the business of Gaussian, Inc. or will provide
 assistance to any competitor of Gaussian, Inc.  The licensee
 of this program is prohibited from giving any competitor of
 Gaussian, Inc. access to this program.  By using this program,
 the user acknowledges that Gaussian, Inc. is engaged in the
 business of creating and licensing software in the field of
 computational chemistry and represents and warrants to the
 licensee that it is not a competitor of Gaussian, Inc. and that
 it will not use this program in any manner prohibited above.
 ---------------------------------------------------------------
  

 Cite this work as:
 Gaussian 16, Revision B.01,
 M. J. Frisch, G. W. Trucks, H. B. Schlegel, G. E. Scuseria, 
 M. A. Robb, J. R. Cheeseman, G. Scalmani, V. Barone, 
 G. A. Petersson, H. Nakatsuji, X. Li, M. Caricato, A. V. Marenich, 
 J. Bloino, B. G. Janesko, R. Gomperts, B. Mennucci, H. P. Hratchian, 
 J. V. Ortiz, A. F. Izmaylov, J. L. Sonnenberg, D. Williams-Young, 
 F. Ding, F. Lipparini, F. Egidi, J. Goings, B. Peng, A. Petrone, 
 T. Henderson, D. Ranasinghe, V. G. Zakrzewski, J. Gao, N. Rega, 
 G. Zheng, W. Liang, M. Hada, M. Ehara, K. Toyota, R. Fukuda, 
 J. Hasegawa, M. Ishida, T. Nakajima, Y. Honda, O. Kitao, H. Nakai, 
 T. Vreven, K. Throssell, J. A. Montgomery, Jr., J. E. Peralta, 
 F. Ogliaro, M. J. Bearpark, J. J. Heyd, E. N. Brothers, K. N. Kudin, 
 V. N. Staroverov, T. A. Keith, R. Kobayashi, J. Normand, 
 K. Raghavachari, A. P. Rendell, J. C. Burant, S. S. Iyengar, 
 J. Tomasi, M. Cossi, J. M. Millam, M. Klene, C. Adamo, R. Cammi, 
 J. W. Ochterski, R. L. Martin, K. Morokuma, O. Farkas, 
 J. B. Foresman, and D. J. Fox, Gaussian, Inc., Wallingford CT, 2016.
 
 ******************************************
 Gaussian 16:  ES64L-G16RevB.01 20-Dec-2017
                16-May-2019 
 ******************************************
 %NProcShared=32
 Will use up to   32 processors via shared memory.
 %chk=A2H-opt.chk
 ----------------------------------------------------------------------
 #p opt=modredundant ub3lyp/6-31g(d,p) scrf=(iefpcm,solvent=acetonitril
 e) empiricaldispersion=gd3
 ----------------------------------------------------------------------
 1/18=120,19=15,26=3,38=1/1,3;
 2/9=110,12=2,17=6,18=5,40=1/2;
 3/5=1,6=6,7=101,11=2,25=1,30=1,70=2201,71=1,72=2,74=-5,116=2,124=31/1,2,3;
 4//1;
 5/5=2,38=5,53=2/2;
 6/7=2,8=2,9=2,10=2,28=1/1;
 7//1,2,3,16;
 1/18=20,19=15,26=3/3(2);
 2/9=110/2;
 99//99;
 2/9=110/2;
 3/5=1,6=6,7=101,11=2,25=1,30=1,70=2205,71=1,72=2,74=-5,116=2,124=31/1,2,3;
 4/5=5,16=3,69=1/1;
 5/5=2,38=5,53=2/2;
 7//1,2,3,16;
 1/18=20,19=15,26=3/3(-5);
 2/9=110/2;
 6/7=2,8=2,9=2,10=2,19=2,28=1/1;
 99/9=1/99;
 Leave Link    1 at Thu May 16 17:24:46 2019, MaxMem=           0 cpu:               2.9 elap:               0.1
 (Enter /opt/software/gaussian/g16.b01/l101.exe)
 -------------------
 Title Card Required
 -------------------
 Symbolic Z-matrix:
 Charge =  0 Multiplicity = 2
 C                    -2.78087   0.03991  -0.44528 
 C                    -2.95914  -0.66347  -1.77389 
 H                    -3.05257   0.05569  -2.59367 
 H                    -2.08713  -1.2941   -1.97274 
 H                    -3.8521   -1.2875   -1.728 
 C                    -1.6544    1.0134   -0.29082 
 C                    -1.52057   1.69576   0.93039 
 C                    -0.71565   1.24518  -1.3079 
 C                    -0.46831   2.58261   1.13344 
 H                    -2.253     1.51019   1.7087 
 C                     0.33933   2.13366  -1.10413 
 H                    -0.78956   0.7206   -2.25364 
 C                     0.46657   2.8001    0.11536 
 H                    -0.37062   3.10135   2.08219 
 H                     1.07176   2.28985  -1.88914 
 H                     1.29503   3.48321   0.27597 
 O                    -3.55482  -0.1989    0.51782 
 H                    -4.25105  -0.79368   0.22956 
 
 The following ModRedundant input section has been read:
 
 ITRead=  0  0  0  0  0  0  0  0  0  0  0  0  0  0  0  0  0  0
 MicOpt= -1 -1 -1 -1 -1 -1 -1 -1 -1 -1 -1 -1 -1 -1 -1 -1 -1 -1
 NAtoms=     18 NQM=       18 NQMF=       0 NMMI=      0 NMMIF=      0
                NMic=       0 NMicF=      0.
                    Isotopes and Nuclear Properties:
 (Nuclear quadrupole moments (NQMom) in fm**2, nuclear magnetic moments (NMagM)
  in nuclear magnetons)

  Atom         1           2           3           4           5           6           7           8           9          10
 IAtWgt=          12          12           1           1           1          12          12          12          12           1
 AtmWgt=  12.0000000  12.0000000   1.0078250   1.0078250   1.0078250  12.0000000  12.0000000  12.0000000  12.0000000   1.0078250
 NucSpn=           0           0           1           1           1           0           0           0           0           1
 AtZEff=  -0.0000000  -0.0000000  -0.0000000  -0.0000000  -0.0000000  -0.0000000  -0.0000000  -0.0000000  -0.0000000  -0.0000000
 NQMom=    0.0000000   0.0000000   0.0000000   0.0000000   0.0000000   0.0000000   0.0000000   0.0000000   0.0000000   0.0000000
 NMagM=    0.0000000   0.0000000   2.7928460   2.7928460   2.7928460   0.0000000   0.0000000   0.0000000   0.0000000   2.7928460
 AtZNuc=   6.0000000   6.0000000   1.0000000   1.0000000   1.0000000   6.0000000   6.0000000   6.0000000   6.0000000   1.0000000

  Atom        11          12          13          14          15          16          17          18
 IAtWgt=          12           1          12           1           1           1          16           1
 AtmWgt=  12.0000000   1.0078250  12.0000000   1.0078250   1.0078250   1.0078250  15.9949146   1.0078250
 NucSpn=           0           1           0           1           1           1           0           1
 AtZEff=  -0.0000000  -0.0000000  -0.0000000  -0.0000000  -0.0000000  -0.0000000  -0.0000000  -0.0000000
 NQMom=    0.0000000   0.0000000   0.0000000   0.0000000   0.0000000   0.0000000   0.0000000   0.0000000
 NMagM=    0.0000000   2.7928460   0.0000000   2.7928460   2.7928460   2.7928460   0.0000000   2.7928460
 AtZNuc=   6.0000000   1.0000000   6.0000000   1.0000000   1.0000000   1.0000000   8.0000000   1.0000000
 Leave Link  101 at Thu May 16 17:24:46 2019, MaxMem=   104857600 cpu:               4.9 elap:               0.2
 (Enter /opt/software/gaussian/g16.b01/l103.exe)

 GradGradGradGradGradGradGradGradGradGradGradGradGradGradGradGradGradGrad
 Berny optimization.
 Initialization pass.
                           ----------------------------
                           !    Initial Parameters    !
                           ! (Angstroms and Degrees)  !
 --------------------------                            --------------------------
 ! Name  Definition              Value          Derivative Info.                !
 --------------------------------------------------------------------------------
 ! R1    R(1,2)                  1.5138         estimate D2E/DX2                !
 ! R2    R(1,6)                  1.4968         estimate D2E/DX2                !
 ! R3    R(1,17)                 1.2584         estimate D2E/DX2                !
 ! R4    R(2,3)                  1.0945         estimate D2E/DX2                !
 ! R5    R(2,4)                  1.0944         estimate D2E/DX2                !
 ! R6    R(2,5)                  1.0904         estimate D2E/DX2                !
 ! R7    R(6,7)                  1.4053         estimate D2E/DX2                !
 ! R8    R(6,8)                  1.4034         estimate D2E/DX2                !
 ! R9    R(7,9)                  1.391          estimate D2E/DX2                !
 ! R10   R(7,10)                 1.0847         estimate D2E/DX2                !
 ! R11   R(8,11)                 1.3942         estimate D2E/DX2                !
 ! R12   R(8,12)                 1.084          estimate D2E/DX2                !
 ! R13   R(9,13)                 1.3992         estimate D2E/DX2                !
 ! R14   R(9,14)                 1.0857         estimate D2E/DX2                !
 ! R15   R(11,13)                1.3955         estimate D2E/DX2                !
 ! R16   R(11,15)                1.0849         estimate D2E/DX2                !
 ! R17   R(13,16)                1.0857         estimate D2E/DX2                !
 ! R18   R(17,18)                0.96           estimate D2E/DX2                !
 ! A1    A(2,1,6)              118.7747         estimate D2E/DX2                !
 ! A2    A(2,1,17)             120.7367         estimate D2E/DX2                !
 ! A3    A(6,1,17)             120.4838         estimate D2E/DX2                !
 ! A4    A(1,2,3)              111.2297         estimate D2E/DX2                !
 ! A5    A(1,2,4)              109.4744         estimate D2E/DX2                !
 ! A6    A(1,2,5)              108.9904         estimate D2E/DX2                !
 ! A7    A(3,2,4)              108.0925         estimate D2E/DX2                !
 ! A8    A(3,2,5)              109.7343         estimate D2E/DX2                !
 ! A9    A(4,2,5)              109.2938         estimate D2E/DX2                !
 ! A10   A(1,6,7)              118.4985         estimate D2E/DX2                !
 ! A11   A(1,6,8)              122.4148         estimate D2E/DX2                !
 ! A12   A(7,6,8)              119.0721         estimate D2E/DX2                !
 ! A13   A(6,7,9)              120.5609         estimate D2E/DX2                !
 ! A14   A(6,7,10)             118.4344         estimate D2E/DX2                !
 ! A15   A(9,7,10)             121.0041         estimate D2E/DX2                !
 ! A16   A(6,8,11)             120.3632         estimate D2E/DX2                !
 ! A17   A(6,8,12)             120.4489         estimate D2E/DX2                !
 ! A18   A(11,8,12)            119.1756         estimate D2E/DX2                !
 ! A19   A(7,9,13)             119.8886         estimate D2E/DX2                !
 ! A20   A(7,9,14)             120.0154         estimate D2E/DX2                !
 ! A21   A(13,9,14)            120.0954         estimate D2E/DX2                !
 ! A22   A(8,11,13)            120.0685         estimate D2E/DX2                !
 ! A23   A(8,11,15)            119.7894         estimate D2E/DX2                !
 ! A24   A(13,11,15)           120.1306         estimate D2E/DX2                !
 ! A25   A(9,13,11)            120.0447         estimate D2E/DX2                !
 ! A26   A(9,13,16)            120.0            estimate D2E/DX2                !
 ! A27   A(11,13,16)           119.9543         estimate D2E/DX2                !
 ! A28   A(1,17,18)            109.5            estimate D2E/DX2                !
 ! D1    D(6,1,2,3)            -55.7261         estimate D2E/DX2                !
 ! D2    D(6,1,2,4)             63.6636         estimate D2E/DX2                !
 ! D3    D(6,1,2,5)           -176.8427         estimate D2E/DX2                !
 ! D4    D(17,1,2,3)           125.0697         estimate D2E/DX2                !
 ! D5    D(17,1,2,4)          -115.5406         estimate D2E/DX2                !
 ! D6    D(17,1,2,5)             3.9531         estimate D2E/DX2                !
 ! D7    D(2,1,6,7)            177.9386         estimate D2E/DX2                !
 ! D8    D(2,1,6,8)             -3.4681         estimate D2E/DX2                !
 ! D9    D(17,1,6,7)            -2.8552         estimate D2E/DX2                !
 ! D10   D(17,1,6,8)           175.7381         estimate D2E/DX2                !
 ! D11   D(2,1,17,18)           -4.7795         estimate D2E/DX2                !
 ! D12   D(6,1,17,18)          176.0299         estimate D2E/DX2                !
 ! D13   D(1,6,7,9)            178.2395         estimate D2E/DX2                !
 ! D14   D(1,6,7,10)            -1.4703         estimate D2E/DX2                !
 ! D15   D(8,6,7,9)             -0.4018         estimate D2E/DX2                !
 ! D16   D(8,6,7,10)           179.8884         estimate D2E/DX2                !
 ! D17   D(1,6,8,11)          -178.1578         estimate D2E/DX2                !
 ! D18   D(1,6,8,12)             0.5578         estimate D2E/DX2                !
 ! D19   D(7,6,8,11)             0.4277         estimate D2E/DX2                !
 ! D20   D(7,6,8,12)           179.1433         estimate D2E/DX2                !
 ! D21   D(6,7,9,13)             0.0217         estimate D2E/DX2                !
 ! D22   D(6,7,9,14)          -179.6961         estimate D2E/DX2                !
 ! D23   D(10,7,9,13)          179.7239         estimate D2E/DX2                !
 ! D24   D(10,7,9,14)            0.0061         estimate D2E/DX2                !
 ! D25   D(6,8,11,13)           -0.0742         estimate D2E/DX2                !
 ! D26   D(6,8,11,15)          178.6954         estimate D2E/DX2                !
 ! D27   D(12,8,11,13)        -178.806          estimate D2E/DX2                !
 ! D28   D(12,8,11,15)          -0.0364         estimate D2E/DX2                !
 ! D29   D(7,9,13,11)            0.3379         estimate D2E/DX2                !
 ! D30   D(7,9,13,16)         -179.2951         estimate D2E/DX2                !
 ! D31   D(14,9,13,11)        -179.9445         estimate D2E/DX2                !
 ! D32   D(14,9,13,16)           0.4225         estimate D2E/DX2                !
 ! D33   D(8,11,13,9)           -0.3119         estimate D2E/DX2                !
 ! D34   D(8,11,13,16)         179.3213         estimate D2E/DX2                !
 ! D35   D(15,11,13,9)        -179.0772         estimate D2E/DX2                !
 ! D36   D(15,11,13,16)          0.556          estimate D2E/DX2                !
 --------------------------------------------------------------------------------
 Trust Radius=3.00D-01 FncErr=1.00D-07 GrdErr=1.00D-06 EigMax=2.50D+02 EigMin=1.00D-04
 Number of steps in this run=     92 maximum allowed number of steps=    108.
 GradGradGradGradGradGradGradGradGradGradGradGradGradGradGradGradGradGrad

 Leave Link  103 at Thu May 16 17:24:46 2019, MaxMem=   104857600 cpu:               1.4 elap:               0.1
 (Enter /opt/software/gaussian/g16.b01/l202.exe)
                          Input orientation:                          
 ---------------------------------------------------------------------
 Center     Atomic      Atomic             Coordinates (Angstroms)
 Number     Number       Type             X           Y           Z
 ---------------------------------------------------------------------
      1          6           0       -2.780871    0.039906   -0.445276
      2          6           0       -2.959137   -0.663467   -1.773889
      3          1           0       -3.052567    0.055695   -2.593667
      4          1           0       -2.087127   -1.294096   -1.972744
      5          1           0       -3.852103   -1.287497   -1.727997
      6          6           0       -1.654402    1.013404   -0.290819
      7          6           0       -1.520574    1.695762    0.930390
      8          6           0       -0.715648    1.245177   -1.307903
      9          6           0       -0.468313    2.582612    1.133441
     10          1           0       -2.253000    1.510190    1.708704
     11          6           0        0.339329    2.133660   -1.104129
     12          1           0       -0.789564    0.720604   -2.253645
     13          6           0        0.466569    2.800105    0.115358
     14          1           0       -0.370622    3.101346    2.082193
     15          1           0        1.071765    2.289852   -1.889136
     16          1           0        1.295029    3.483210    0.275965
     17          8           0       -3.554817   -0.198898    0.517819
     18          1           0       -4.251047   -0.793685    0.229559
 ---------------------------------------------------------------------
                    Distance matrix (angstroms):
                    1          2          3          4          5
     1  C    0.000000
     2  C    1.513844   0.000000
     3  H    2.165560   1.094513   0.000000
     4  H    2.143362   1.094366   1.771879   0.000000
     5  H    2.134223   1.090370   1.786843   1.781877   0.000000
     6  C    1.496826   2.591086   2.859227   2.888023   3.491349
     7  C    2.494527   3.866335   4.178014   4.205760   4.626325
     8  C    2.542036   2.982165   2.920487   2.961566   4.053180
     9  C    3.782278   5.019343   5.191822   5.224731   5.883503
    10  H    2.660829   4.165557   4.611427   4.630831   4.711167
    11  C    3.814910   4.376343   4.247543   4.288554   5.446249
    12  H    2.774680   2.617798   2.383045   2.412797   3.699719
    13  C    4.298706   5.225040   5.220625   5.257758   6.225542
    14  H    4.644331   5.978595   6.191323   6.221641   6.774969
    15  H    4.689328   4.998354   4.743199   4.778103   6.088339
    16  H    5.384189   6.284486   6.235723   6.270433   7.298526
    17  O    1.258400   2.413003   3.162027   3.091355   2.513387
    18  H    1.819805   2.387423   3.182515   3.127794   2.057919
                    6          7          8          9         10
     6  C    0.000000
     7  C    1.405302   0.000000
     8  C    1.403367   2.420927   0.000000
     9  C    2.428526   1.391038   2.794650   0.000000
    10  H    2.145509   1.084738   3.396116   2.160121   0.000000
    11  C    2.427223   2.791104   1.394239   2.420860   3.875682
    12  H    2.164801   3.409309   1.084006   3.878483   4.297127
    13  C    2.802820   2.415075   2.416839   1.399214   3.405685
    14  H    3.411565   2.150513   3.880355   1.085707   2.492914
    15  H    3.408214   3.875937   2.150354   3.404926   4.960483
    16  H    3.888487   3.398656   3.400037   2.157711   4.305120
    17  O    2.394817   2.810355   3.671443   4.200273   2.456403
    18  H    3.206076   3.760849   4.361168   5.150287   3.389380
                   11         12         13         14         15
    11  C    0.000000
    12  H    2.143015   0.000000
    13  C    1.395524   3.393283   0.000000
    14  H    3.404863   4.964165   2.158721   0.000000
    15  H    1.084940   2.461697   2.155137   4.302378   0.000000
    16  H    2.153905   4.286776   1.085713   2.486498   2.482260
    17  O    4.820364   4.021581   5.032647   4.845408   5.778630
    18  H    5.605320   4.521198   5.931632   5.801828   6.506104
                   16         17         18
    16  H    0.000000
    17  O    6.094048   0.000000
    18  H    7.003780   0.960000   0.000000
 Stoichiometry    C8H9O(2)
 Framework group  C1[X(C8H9O)]
 Deg. of freedom    48
 Full point group                 C1      NOp   1
 Largest Abelian subgroup         C1      NOp   1
 Largest concise Abelian subgroup C1      NOp   1
                         Standard orientation:                         
 ---------------------------------------------------------------------
 Center     Atomic      Atomic             Coordinates (Angstroms)
 Number     Number       Type             X           Y           Z
 ---------------------------------------------------------------------
      1          6           0       -1.651534   -0.130450   -0.000245
      2          6           0       -2.468616    1.143556    0.031541
      3          1           0       -2.208954    1.759408    0.898294
      4          1           0       -2.269228    1.727512   -0.872272
      5          1           0       -3.527347    0.885262    0.067321
      6          6           0       -0.158270   -0.029437    0.020849
      7          6           0        0.593933   -1.216386    0.035580
      8          6           0        0.512763    1.202878   -0.002694
      9          6           0        1.984189   -1.172942    0.018583
     10          1           0        0.064697   -2.163046    0.055601
     11          6           0        1.906213    1.246349   -0.020290
     12          1           0       -0.045282    2.131853   -0.028372
     13          6           0        2.642882    0.061127   -0.012997
     14          1           0        2.556510   -2.095527    0.025189
     15          1           0        2.415165    2.203687   -0.059869
     16          1           0        3.727719    0.096952   -0.037866
     17          8           0       -2.214586   -1.254343   -0.058622
     18          1           0       -3.165952   -1.139523   -0.001015
 ---------------------------------------------------------------------
 Rotational constants (GHZ):           3.6187929           1.1815956           0.8960952
 Leave Link  202 at Thu May 16 17:24:47 2019, MaxMem=   104857600 cpu:               1.7 elap:               0.1
 (Enter /opt/software/gaussian/g16.b01/l301.exe)
 Standard basis: 6-31G(d,p) (6D, 7F)
 Ernie: Thresh=  0.10000D-02 Tol=  0.10000D-05 Strict=F.
 There are   180 symmetry adapted cartesian basis functions of A   symmetry.
 There are   180 symmetry adapted basis functions of A   symmetry.
   180 basis functions,   315 primitive gaussians,   180 cartesian basis functions
    33 alpha electrons       32 beta electrons
       nuclear repulsion energy       412.6180951905 Hartrees.
 IExCor=  402 DFT=T Ex+Corr=B3LYP ExCW=0 ScaHFX=  0.200000
 ScaDFX=  0.800000  0.720000  1.000000  0.810000 ScalE2=  1.000000  1.000000
 IRadAn=      5 IRanWt=     -1 IRanGd=            0 ICorTp=0 IEmpDi=131
 NAtoms=   18 NActive=   18 NUniq=   18 SFac= 1.00D+00 NAtFMM=   60 NAOKFM=F Big=F
 Integral buffers will be    131072 words long.
 Raffenetti 2 integral format.
 Two-electron integral symmetry is turned on.
 R6Disp:  Grimme-D3 Dispersion energy=       -0.0117730850 Hartrees.
 Nuclear repulsion after empirical dispersion term =      412.6063221055 Hartrees.
 ------------------------------------------------------------------------------
 Polarizable Continuum Model (PCM)
 =================================
 Model                : PCM.
 Atomic radii         : UFF (Universal Force Field).
 Polarization charges : Total charges.
 Charge compensation  : None.
 Solution method      : On-the-fly selection.
 Cavity type          : Scaled VdW (van der Waals Surface) (Alpha=1.100).
 Cavity algorithm     : GePol (No added spheres)
                        Default sphere list used, NSphG=   18.
                        Lebedev-Laikov grids with approx.  5.0 points / Ang**2.
                        Smoothing algorithm: York/Karplus (Gamma=1.0000).
                        Polarization charges: spherical gaussians, with
                                              point-specific exponents (IZeta= 3).
                        Self-potential: point-specific (ISelfS= 7).
                        Self-field    : sphere-specific E.n sum rule (ISelfD= 2).
 1st derivatives      : Analytical E(r).r(x)/FMM algorithm (CHGder, D1EAlg=3).
                        Cavity 1st derivative terms included.
 Solvent              : Acetonitrile, Eps=  35.688000 Eps(inf)=   1.806874
 ------------------------------------------------------------------------------
 Spheres list:
 ISph  on   Nord     Re0    Alpha      Xe            Ye            Ze
    1   C      1    1.9255  1.100     -1.651534     -0.130450     -0.000245
    2   C      2    1.9255  1.100     -2.468616      1.143556      0.031541
    3   H      3    1.4430  1.100     -2.208954      1.759408      0.898294
    4   H      4    1.4430  1.100     -2.269228      1.727512     -0.872272
    5   H      5    1.4430  1.100     -3.527347      0.885262      0.067321
    6   C      6    1.9255  1.100     -0.158270     -0.029437      0.020849
    7   C      7    1.9255  1.100      0.593933     -1.216386      0.035580
    8   C      8    1.9255  1.100      0.512763      1.202878     -0.002694
    9   C      9    1.9255  1.100      1.984189     -1.172942      0.018583
   10   H     10    1.4430  1.100      0.064697     -2.163046      0.055601
   11   C     11    1.9255  1.100      1.906213      1.246349     -0.020290
   12   H     12    1.4430  1.100     -0.045282      2.131853     -0.028372
   13   C     13    1.9255  1.100      2.642882      0.061127     -0.012997
   14   H     14    1.4430  1.100      2.556510     -2.095527      0.025189
   15   H     15    1.4430  1.100      2.415165      2.203687     -0.059869
   16   H     16    1.4430  1.100      3.727719      0.096952     -0.037866
   17   O     17    1.7500  1.100     -2.214586     -1.254343     -0.058622
   18   H     18    1.4430  1.100     -3.165952     -1.139523     -0.001015
 ------------------------------------------------------------------------------
 GePol: Number of generator spheres                  =      18
 GePol: Total number of spheres                      =      18
 GePol: Number of exposed spheres                    =      18 (100.00%)
 GePol: Number of points                             =    1443
 GePol: Average weight of points                     =       0.13
 GePol: Minimum weight of points                     =   0.61D-08
 GePol: Maximum weight of points                     =    0.20577
 GePol: Number of points with low weight             =      64
 GePol: Fraction of low-weight points (<1% of avg)   =       4.44%
 GePol: Cavity surface area                          =    191.822 Ang**2
 GePol: Cavity volume                                =    191.402 Ang**3
 Leave Link  301 at Thu May 16 17:24:47 2019, MaxMem=   104857600 cpu:               2.3 elap:               0.1
 (Enter /opt/software/gaussian/g16.b01/l302.exe)
 NPDir=0 NMtPBC=     1 NCelOv=     1 NCel=       1 NClECP=     1 NCelD=      1
         NCelK=      1 NCelE2=     1 NClLst=     1 CellRange=     0.0.
 One-electron integrals computed using PRISM.
 One-electron integral symmetry used in STVInt
 PrsmSu:  requested number of processors reduced to:  30 ShMem   1 Linda.
 NBasis=   180 RedAO= T EigKep=  4.68D-04  NBF=   180
 NBsUse=   180 1.00D-06 EigRej= -1.00D+00 NBFU=   180
 Precomputing XC quadrature grid using
 IXCGrd= 4 IRadAn=           5 IRanWt=          -1 IRanGd=           0 AccXCQ= 0.00D+00.
 Generated NRdTot=       0 NPtTot=           0 NUsed=           0 NTot=          32
 NSgBfM=   180   180   180   180   180 MxSgAt=    18 MxSgA2=    18.
 Leave Link  302 at Thu May 16 17:24:47 2019, MaxMem=   104857600 cpu:               6.4 elap:               0.2
 (Enter /opt/software/gaussian/g16.b01/l303.exe)
 DipDrv:  MaxL=1.
 Leave Link  303 at Thu May 16 17:24:47 2019, MaxMem=   104857600 cpu:               1.1 elap:               0.1
 (Enter /opt/software/gaussian/g16.b01/l401.exe)
 ExpMin= 1.61D-01 ExpMax= 5.48D+03 ExpMxC= 8.25D+02 IAcc=3 IRadAn=         5 AccDes= 0.00D+00
 Harris functional with IExCor=  402 and IRadAn=       5 diagonalized for initial guess.
 HarFok:  IExCor=  402 AccDes= 0.00D+00 IRadAn=         5 IDoV= 1 UseB2=F ITyADJ=14
 ICtDFT=  3500011 ScaDFX=  1.000000  1.000000  1.000000  1.000000
 FoFCou: FMM=F IPFlag=           0 FMFlag=      100000 FMFlg1=           0
         NFxFlg=           0 DoJE=T BraDBF=F KetDBF=T FulRan=T
         wScrn=  0.000000 ICntrl=       500 IOpCl=  0 I1Cent=   200000004 NGrid=           0
         NMat0=    1 NMatS0=      1 NMatT0=    0 NMatD0=    1 NMtDS0=    0 NMtDT0=    0
 Petite list used in FoFCou.
 Harris En= -385.511067384895    
 JPrj=0 DoOrth=F DoCkMO=F.
 Initial guess <Sx>= 0.0000 <Sy>= 0.0000 <Sz>= 0.5000 <S**2>= 0.7500 S= 0.5000
 Leave Link  401 at Thu May 16 17:24:47 2019, MaxMem=   104857600 cpu:              10.6 elap:               0.4
 (Enter /opt/software/gaussian/g16.b01/l502.exe)
 Integral symmetry usage will be decided dynamically.
 UHF open shell SCF:
 Using DIIS extrapolation, IDIIS=  1040.
 NGot=   104857600 LenX=   104784993 LenY=   104752152
 Requested convergence on RMS density matrix=1.00D-08 within 128 cycles.
 Requested convergence on MAX density matrix=1.00D-06.
 Requested convergence on             energy=1.00D-06.
 No special actions if energy rises.
 Fock matrices will be formed incrementally for  20 cycles.

 Cycle   1  Pass 1  IDiag  1:
 FoFJK:  IHMeth= 1 ICntrl=       0 DoSepK=F KAlg= 0 I1Cent=           0 FoldK=F
 IRaf= 910000000 NMat=       1 IRICut=       1 DoRegI=T DoRafI=F ISym2E= 0 IDoP0=0 IntGTp=1.
 FoFCou: FMM=F IPFlag=           0 FMFlag=      100000 FMFlg1=           0
         NFxFlg=           0 DoJE=F BraDBF=F KetDBF=F FulRan=T
         wScrn=  0.000000 ICntrl=         0 IOpCl=  1 I1Cent=           0 NGrid=           0
         NMat0=    1 NMatS0=      1 NMatT0=    0 NMatD0=    1 NMtDS0=    0 NMtDT0=    0
 Symmetry not used in FoFCou.
 Inv3:  Mode=1 IEnd=     6246747.
 Iteration    1 A*A^-1 deviation from unit magnitude is 3.11D-15 for    186.
 Iteration    1 A*A^-1 deviation from orthogonality  is 1.89D-15 for   1388    810.
 Iteration    1 A^-1*A deviation from unit magnitude is 2.66D-15 for    382.
 Iteration    1 A^-1*A deviation from orthogonality  is 3.67D-15 for    787    619.
 E= -385.203625078477    
 DIIS: error= 4.95D-02 at cycle   1 NSaved=   1.
 NSaved= 1 IEnMin= 1 EnMin= -385.203625078477     IErMin= 1 ErrMin= 4.95D-02
 ErrMax= 4.95D-02  0.00D+00 EMaxC= 1.00D-01 BMatC= 9.77D-01 BMatP= 9.77D-01
 IDIUse=3 WtCom= 5.05D-01 WtEn= 4.95D-01
 Coeff-Com:  0.100D+01
 Coeff-En:   0.100D+01
 Coeff:      0.100D+01
 Gap=     0.178 Goal=   None    Shift=    0.000
 Gap=     0.139 Goal=   None    Shift=    0.000
 GapD=    0.139 DampG=1.000 DampE=0.500 DampFc=0.5000 IDamp=-1.
 Damping current iteration by 5.00D-01
 RMSDP=6.14D-03 MaxDP=1.51D-01              OVMax= 3.60D-01

 Cycle   2  Pass 1  IDiag  1:
 RMSU=  3.01D-03    CP:  9.74D-01
 E= -385.323942494419     Delta-E=       -0.120317415942 Rises=F Damp=T
 DIIS: error= 8.17D-03 at cycle   2 NSaved=   2.
 NSaved= 2 IEnMin= 2 EnMin= -385.323942494419     IErMin= 2 ErrMin= 8.17D-03
 ErrMax= 8.17D-03  0.00D+00 EMaxC= 1.00D-01 BMatC= 6.01D-02 BMatP= 9.77D-01
 IDIUse=3 WtCom= 9.18D-01 WtEn= 8.17D-02
 Coeff-Com:  0.523D-01 0.948D+00
 Coeff-En:   0.787D-01 0.921D+00
 Coeff:      0.545D-01 0.946D+00
 Gap=     0.191 Goal=   None    Shift=    0.000
 Gap=     0.217 Goal=   None    Shift=    0.000
 RMSDP=1.54D-03 MaxDP=4.62D-02 DE=-1.20D-01 OVMax= 2.35D-01

 Cycle   3  Pass 1  IDiag  1:
 RMSU=  1.51D-03    CP:  9.66D-01  9.00D-01
 E= -385.460837327591     Delta-E=       -0.136894833172 Rises=F Damp=F
 DIIS: error= 6.56D-03 at cycle   3 NSaved=   3.
 NSaved= 3 IEnMin= 3 EnMin= -385.460837327591     IErMin= 3 ErrMin= 6.56D-03
 ErrMax= 6.56D-03  0.00D+00 EMaxC= 1.00D-01 BMatC= 3.53D-02 BMatP= 6.01D-02
 IDIUse=3 WtCom= 9.34D-01 WtEn= 6.56D-02
 Coeff-Com: -0.114D-01 0.423D+00 0.589D+00
 Coeff-En:   0.000D+00 0.000D+00 0.100D+01
 Coeff:     -0.107D-01 0.395D+00 0.616D+00
 Gap=     0.138 Goal=   None    Shift=    0.000
 Gap=     0.195 Goal=   None    Shift=    0.000
 RMSDP=9.52D-04 MaxDP=6.80D-02 DE=-1.37D-01 OVMax= 1.17D-01

 Cycle   4  Pass 1  IDiag  1:
 RMSU=  7.74D-04    CP:  9.66D-01  9.87D-01  6.75D-01
 E= -385.468354982906     Delta-E=       -0.007517655315 Rises=F Damp=F
 DIIS: error= 3.35D-03 at cycle   4 NSaved=   4.
 NSaved= 4 IEnMin= 4 EnMin= -385.468354982906     IErMin= 4 ErrMin= 3.35D-03
 ErrMax= 3.35D-03  0.00D+00 EMaxC= 1.00D-01 BMatC= 9.56D-03 BMatP= 3.53D-02
 IDIUse=3 WtCom= 9.67D-01 WtEn= 3.35D-02
 Coeff-Com: -0.839D-02 0.571D-01 0.352D+00 0.599D+00
 Coeff-En:   0.000D+00 0.000D+00 0.201D+00 0.799D+00
 Coeff:     -0.811D-02 0.551D-01 0.347D+00 0.606D+00
 Gap=     0.132 Goal=   None    Shift=    0.000
 Gap=     0.202 Goal=   None    Shift=    0.000
 RMSDP=3.38D-04 MaxDP=1.23D-02 DE=-7.52D-03 OVMax= 2.66D-02

 Cycle   5  Pass 1  IDiag  1:
 RMSU=  1.96D-04    CP:  9.66D-01  9.70D-01  7.90D-01  7.32D-01
 E= -385.470944975347     Delta-E=       -0.002589992440 Rises=F Damp=F
 DIIS: error= 7.78D-04 at cycle   5 NSaved=   5.
 NSaved= 5 IEnMin= 5 EnMin= -385.470944975347     IErMin= 5 ErrMin= 7.78D-04
 ErrMax= 7.78D-04  0.00D+00 EMaxC= 1.00D-01 BMatC= 2.96D-04 BMatP= 9.56D-03
 IDIUse=3 WtCom= 9.92D-01 WtEn= 7.78D-03
 Coeff-Com: -0.860D-03-0.679D-02 0.935D-01 0.200D+00 0.714D+00
 Coeff-En:   0.000D+00 0.000D+00 0.000D+00 0.000D+00 0.100D+01
 Coeff:     -0.853D-03-0.673D-02 0.928D-01 0.198D+00 0.716D+00
 Gap=     0.133 Goal=   None    Shift=    0.000
 Gap=     0.202 Goal=   None    Shift=    0.000
 RMSDP=9.74D-05 MaxDP=3.75D-03 DE=-2.59D-03 OVMax= 1.11D-02

 Cycle   6  Pass 1  IDiag  1:
 RMSU=  7.44D-05    CP:  9.65D-01  9.77D-01  7.95D-01  8.08D-01  1.02D+00
 E= -385.471049582687     Delta-E=       -0.000104607340 Rises=F Damp=F
 DIIS: error= 6.74D-04 at cycle   6 NSaved=   6.
 NSaved= 6 IEnMin= 6 EnMin= -385.471049582687     IErMin= 6 ErrMin= 6.74D-04
 ErrMax= 6.74D-04  0.00D+00 EMaxC= 1.00D-01 BMatC= 1.52D-04 BMatP= 2.96D-04
 IDIUse=3 WtCom= 9.93D-01 WtEn= 6.74D-03
 Coeff-Com:  0.139D-02-0.134D-01-0.636D-02-0.134D-01 0.401D+00 0.631D+00
 Coeff-En:   0.000D+00 0.000D+00 0.000D+00 0.000D+00 0.000D+00 0.100D+01
 Coeff:      0.138D-02-0.133D-01-0.632D-02-0.133D-01 0.398D+00 0.634D+00
 Gap=     0.134 Goal=   None    Shift=    0.000
 Gap=     0.203 Goal=   None    Shift=    0.000
 RMSDP=5.43D-05 MaxDP=2.90D-03 DE=-1.05D-04 OVMax= 5.28D-03

 Cycle   7  Pass 1  IDiag  1:
 RMSU=  3.71D-05    CP:  9.65D-01  9.77D-01  8.02D-01  8.22D-01  1.20D+00
                    CP:  9.07D-01
 E= -385.471107402388     Delta-E=       -0.000057819701 Rises=F Damp=F
 DIIS: error= 3.05D-04 at cycle   7 NSaved=   7.
 NSaved= 7 IEnMin= 7 EnMin= -385.471107402388     IErMin= 7 ErrMin= 3.05D-04
 ErrMax= 3.05D-04  0.00D+00 EMaxC= 1.00D-01 BMatC= 2.53D-05 BMatP= 1.52D-04
 IDIUse=3 WtCom= 9.97D-01 WtEn= 3.05D-03
 Coeff-Com:  0.120D-02-0.297D-02-0.331D-01-0.903D-01-0.965D-01 0.242D+00
 Coeff-Com:  0.979D+00
 Coeff-En:   0.000D+00 0.000D+00 0.000D+00 0.000D+00 0.000D+00 0.000D+00
 Coeff-En:   0.100D+01
 Coeff:      0.120D-02-0.296D-02-0.330D-01-0.900D-01-0.962D-01 0.242D+00
 Coeff:      0.979D+00
 Gap=     0.134 Goal=   None    Shift=    0.000
 Gap=     0.204 Goal=   None    Shift=    0.000
 RMSDP=3.87D-05 MaxDP=1.55D-03 DE=-5.78D-05 OVMax= 3.55D-03

 Cycle   8  Pass 1  IDiag  1:
 RMSU=  1.61D-05    CP:  9.65D-01  9.77D-01  8.08D-01  8.39D-01  1.31D+00
                    CP:  1.22D+00  1.09D+00
 E= -385.471122827858     Delta-E=       -0.000015425471 Rises=F Damp=F
 DIIS: error= 1.44D-04 at cycle   8 NSaved=   8.
 NSaved= 8 IEnMin= 8 EnMin= -385.471122827858     IErMin= 8 ErrMin= 1.44D-04
 ErrMax= 1.44D-04  0.00D+00 EMaxC= 1.00D-01 BMatC= 5.10D-06 BMatP= 2.53D-05
 IDIUse=3 WtCom= 9.99D-01 WtEn= 1.44D-03
 Coeff-Com:  0.524D-03-0.304D-03-0.161D-01-0.446D-01-0.878D-01 0.570D-01
 Coeff-Com:  0.521D+00 0.570D+00
 Coeff-En:   0.000D+00 0.000D+00 0.000D+00 0.000D+00 0.000D+00 0.000D+00
 Coeff-En:   0.000D+00 0.100D+01
 Coeff:      0.523D-03-0.303D-03-0.161D-01-0.446D-01-0.877D-01 0.569D-01
 Coeff:      0.520D+00 0.571D+00
 Gap=     0.134 Goal=   None    Shift=    0.000
 Gap=     0.204 Goal=   None    Shift=    0.000
 RMSDP=9.17D-06 MaxDP=3.83D-04 DE=-1.54D-05 OVMax= 1.13D-03

 Cycle   9  Pass 1  IDiag  1:
 RMSU=  6.94D-06    CP:  9.65D-01  9.78D-01  8.08D-01  8.39D-01  1.33D+00
                    CP:  1.23D+00  1.19D+00  9.17D-01
 E= -385.471124797643     Delta-E=       -0.000001969784 Rises=F Damp=F
 DIIS: error= 5.67D-05 at cycle   9 NSaved=   9.
 NSaved= 9 IEnMin= 9 EnMin= -385.471124797643     IErMin= 9 ErrMin= 5.67D-05
 ErrMax= 5.67D-05  0.00D+00 EMaxC= 1.00D-01 BMatC= 6.94D-07 BMatP= 5.10D-06
 IDIUse=1 WtCom= 1.00D+00 WtEn= 0.00D+00
 Coeff-Com: -0.196D-03 0.779D-03 0.243D-02 0.739D-02-0.837D-02-0.460D-01
 Coeff-Com: -0.439D-01 0.185D+00 0.903D+00
 Coeff:     -0.196D-03 0.779D-03 0.243D-02 0.739D-02-0.837D-02-0.460D-01
 Coeff:     -0.439D-01 0.185D+00 0.903D+00
 Gap=     0.134 Goal=   None    Shift=    0.000
 Gap=     0.204 Goal=   None    Shift=    0.000
 RMSDP=6.01D-06 MaxDP=2.58D-04 DE=-1.97D-06 OVMax= 6.98D-04

 Cycle  10  Pass 1  IDiag  1:
 RMSU=  3.27D-06    CP:  9.65D-01  9.78D-01  8.08D-01  8.38D-01  1.33D+00
                    CP:  1.25D+00  1.23D+00  1.15D+00  1.39D+00
 E= -385.471125461125     Delta-E=       -0.000000663483 Rises=F Damp=F
 DIIS: error= 2.76D-05 at cycle  10 NSaved=  10.
 NSaved=10 IEnMin=10 EnMin= -385.471125461125     IErMin=10 ErrMin= 2.76D-05
 ErrMax= 2.76D-05  0.00D+00 EMaxC= 1.00D-01 BMatC= 2.41D-07 BMatP= 6.94D-07
 IDIUse=1 WtCom= 1.00D+00 WtEn= 0.00D+00
 Coeff-Com: -0.232D-03 0.495D-03 0.494D-02 0.148D-01 0.168D-01-0.359D-01
 Coeff-Com: -0.139D+00-0.585D-01 0.389D+00 0.807D+00
 Coeff:     -0.232D-03 0.495D-03 0.494D-02 0.148D-01 0.168D-01-0.359D-01
 Coeff:     -0.139D+00-0.585D-01 0.389D+00 0.807D+00
 Gap=     0.134 Goal=   None    Shift=    0.000
 Gap=     0.204 Goal=   None    Shift=    0.000
 RMSDP=3.83D-06 MaxDP=1.57D-04 DE=-6.63D-07 OVMax= 3.99D-04

 Cycle  11  Pass 1  IDiag  1:
 RMSU=  1.59D-06    CP:  9.65D-01  9.77D-01  8.08D-01  8.37D-01  1.32D+00
                    CP:  1.25D+00  1.25D+00  1.28D+00  1.77D+00  1.21D+00
 E= -385.471125696632     Delta-E=       -0.000000235507 Rises=F Damp=F
 DIIS: error= 1.40D-05 at cycle  11 NSaved=  11.
 NSaved=11 IEnMin=11 EnMin= -385.471125696632     IErMin=11 ErrMin= 1.40D-05
 ErrMax= 1.40D-05  0.00D+00 EMaxC= 1.00D-01 BMatC= 5.83D-08 BMatP= 2.41D-07
 IDIUse=1 WtCom= 1.00D+00 WtEn= 0.00D+00
 Coeff-Com: -0.171D-04-0.138D-03 0.273D-03 0.186D-02 0.596D-02 0.266D-02
 Coeff-Com: -0.249D-01-0.904D-01-0.209D+00 0.307D+00 0.101D+01
 Coeff:     -0.171D-04-0.138D-03 0.273D-03 0.186D-02 0.596D-02 0.266D-02
 Coeff:     -0.249D-01-0.904D-01-0.209D+00 0.307D+00 0.101D+01
 Gap=     0.134 Goal=   None    Shift=    0.000
 Gap=     0.204 Goal=   None    Shift=    0.000
 RMSDP=2.96D-06 MaxDP=1.21D-04 DE=-2.36D-07 OVMax= 3.29D-04

 Cycle  12  Pass 1  IDiag  1:
 RMSU=  6.85D-07    CP:  9.65D-01  9.77D-01  8.08D-01  8.36D-01  1.32D+00
                    CP:  1.25D+00  1.26D+00  1.37D+00  2.04D+00  1.61D+00
                    CP:  1.18D+00
 E= -385.471125779643     Delta-E=       -0.000000083011 Rises=F Damp=F
 DIIS: error= 4.14D-06 at cycle  12 NSaved=  12.
 NSaved=12 IEnMin=12 EnMin= -385.471125779643     IErMin=12 ErrMin= 4.14D-06
 ErrMax= 4.14D-06  0.00D+00 EMaxC= 1.00D-01 BMatC= 6.16D-09 BMatP= 5.83D-08
 IDIUse=1 WtCom= 1.00D+00 WtEn= 0.00D+00
 Coeff-Com:  0.261D-04-0.865D-04-0.660D-03-0.165D-02-0.139D-02 0.535D-02
 Coeff-Com:  0.159D-01-0.100D-01-0.908D-01-0.651D-01 0.174D+00 0.975D+00
 Coeff:      0.261D-04-0.865D-04-0.660D-03-0.165D-02-0.139D-02 0.535D-02
 Coeff:      0.159D-01-0.100D-01-0.908D-01-0.651D-01 0.174D+00 0.975D+00
 Gap=     0.134 Goal=   None    Shift=    0.000
 Gap=     0.204 Goal=   None    Shift=    0.000
 RMSDP=8.84D-07 MaxDP=4.18D-05 DE=-8.30D-08 OVMax= 9.18D-05

 Cycle  13  Pass 1  IDiag  1:
 RMSU=  3.29D-07    CP:  9.65D-01  9.77D-01  8.08D-01  8.36D-01  1.32D+00
                    CP:  1.25D+00  1.26D+00  1.39D+00  2.12D+00  1.72D+00
                    CP:  1.39D+00  1.16D+00
 E= -385.471125786089     Delta-E=       -0.000000006446 Rises=F Damp=F
 DIIS: error= 2.18D-06 at cycle  13 NSaved=  13.
 NSaved=13 IEnMin=13 EnMin= -385.471125786089     IErMin=13 ErrMin= 2.18D-06
 ErrMax= 2.18D-06  0.00D+00 EMaxC= 1.00D-01 BMatC= 3.19D-09 BMatP= 6.16D-09
 IDIUse=1 WtCom= 1.00D+00 WtEn= 0.00D+00
 Coeff-Com:  0.184D-04-0.199D-04-0.471D-03-0.141D-02-0.218D-02 0.266D-02
 Coeff-Com:  0.150D-01 0.121D-01-0.120D-01-0.965D-01-0.926D-01 0.568D+00
 Coeff-Com:  0.608D+00
 Coeff:      0.184D-04-0.199D-04-0.471D-03-0.141D-02-0.218D-02 0.266D-02
 Coeff:      0.150D-01 0.121D-01-0.120D-01-0.965D-01-0.926D-01 0.568D+00
 Coeff:      0.608D+00
 Gap=     0.134 Goal=   None    Shift=    0.000
 Gap=     0.204 Goal=   None    Shift=    0.000
 RMSDP=2.73D-07 MaxDP=1.32D-05 DE=-6.45D-09 OVMax= 2.83D-05

 Cycle  14  Pass 1  IDiag  1:
 RMSU=  1.39D-07    CP:  9.65D-01  9.77D-01  8.08D-01  8.36D-01  1.32D+00
                    CP:  1.25D+00  1.26D+00  1.40D+00  2.13D+00  1.74D+00
                    CP:  1.43D+00  1.35D+00  7.12D-01
 E= -385.471125787281     Delta-E=       -0.000000001192 Rises=F Damp=F
 DIIS: error= 5.12D-07 at cycle  14 NSaved=  14.
 NSaved=14 IEnMin=14 EnMin= -385.471125787281     IErMin=14 ErrMin= 5.12D-07
 ErrMax= 5.12D-07  0.00D+00 EMaxC= 1.00D-01 BMatC= 2.33D-10 BMatP= 3.19D-09
 IDIUse=1 WtCom= 1.00D+00 WtEn= 0.00D+00
 Coeff-Com:  0.125D-05 0.926D-05-0.348D-04-0.179D-03-0.515D-03-0.131D-03
 Coeff-Com:  0.208D-02 0.624D-02 0.139D-01-0.215D-01-0.655D-01 0.200D-01
 Coeff-Com:  0.218D+00 0.828D+00
 Coeff:      0.125D-05 0.926D-05-0.348D-04-0.179D-03-0.515D-03-0.131D-03
 Coeff:      0.208D-02 0.624D-02 0.139D-01-0.215D-01-0.655D-01 0.200D-01
 Coeff:      0.218D+00 0.828D+00
 Gap=     0.134 Goal=   None    Shift=    0.000
 Gap=     0.204 Goal=   None    Shift=    0.000
 RMSDP=8.48D-08 MaxDP=4.11D-06 DE=-1.19D-09 OVMax= 7.66D-06

 Cycle  15  Pass 1  IDiag  1:
 RMSU=  4.83D-08    CP:  9.65D-01  9.77D-01  8.08D-01  8.36D-01  1.32D+00
                    CP:  1.25D+00  1.26D+00  1.40D+00  2.14D+00  1.75D+00
                    CP:  1.44D+00  1.39D+00  8.62D-01  9.29D-01
 E= -385.471125787373     Delta-E=       -0.000000000092 Rises=F Damp=F
 DIIS: error= 2.09D-07 at cycle  15 NSaved=  15.
 NSaved=15 IEnMin=15 EnMin= -385.471125787373     IErMin=15 ErrMin= 2.09D-07
 ErrMax= 2.09D-07  0.00D+00 EMaxC= 1.00D-01 BMatC= 5.41D-11 BMatP= 2.33D-10
 IDIUse=1 WtCom= 1.00D+00 WtEn= 0.00D+00
 Coeff-Com: -0.122D-05 0.596D-05 0.385D-04 0.708D-04 0.257D-05-0.346D-03
 Coeff-Com: -0.674D-03 0.178D-02 0.821D-02-0.972D-03-0.230D-01-0.500D-01
 Coeff-Com:  0.486D-01 0.424D+00 0.592D+00
 Coeff:     -0.122D-05 0.596D-05 0.385D-04 0.708D-04 0.257D-05-0.346D-03
 Coeff:     -0.674D-03 0.178D-02 0.821D-02-0.972D-03-0.230D-01-0.500D-01
 Coeff:      0.486D-01 0.424D+00 0.592D+00
 Gap=     0.134 Goal=   None    Shift=    0.000
 Gap=     0.204 Goal=   None    Shift=    0.000
 RMSDP=2.79D-08 MaxDP=1.20D-06 DE=-9.17D-11 OVMax= 2.23D-06

 Cycle  16  Pass 1  IDiag  1:
 RMSU=  1.91D-08    CP:  9.65D-01  9.77D-01  8.08D-01  8.36D-01  1.32D+00
                    CP:  1.25D+00  1.26D+00  1.40D+00  2.14D+00  1.75D+00
                    CP:  1.44D+00  1.40D+00  8.61D-01  1.03D+00  8.08D-01
 E= -385.471125787390     Delta-E=       -0.000000000017 Rises=F Damp=F
 DIIS: error= 6.40D-08 at cycle  16 NSaved=  16.
 NSaved=16 IEnMin=16 EnMin= -385.471125787390     IErMin=16 ErrMin= 6.40D-08
 ErrMax= 6.40D-08  0.00D+00 EMaxC= 1.00D-01 BMatC= 5.26D-12 BMatP= 5.41D-11
 IDIUse=1 WtCom= 1.00D+00 WtEn= 0.00D+00
 Coeff-Com: -0.505D-06-0.941D-07 0.187D-04 0.530D-04 0.858D-04-0.914D-04
 Coeff-Com: -0.591D-03-0.459D-03 0.395D-03 0.364D-02 0.450D-02-0.237D-01
 Coeff-Com: -0.246D-01-0.210D-02 0.235D+00 0.808D+00
 Coeff:     -0.505D-06-0.941D-07 0.187D-04 0.530D-04 0.858D-04-0.914D-04
 Coeff:     -0.591D-03-0.459D-03 0.395D-03 0.364D-02 0.450D-02-0.237D-01
 Coeff:     -0.246D-01-0.210D-02 0.235D+00 0.808D+00
 Gap=     0.134 Goal=   None    Shift=    0.000
 Gap=     0.204 Goal=   None    Shift=    0.000
 RMSDP=1.01D-08 MaxDP=3.70D-07 DE=-1.68D-11 OVMax= 7.96D-07

 Cycle  17  Pass 1  IDiag  1:
 RMSU=  5.26D-09    CP:  9.65D-01  9.77D-01  8.08D-01  8.36D-01  1.32D+00
                    CP:  1.25D+00  1.26D+00  1.40D+00  2.14D+00  1.75D+00
                    CP:  1.44D+00  1.41D+00  8.74D-01  1.05D+00  9.21D-01
                    CP:  8.76D-01
 E= -385.471125787391     Delta-E=       -0.000000000001 Rises=F Damp=F
 DIIS: error= 1.81D-08 at cycle  17 NSaved=  17.
 NSaved=17 IEnMin=17 EnMin= -385.471125787391     IErMin=17 ErrMin= 1.81D-08
 ErrMax= 1.81D-08  0.00D+00 EMaxC= 1.00D-01 BMatC= 2.08D-13 BMatP= 5.26D-12
 IDIUse=1 WtCom= 1.00D+00 WtEn= 0.00D+00
 Coeff-Com:  0.991D-07-0.566D-06-0.214D-05-0.239D-05 0.612D-05 0.258D-04
 Coeff-Com:  0.190D-04-0.188D-03-0.735D-03 0.381D-03 0.237D-02 0.254D-02
 Coeff-Com: -0.560D-02-0.376D-01-0.396D-01 0.708D-01 0.101D+01
 Coeff:      0.991D-07-0.566D-06-0.214D-05-0.239D-05 0.612D-05 0.258D-04
 Coeff:      0.190D-04-0.188D-03-0.735D-03 0.381D-03 0.237D-02 0.254D-02
 Coeff:     -0.560D-02-0.376D-01-0.396D-01 0.708D-01 0.101D+01
 Gap=     0.134 Goal=   None    Shift=    0.000
 Gap=     0.204 Goal=   None    Shift=    0.000
 RMSDP=2.97D-09 MaxDP=1.39D-07 DE=-7.39D-13 OVMax= 2.05D-07

 Error on total polarization charges =  0.00823
 SCF Done:  E(UB3LYP) =  -385.471125787     A.U. after   17 cycles
            NFock= 17  Conv=0.30D-08     -V/T= 2.0090
 <Sx>= 0.0000 <Sy>= 0.0000 <Sz>= 0.5000 <S**2>= 0.7674 S= 0.5087
 <L.S>=  0.00000000000    
 KE= 3.820350668749D+02 PE=-1.721217843527D+03 EE= 5.411053287593D+02
 Annihilation of the first spin contaminant:
 S**2 before annihilation     0.7674,   after     0.7502
 Leave Link  502 at Thu May 16 17:24:58 2019, MaxMem=   104857600 cpu:             325.6 elap:              10.4
 (Enter /opt/software/gaussian/g16.b01/l601.exe)
 Copying SCF densities to generalized density rwf, IOpCl= 1 IROHF=0.

 **********************************************************************

            Population analysis using the SCF Density.

 **********************************************************************

 Orbital symmetries:
 Alpha Orbitals:
       Occupied  (A) (A) (A) (A) (A) (A) (A) (A) (A) (A) (A) (A)
                 (A) (A) (A) (A) (A) (A) (A) (A) (A) (A) (A) (A)
                 (A) (A) (A) (A) (A) (A) (A) (A) (A)
       Virtual   (A) (A) (A) (A) (A) (A) (A) (A) (A) (A) (A) (A)
                 (A) (A) (A) (A) (A) (A) (A) (A) (A) (A) (A) (A)
                 (A) (A) (A) (A) (A) (A) (A) (A) (A) (A) (A) (A)
                 (A) (A) (A) (A) (A) (A) (A) (A) (A) (A) (A) (A)
                 (A) (A) (A) (A) (A) (A) (A) (A) (A) (A) (A) (A)
                 (A) (A) (A) (A) (A) (A) (A) (A) (A) (A) (A) (A)
                 (A) (A) (A) (A) (A) (A) (A) (A) (A) (A) (A) (A)
                 (A) (A) (A) (A) (A) (A) (A) (A) (A) (A) (A) (A)
                 (A) (A) (A) (A) (A) (A) (A) (A) (A) (A) (A) (A)
                 (A) (A) (A) (A) (A) (A) (A) (A) (A) (A) (A) (A)
                 (A) (A) (A) (A) (A) (A) (A) (A) (A) (A) (A) (A)
                 (A) (A) (A) (A) (A) (A) (A) (A) (A) (A) (A) (A)
                 (A) (A) (A)
 Beta  Orbitals:
       Occupied  (A) (A) (A) (A) (A) (A) (A) (A) (A) (A) (A) (A)
                 (A) (A) (A) (A) (A) (A) (A) (A) (A) (A) (A) (A)
                 (A) (A) (A) (A) (A) (A) (A) (A)
       Virtual   (A) (A) (A) (A) (A) (A) (A) (A) (A) (A) (A) (A)
                 (A) (A) (A) (A) (A) (A) (A) (A) (A) (A) (A) (A)
                 (A) (A) (A) (A) (A) (A) (A) (A) (A) (A) (A) (A)
                 (A) (A) (A) (A) (A) (A) (A) (A) (A) (A) (A) (A)
                 (A) (A) (A) (A) (A) (A) (A) (A) (A) (A) (A) (A)
                 (A) (A) (A) (A) (A) (A) (A) (A) (A) (A) (A) (A)
                 (A) (A) (A) (A) (A) (A) (A) (A) (A) (A) (A) (A)
                 (A) (A) (A) (A) (A) (A) (A) (A) (A) (A) (A) (A)
                 (A) (A) (A) (A) (A) (A) (A) (A) (A) (A) (A) (A)
                 (A) (A) (A) (A) (A) (A) (A) (A) (A) (A) (A) (A)
                 (A) (A) (A) (A) (A) (A) (A) (A) (A) (A) (A) (A)
                 (A) (A) (A) (A) (A) (A) (A) (A) (A) (A) (A) (A)
                 (A) (A) (A) (A)
 The electronic state is 2-A.
 Alpha  occ. eigenvalues --  -19.19711 -10.24294 -10.18912 -10.18712 -10.18178
 Alpha  occ. eigenvalues --  -10.18120 -10.18015 -10.17740 -10.17677  -1.11475
 Alpha  occ. eigenvalues --   -0.84695  -0.77054  -0.73823  -0.72197  -0.65731
 Alpha  occ. eigenvalues --   -0.59533  -0.58238  -0.51858  -0.50418  -0.46460
 Alpha  occ. eigenvalues --   -0.45864  -0.44010  -0.42772  -0.41361  -0.39240
 Alpha  occ. eigenvalues --   -0.38864  -0.36380  -0.35969  -0.33651  -0.32231
 Alpha  occ. eigenvalues --   -0.25807  -0.24879  -0.13011
 Alpha virt. eigenvalues --    0.00373   0.03116   0.06837   0.10872   0.12993
 Alpha virt. eigenvalues --    0.15569   0.15643   0.16794   0.17371   0.18299
 Alpha virt. eigenvalues --    0.19660   0.21297   0.23079   0.28123   0.30997
 Alpha virt. eigenvalues --    0.31305   0.32505   0.36733   0.37941   0.47837
 Alpha virt. eigenvalues --    0.51340   0.52258   0.54150   0.54318   0.56582
 Alpha virt. eigenvalues --    0.57866   0.58749   0.59379   0.59930   0.60587
 Alpha virt. eigenvalues --    0.61913   0.62523   0.64421   0.65369   0.67185
 Alpha virt. eigenvalues --    0.68191   0.72944   0.73663   0.75110   0.77375
 Alpha virt. eigenvalues --    0.81531   0.82699   0.83022   0.84691   0.85715
 Alpha virt. eigenvalues --    0.87569   0.89090   0.92201   0.93316   0.95649
 Alpha virt. eigenvalues --    0.95856   0.95928   1.01010   1.03952   1.07796
 Alpha virt. eigenvalues --    1.09558   1.14675   1.17556   1.25026   1.25790
 Alpha virt. eigenvalues --    1.27409   1.29540   1.31483   1.34037   1.36612
 Alpha virt. eigenvalues --    1.41037   1.42372   1.43309   1.43643   1.46017
 Alpha virt. eigenvalues --    1.47723   1.53377   1.56559   1.67117   1.74068
 Alpha virt. eigenvalues --    1.77995   1.79565   1.83744   1.85318   1.86484
 Alpha virt. eigenvalues --    1.87606   1.89509   1.93530   1.97407   1.98139
 Alpha virt. eigenvalues --    1.99467   2.00826   2.03036   2.06730   2.07211
 Alpha virt. eigenvalues --    2.08042   2.11130   2.14910   2.16861   2.19459
 Alpha virt. eigenvalues --    2.28805   2.30548   2.30906   2.34124   2.37988
 Alpha virt. eigenvalues --    2.38658   2.40625   2.41831   2.43168   2.45413
 Alpha virt. eigenvalues --    2.46981   2.48639   2.49779   2.50113   2.55234
 Alpha virt. eigenvalues --    2.56626   2.59485   2.60774   2.65110   2.65493
 Alpha virt. eigenvalues --    2.66282   2.67912   2.72553   2.76119   2.79082
 Alpha virt. eigenvalues --    2.83495   2.85971   2.87214   2.89230   3.06517
 Alpha virt. eigenvalues --    3.07112   3.15933   3.19659   3.24061   3.25073
 Alpha virt. eigenvalues --    3.26414   3.37457   3.42014   3.42230   3.44753
 Alpha virt. eigenvalues --    3.51351   3.52996   3.90778   4.07124   4.14245
 Alpha virt. eigenvalues --    4.16683   4.20072   4.36890   4.43555   4.44827
 Alpha virt. eigenvalues --    4.60306   4.85206
  Beta  occ. eigenvalues --  -19.19263 -10.23330 -10.19059 -10.18778 -10.18294
  Beta  occ. eigenvalues --  -10.18234 -10.17779 -10.17509 -10.17406  -1.10451
  Beta  occ. eigenvalues --   -0.84410  -0.76242  -0.73569  -0.71908  -0.64871
  Beta  occ. eigenvalues --   -0.59351  -0.57964  -0.51619  -0.49566  -0.46018
  Beta  occ. eigenvalues --   -0.43972  -0.43341  -0.42608  -0.41278  -0.38728
  Beta  occ. eigenvalues --   -0.37722  -0.36044  -0.35177  -0.33496  -0.31947
  Beta  occ. eigenvalues --   -0.24534  -0.24152
  Beta virt. eigenvalues --   -0.03765   0.00893   0.05877   0.06990   0.10985
  Beta virt. eigenvalues --    0.13168   0.15635   0.15854   0.17474   0.17572
  Beta virt. eigenvalues --    0.19276   0.19762   0.21473   0.24424   0.28439
  Beta virt. eigenvalues --    0.31186   0.31489   0.32763   0.37164   0.38445
  Beta virt. eigenvalues --    0.48202   0.52451   0.52707   0.54552   0.55564
  Beta virt. eigenvalues --    0.56801   0.58090   0.59407   0.59630   0.60038
  Beta virt. eigenvalues --    0.60823   0.62217   0.62641   0.64919   0.66360
  Beta virt. eigenvalues --    0.67846   0.68427   0.73879   0.74038   0.75796
  Beta virt. eigenvalues --    0.77582   0.81702   0.82800   0.83059   0.84791
  Beta virt. eigenvalues --    0.86326   0.87721   0.89315   0.92427   0.93603
  Beta virt. eigenvalues --    0.95941   0.95979   0.97349   1.01641   1.04131
  Beta virt. eigenvalues --    1.08042   1.09680   1.14919   1.17733   1.25590
  Beta virt. eigenvalues --    1.26076   1.28171   1.29821   1.31793   1.34928
  Beta virt. eigenvalues --    1.37795   1.41271   1.42895   1.43654   1.44067
  Beta virt. eigenvalues --    1.46273   1.47930   1.53908   1.57241   1.67588
  Beta virt. eigenvalues --    1.75314   1.78450   1.79707   1.84711   1.85954
  Beta virt. eigenvalues --    1.87714   1.88214   1.90012   1.93562   1.97678
  Beta virt. eigenvalues --    1.98392   1.99981   2.01081   2.03344   2.06912
  Beta virt. eigenvalues --    2.07516   2.08348   2.11360   2.15524   2.17220
  Beta virt. eigenvalues --    2.19871   2.29278   2.31267   2.32069   2.34448
  Beta virt. eigenvalues --    2.37985   2.38853   2.40984   2.42028   2.44199
  Beta virt. eigenvalues --    2.45441   2.47648   2.49239   2.50334   2.51000
  Beta virt. eigenvalues --    2.55489   2.57506   2.59715   2.60943   2.65463
  Beta virt. eigenvalues --    2.65799   2.66601   2.68530   2.72956   2.76509
  Beta virt. eigenvalues --    2.79359   2.83650   2.86455   2.87804   2.89679
  Beta virt. eigenvalues --    3.06554   3.07264   3.16277   3.19910   3.24301
  Beta virt. eigenvalues --    3.25114   3.26429   3.37547   3.42362   3.42416
  Beta virt. eigenvalues --    3.44901   3.51487   3.53101   3.90907   4.07905
  Beta virt. eigenvalues --    4.14463   4.16864   4.20596   4.37539   4.43706
  Beta virt. eigenvalues --    4.45022   4.61080   4.85566
          Condensed to atoms (all electrons):
               1          2          3          4          5          6
     1  C    4.979294   0.361303  -0.029252  -0.032636  -0.026292   0.419131
     2  C    0.361303   5.061131   0.372290   0.371058   0.362857  -0.067104
     3  H   -0.029252   0.372290   0.579358  -0.038472  -0.023208  -0.004969
     4  H   -0.032636   0.371058  -0.038472   0.585398  -0.025243  -0.004791
     5  H   -0.026292   0.362857  -0.023208  -0.025243   0.590170   0.004478
     6  C    0.419131  -0.067104  -0.004969  -0.004791   0.004478   4.760884
     7  C   -0.057732   0.008394  -0.000148  -0.000159  -0.000140   0.462617
     8  C   -0.062631  -0.011639   0.002744   0.002638   0.000310   0.519045
     9  C    0.006384  -0.000190   0.000002   0.000005   0.000002  -0.018590
    10  H   -0.014149   0.000479  -0.000016  -0.000016  -0.000008  -0.046822
    11  C    0.006671  -0.000015   0.000133   0.000102  -0.000006  -0.019282
    12  H   -0.014727   0.006374   0.000671   0.000824  -0.000005  -0.037641
    13  C    0.000481  -0.000003  -0.000007  -0.000007   0.000000  -0.032795
    14  H   -0.000187   0.000002   0.000000   0.000000  -0.000000   0.003407
    15  H   -0.000177   0.000010  -0.000003  -0.000003  -0.000000   0.003654
    16  H    0.000009  -0.000000   0.000000   0.000000  -0.000000   0.000761
    17  O    0.282544  -0.070894   0.002199   0.002232  -0.004053  -0.049074
    18  H   -0.034476  -0.014437   0.000247  -0.000001   0.010400   0.007775
               7          8          9         10         11         12
     1  C   -0.057732  -0.062631   0.006384  -0.014149   0.006671  -0.014727
     2  C    0.008394  -0.011639  -0.000190   0.000479  -0.000015   0.006374
     3  H   -0.000148   0.002744   0.000002  -0.000016   0.000133   0.000671
     4  H   -0.000159   0.002638   0.000005  -0.000016   0.000102   0.000824
     5  H   -0.000140   0.000310   0.000002  -0.000008  -0.000006  -0.000005
     6  C    0.462617   0.519045  -0.018590  -0.046822  -0.019282  -0.037641
     7  C    5.025925  -0.060747   0.516482   0.373219  -0.043878   0.006046
     8  C   -0.060747   4.995391  -0.043053   0.005831   0.524722   0.366656
     9  C    0.516482  -0.043053   4.854524  -0.044419  -0.029121   0.000271
    10  H    0.373219   0.005831  -0.044419   0.628746   0.000300  -0.000169
    11  C   -0.043878   0.524722  -0.029121   0.000300   4.844057  -0.044127
    12  H    0.006046   0.366656   0.000271  -0.000169  -0.044127   0.630234
    13  C   -0.045328  -0.045689   0.531346   0.004872   0.537702   0.004983
    14  H   -0.037725   0.000866   0.368171  -0.005654   0.004590   0.000017
    15  H    0.000952  -0.037151   0.004453   0.000017   0.368298  -0.006118
    16  H    0.004695   0.004955  -0.042160  -0.000180  -0.042151  -0.000191
    17  O   -0.001201   0.003078   0.000348   0.008905  -0.000053   0.000057
    18  H   -0.000534  -0.000081   0.000007  -0.000411   0.000004  -0.000014
              13         14         15         16         17         18
     1  C    0.000481  -0.000187  -0.000177   0.000009   0.282544  -0.034476
     2  C   -0.000003   0.000002   0.000010  -0.000000  -0.070894  -0.014437
     3  H   -0.000007   0.000000  -0.000003   0.000000   0.002199   0.000247
     4  H   -0.000007   0.000000  -0.000003   0.000000   0.002232  -0.000001
     5  H    0.000000  -0.000000  -0.000000  -0.000000  -0.004053   0.010400
     6  C   -0.032795   0.003407   0.003654   0.000761  -0.049074   0.007775
     7  C   -0.045328  -0.037725   0.000952   0.004695  -0.001201  -0.000534
     8  C   -0.045689   0.000866  -0.037151   0.004955   0.003078  -0.000081
     9  C    0.531346   0.368171   0.004453  -0.042160   0.000348   0.000007
    10  H    0.004872  -0.005654   0.000017  -0.000180   0.008905  -0.000411
    11  C    0.537702   0.004590   0.368298  -0.042151  -0.000053   0.000004
    12  H    0.004983   0.000017  -0.006118  -0.000191   0.000057  -0.000014
    13  C    4.877603  -0.041952  -0.041887   0.370697  -0.000005   0.000000
    14  H   -0.041952   0.624806  -0.000188  -0.006029  -0.000001  -0.000000
    15  H   -0.041887  -0.000188   0.622812  -0.006125   0.000000  -0.000000
    16  H    0.370697  -0.006029  -0.006125   0.631699   0.000000  -0.000000
    17  O   -0.000005  -0.000001   0.000000   0.000000   7.982538   0.310950
    18  H    0.000000  -0.000000  -0.000000  -0.000000   0.310950   0.370668
          Atomic-Atomic Spin Densities.
               1          2          3          4          5          6
     1  C    0.812680  -0.001492  -0.015733  -0.019977  -0.001602   0.044274
     2  C   -0.001492  -0.061532   0.003282   0.002909   0.002167  -0.001545
     3  H   -0.015733   0.003282   0.049195  -0.014136   0.000803  -0.001424
     4  H   -0.019977   0.002909  -0.014136   0.060254  -0.001603  -0.000580
     5  H   -0.001602   0.002167   0.000803  -0.001603   0.001194   0.000020
     6  C    0.044274  -0.001545  -0.001424  -0.000580   0.000020  -0.107686
     7  C   -0.020259  -0.000102   0.000142   0.000105  -0.000001  -0.023587
     8  C   -0.017984   0.000504   0.001911   0.001782  -0.000005  -0.025741
     9  C   -0.000258   0.000010   0.000002   0.000001  -0.000000  -0.000271
    10  H   -0.000378  -0.000023   0.000001  -0.000001   0.000001   0.001096
    11  C   -0.000184  -0.000011   0.000032   0.000004  -0.000000   0.000360
    12  H    0.000048   0.000055  -0.000083   0.000099  -0.000004   0.000446
    13  C    0.000321  -0.000001  -0.000007  -0.000006   0.000000   0.002449
    14  H   -0.000004   0.000000   0.000000  -0.000000  -0.000000   0.000004
    15  H   -0.000004   0.000000  -0.000000  -0.000000   0.000000  -0.000013
    16  H    0.000000  -0.000000  -0.000000   0.000000   0.000000  -0.000031
    17  O   -0.143677   0.000248   0.000732   0.001301   0.000028  -0.004464
    18  H   -0.000722   0.000488   0.000151  -0.000177   0.000094  -0.000191
               7          8          9         10         11         12
     1  C   -0.020259  -0.017984  -0.000258  -0.000378  -0.000184   0.000048
     2  C   -0.000102   0.000504   0.000010  -0.000023  -0.000011   0.000055
     3  H    0.000142   0.001911   0.000002   0.000001   0.000032  -0.000083
     4  H    0.000105   0.001782   0.000001  -0.000001   0.000004   0.000099
     5  H   -0.000001  -0.000005  -0.000000   0.000001  -0.000000  -0.000004
     6  C   -0.023587  -0.025741  -0.000271   0.001096   0.000360   0.000446
     7  C    0.212050   0.008019   0.010732   0.000771   0.001364  -0.000045
     8  C    0.008019   0.219550   0.001273   0.000008   0.007654   0.001252
     9  C    0.010732   0.001273  -0.099645   0.000546  -0.000108  -0.000005
    10  H    0.000771   0.000008   0.000546  -0.010446  -0.000008   0.000001
    11  C    0.001364   0.007654  -0.000108  -0.000008  -0.101551   0.000440
    12  H   -0.000045   0.001252  -0.000005   0.000001   0.000440  -0.010736
    13  C   -0.010988  -0.010744  -0.009000   0.000015  -0.007346   0.000011
    14  H   -0.000527  -0.000006   0.000447   0.000024   0.000001  -0.000000
    15  H   -0.000007  -0.000441   0.000002  -0.000000   0.000450   0.000023
    16  H    0.000010   0.000013   0.000104   0.000003   0.000060   0.000003
    17  O    0.003133   0.000451  -0.000003   0.000059   0.000001   0.000001
    18  H   -0.000009  -0.000006  -0.000001   0.000014  -0.000000   0.000000
              13         14         15         16         17         18
     1  C    0.000321  -0.000004  -0.000004   0.000000  -0.143677  -0.000722
     2  C   -0.000001   0.000000   0.000000  -0.000000   0.000248   0.000488
     3  H   -0.000007   0.000000  -0.000000  -0.000000   0.000732   0.000151
     4  H   -0.000006  -0.000000  -0.000000   0.000000   0.001301  -0.000177
     5  H    0.000000  -0.000000   0.000000   0.000000   0.000028   0.000094
     6  C    0.002449   0.000004  -0.000013  -0.000031  -0.004464  -0.000191
     7  C   -0.010988  -0.000527  -0.000007   0.000010   0.003133  -0.000009
     8  C   -0.010744  -0.000006  -0.000441   0.000013   0.000451  -0.000006
     9  C   -0.009000   0.000447   0.000002   0.000104  -0.000003  -0.000001
    10  H    0.000015   0.000024  -0.000000   0.000003   0.000059   0.000014
    11  C   -0.007346   0.000001   0.000450   0.000060   0.000001  -0.000000
    12  H    0.000011  -0.000000   0.000023   0.000003   0.000001   0.000000
    13  C    0.245077  -0.000427  -0.000429   0.001404  -0.000004   0.000000
    14  H   -0.000427   0.003796  -0.000000   0.000073   0.000000   0.000000
    15  H   -0.000429  -0.000000   0.003802   0.000073   0.000000   0.000000
    16  H    0.001404   0.000073   0.000073  -0.011748  -0.000000   0.000000
    17  O   -0.000004   0.000000   0.000000  -0.000000   0.263673  -0.000340
    18  H    0.000000   0.000000   0.000000   0.000000  -0.000340  -0.003101
 Mulliken charges and spin densities:
               1          2
     1  C    0.216443   0.635051
     2  C   -0.379615  -0.055041
     3  H    0.138430   0.024869
     4  H    0.139072   0.029975
     5  H    0.110737   0.001094
     6  C    0.099317  -0.116884
     7  C   -0.150737   0.180803
     8  C   -0.165246   0.187491
     9  C   -0.104461  -0.096172
    10  H    0.089475  -0.008318
    11  C   -0.107946  -0.098842
    12  H    0.086857  -0.008493
    13  C   -0.120011   0.210327
    14  H    0.089878   0.003380
    15  H    0.091456   0.003456
    16  H    0.084019  -0.010036
    17  O   -0.467572   0.121139
    18  H    0.349903  -0.003799
 Sum of Mulliken charges =  -0.00000   1.00000
 Mulliken charges and spin densities with hydrogens summed into heavy atoms:
               1          2
     1  C    0.216443   0.635051
     2  C    0.008625   0.000897
     6  C    0.099317  -0.116884
     7  C   -0.061262   0.172485
     8  C   -0.078389   0.178998
     9  C   -0.014584  -0.092792
    11  C   -0.016490  -0.095386
    13  C   -0.035992   0.200290
    17  O   -0.117668   0.117340
 Electronic spatial extent (au):  <R**2>=           1271.8078
 Charge=             -0.0000 electrons
 Dipole moment (field-independent basis, Debye):
    X=             -3.8259    Y=              0.7148    Z=              0.0631  Tot=              3.8926
 Quadrupole moment (field-independent basis, Debye-Ang):
   XX=            -37.8839   YY=            -50.1284   ZZ=            -56.3928
   XY=              0.5296   XZ=             -0.3980   YZ=             -0.2915
 Traceless Quadrupole moment (field-independent basis, Debye-Ang):
   XX=             10.2511   YY=             -1.9933   ZZ=             -8.2578
   XY=              0.5296   XZ=             -0.3980   YZ=             -0.2915
 Octapole moment (field-independent basis, Debye-Ang**2):
  XXX=            -56.3358  YYY=             -2.1289  ZZZ=             -0.3771  XYY=             -1.8482
  XXY=            -10.2514  XXZ=              0.2145  XZZ=             -9.6507  YZZ=             -1.0349
  YYZ=              0.1096  XYZ=              0.1361
 Hexadecapole moment (field-independent basis, Debye-Ang**3):
 XXXX=           -956.6683 YYYY=           -418.0379 ZZZZ=            -63.5651 XXXY=             57.0227
 XXXZ=             -3.0310 YYYX=             11.9096 YYYZ=             -0.7764 ZZZX=              0.5848
 ZZZY=              0.3952 XXYY=           -248.2347 XXZZ=           -220.6472 YYZZ=            -87.2297
 XXYZ=             -1.3541 YYXZ=             -0.8528 ZZXY=              2.8627
 N-N= 4.126063221055D+02 E-N=-1.721217843955D+03  KE= 3.820350668749D+02
                          Isotropic Fermi Contact Couplings
        Atom                 a.u.       MegaHertz       Gauss      10(-4) cm-1
     1  C(13)              0.07012      78.82961      28.12836      26.29473
     2  C(13)             -0.01907     -21.43424      -7.64827      -7.14969
     3  H(1)               0.01224      54.70919      19.52160      18.24902
     4  H(1)               0.01469      65.65538      23.42747      21.90028
     5  H(1)               0.00038       1.69974       0.60651       0.56697
     6  C(13)             -0.02668     -29.99827     -10.70413     -10.00634
     7  C(13)              0.01962      22.05917       7.87126       7.35815
     8  C(13)              0.01988      22.35361       7.97632       7.45636
     9  C(13)             -0.01471     -16.53749      -5.90099      -5.51631
    10  H(1)              -0.00281     -12.56244      -4.48259      -4.19038
    11  C(13)             -0.01513     -17.01460      -6.07123      -5.67546
    12  H(1)              -0.00290     -12.95565      -4.62290      -4.32154
    13  C(13)              0.02263      25.43913       9.07731       8.48558
    14  H(1)               0.00109       4.85359       1.73188       1.61898
    15  H(1)               0.00110       4.92472       1.75726       1.64271
    16  H(1)              -0.00321     -14.34425      -5.11838      -4.78473
    17  O(17)              0.03322     -20.13817      -7.18580      -6.71737
    18  H(1)              -0.00216      -9.67711      -3.45303      -3.22794
 --------------------------------------------------------
       Center         ----  Spin Dipole Couplings  ----
                      3XX-RR        3YY-RR        3ZZ-RR
 --------------------------------------------------------
     1   Atom       -0.377000     -0.380602      0.757601
     2   Atom       -0.002313      0.003645     -0.001332
     3   Atom       -0.003575      0.008447     -0.004872
     4   Atom       -0.003261      0.008412     -0.005150
     5   Atom        0.007104     -0.001326     -0.005778
     6   Atom        0.040131      0.023857     -0.063988
     7   Atom       -0.081505     -0.088425      0.169930
     8   Atom       -0.086242     -0.091035      0.177277
     9   Atom        0.041364      0.033977     -0.075341
    10   Atom       -0.002822      0.007187     -0.004365
    11   Atom        0.042526      0.035033     -0.077559
    12   Atom       -0.004857      0.007883     -0.003026
    13   Atom       -0.096819     -0.107895      0.204714
    14   Atom        0.004341     -0.000876     -0.003465
    15   Atom        0.004482     -0.001025     -0.003458
    16   Atom        0.015165     -0.015040     -0.000126
    17   Atom       -0.348467     -0.358815      0.707282
    18   Atom        0.038159     -0.023665     -0.014495
 --------------------------------------------------------
                        XY            XZ            YZ
 --------------------------------------------------------
     1   Atom       -0.001459     -0.019903     -0.045332
     2   Atom       -0.007758      0.000061     -0.000081
     3   Atom       -0.005492     -0.002123      0.005447
     4   Atom       -0.006300      0.001696     -0.005176
     5   Atom       -0.008794     -0.000533      0.000248
     6   Atom        0.002223     -0.000173      0.000196
     7   Atom       -0.001959      0.000279      0.008547
     8   Atom        0.002145      0.003709      0.009278
     9   Atom        0.003359     -0.001275     -0.001906
    10   Atom        0.004111     -0.000057     -0.000303
    11   Atom       -0.003024     -0.002293     -0.002742
    12   Atom       -0.005916      0.000288      0.000034
    13   Atom        0.000547      0.006540      0.004263
    14   Atom        0.001906     -0.000103     -0.000081
    15   Atom       -0.001722     -0.000028      0.000059
    16   Atom        0.000994     -0.000349      0.000205
    17   Atom        0.003402      0.033504     -0.055660
    18   Atom        0.002486     -0.001416     -0.000879
 --------------------------------------------------------


 ---------------------------------------------------------------------------------
              Anisotropic Spin Dipole Couplings in Principal Axis System
 ---------------------------------------------------------------------------------

       Atom             a.u.   MegaHertz   Gauss  10(-4) cm-1        Axes

              Baa    -0.3833   -51.430   -18.351   -17.155  0.3553  0.9337  0.0433
     1 C(13)  Bbb    -0.3765   -50.521   -18.027   -16.852  0.9346 -0.3558  0.0022
              Bcc     0.7597   101.951    36.379    34.007 -0.0174 -0.0397  0.9991
 
              Baa    -0.0076    -1.026    -0.366    -0.342  0.8242  0.5664 -0.0008
     2 C(13)  Bbb    -0.0013    -0.179    -0.064    -0.060 -0.0050  0.0085  1.0000
              Bcc     0.0090     1.205     0.430     0.402 -0.5663  0.8241 -0.0098
 
              Baa    -0.0068    -3.647    -1.301    -1.217  0.1223 -0.2939  0.9480
     3 H(1)   Bbb    -0.0057    -3.044    -1.086    -1.015  0.9313  0.3642 -0.0072
              Bcc     0.0125     6.691     2.388     2.232 -0.3431  0.8837  0.3183
 
              Baa    -0.0070    -3.751    -1.338    -1.251  0.2989  0.4107  0.8614
     4 H(1)   Bbb    -0.0058    -3.080    -1.099    -1.027  0.8772  0.2373 -0.4175
              Bcc     0.0128     6.831     2.437     2.278 -0.3758  0.8804 -0.2893
 
              Baa    -0.0069    -3.665    -1.308    -1.222  0.5333  0.8432  0.0686
     5 H(1)   Bbb    -0.0058    -3.090    -1.103    -1.031 -0.0099 -0.0749  0.9971
              Bcc     0.0127     6.755     2.410     2.253  0.8459 -0.5324 -0.0316
 
              Baa    -0.0640    -8.587    -3.064    -2.864  0.0017 -0.0023  1.0000
     6 C(13)  Bbb     0.0236     3.161     1.128     1.055 -0.1329  0.9911  0.0025
              Bcc     0.0404     5.425     1.936     1.810  0.9911  0.1329 -0.0014
 
              Baa    -0.0892   -11.971    -4.272    -3.993  0.2474  0.9684 -0.0322
     7 C(13)  Bbb    -0.0810   -10.870    -3.879    -3.626  0.9689 -0.2473  0.0073
              Bcc     0.1702    22.841     8.150     7.619  0.0009  0.0330  0.9995
 
              Baa    -0.0921   -12.354    -4.408    -4.121 -0.3300  0.9436 -0.0280
     8 C(13)  Bbb    -0.0856   -11.486    -4.098    -3.831  0.9439  0.3294 -0.0249
              Bcc     0.1777    23.839     8.506     7.952  0.0143  0.0346  0.9993
 
              Baa    -0.0754   -10.116    -3.610    -3.374  0.0104  0.0171  0.9998
     9 C(13)  Bbb     0.0327     4.387     1.565     1.463 -0.3628  0.9318 -0.0122
              Bcc     0.0427     5.729     2.044     1.911  0.9318  0.3626 -0.0159
 
              Baa    -0.0044    -2.345    -0.837    -0.782 -0.3964  0.1643  0.9032
    10 H(1)   Bbb    -0.0043    -2.279    -0.813    -0.760  0.8540 -0.2951  0.4285
              Bcc     0.0087     4.624     1.650     1.542  0.3369  0.9412 -0.0233
 
              Baa    -0.0777   -10.423    -3.719    -3.477  0.0197  0.0248  0.9995
    11 C(13)  Bbb     0.0341     4.571     1.631     1.525  0.3292  0.9438 -0.0299
              Bcc     0.0436     5.852     2.088     1.952  0.9440 -0.3296 -0.0104
 
              Baa    -0.0072    -3.841    -1.371    -1.281  0.9288  0.3645 -0.0670
    12 H(1)   Bbb    -0.0030    -1.604    -0.573    -0.535  0.0604  0.0296  0.9977
              Bcc     0.0102     5.446     1.943     1.816 -0.3656  0.9307 -0.0055
 
              Baa    -0.1080   -14.489    -5.170    -4.833 -0.0415  0.9991 -0.0128
    13 C(13)  Bbb    -0.0969   -13.009    -4.642    -4.339  0.9989  0.0413 -0.0222
              Bcc     0.2049    27.498     9.812     9.172  0.0217  0.0137  0.9997
 
              Baa    -0.0035    -1.850    -0.660    -0.617  0.0068  0.0261  0.9996
    14 H(1)   Bbb    -0.0015    -0.799    -0.285    -0.266 -0.3106  0.9503 -0.0227
              Bcc     0.0050     2.649     0.945     0.884  0.9505  0.3104 -0.0146
 
              Baa    -0.0035    -1.846    -0.659    -0.616 -0.0020 -0.0255  0.9997
    15 H(1)   Bbb    -0.0015    -0.810    -0.289    -0.270  0.2759  0.9609  0.0250
              Bcc     0.0050     2.655     0.947     0.886  0.9612 -0.2758 -0.0052
 
              Baa    -0.0151    -8.044    -2.870    -2.683 -0.0330  0.9994 -0.0145
    16 H(1)   Bbb    -0.0001    -0.069    -0.025    -0.023  0.0218  0.0152  0.9996
              Bcc     0.0152     8.113     2.895     2.706  0.9992  0.0327 -0.0223
 
              Baa    -0.3636    26.309     9.388     8.776 -0.3427  0.9376  0.0595
    17 O(17)  Bbb    -0.3476    25.155     8.976     8.391  0.9389  0.3439 -0.0117
              Bcc     0.7112   -51.464   -18.364   -17.166  0.0314 -0.0518  0.9982
 
              Baa    -0.0238   -12.718    -4.538    -4.242 -0.0379  0.9954  0.0879
    18 H(1)   Bbb    -0.0145    -7.716    -2.753    -2.574  0.0309 -0.0868  0.9957
              Bcc     0.0383    20.435     7.292     6.816  0.9988  0.0405 -0.0275
 

 ---------------------------------------------------------------------------------

 No NMR shielding tensors so no spin-rotation constants.
 Leave Link  601 at Thu May 16 17:24:58 2019, MaxMem=   104857600 cpu:               6.6 elap:               0.2
 (Enter /opt/software/gaussian/g16.b01/l701.exe)
 ... and contract with generalized density number  0.
 Compute integral first derivatives.
 R6Disp: Adding Grimme-D3 dispersion energy 1st derivatives to the gradient.
 PrsmSu:  requested number of processors reduced to:  30 ShMem   1 Linda.
 D1PCM: PCM CHGder 1st derivatives, ID1Alg=3 FixD1E=F DoIter=F DoCFld=F I1PDM=0.
 GePol: Maximum number of non-zero 1st derivatives   =     184
 CoulSu:  requested number of processors reduced to:  29 ShMem   1 Linda.
 CoulSu:  requested number of processors reduced to:  30 ShMem   1 Linda.
 Leave Link  701 at Thu May 16 17:24:59 2019, MaxMem=   104857600 cpu:              20.1 elap:               0.7
 (Enter /opt/software/gaussian/g16.b01/l702.exe)
 L702 exits ... SP integral derivatives will be done elsewhere.
 Leave Link  702 at Thu May 16 17:24:59 2019, MaxMem=   104857600 cpu:               1.6 elap:               0.1
 (Enter /opt/software/gaussian/g16.b01/l703.exe)
 Integral derivatives from FoFJK, PRISM(SPDF).
 Compute integral first derivatives, UseDBF=F ICtDFT=           0.
 Calling FoFJK, ICntrl=      2127 FMM=F ISym2X=0 I1Cent= 0 IOpClX= 1 NMat=1 NMatS=1 NMatT=0.
 FoFJK:  IHMeth= 1 ICntrl=    2127 DoSepK=F KAlg= 0 I1Cent=           0 FoldK=F
 IRaf=         0 NMat=       1 IRICut=       1 DoRegI=T DoRafI=F ISym2E= 0 IDoP0=0 IntGTp=1.
 FoFCou: FMM=F IPFlag=           0 FMFlag=      100000 FMFlg1=         800
         NFxFlg=           0 DoJE=F BraDBF=F KetDBF=F FulRan=T
         wScrn=  0.000000 ICntrl=      2127 IOpCl=  1 I1Cent=           0 NGrid=           0
         NMat0=    1 NMatS0=      1 NMatT0=    0 NMatD0=    1 NMtDS0=    0 NMtDT0=    0
 Symmetry not used in FoFCou.
 Leave Link  703 at Thu May 16 17:25:00 2019, MaxMem=   104857600 cpu:              31.3 elap:               1.0
 (Enter /opt/software/gaussian/g16.b01/l716.exe)
 Dipole        =-1.50522429D+00 2.81212727D-01 2.48355002D-02
 ***** Axes restored to original set *****
 -------------------------------------------------------------------
 Center     Atomic                   Forces (Hartrees/Bohr)
 Number     Number              X              Y              Z
 -------------------------------------------------------------------
      1        6           0.103259065    0.046717251   -0.097346727
      2        6           0.002166043    0.004829080    0.013265842
      3        1          -0.001392792   -0.001390836   -0.001835242
      4        1          -0.000740163   -0.003293459   -0.004018079
      5        1          -0.001850424   -0.003085645   -0.004777321
      6        6          -0.045619733   -0.035597027    0.004979023
      7        6           0.004759970    0.008226900    0.010431384
      8        6           0.010190887    0.002732263   -0.009662959
      9        6          -0.004692333   -0.003302699    0.000197419
     10        1           0.000677068    0.001145749    0.001515278
     11        6          -0.004772910   -0.004981475   -0.000595043
     12        1          -0.000221663    0.000021354   -0.000625261
     13        6           0.006465915    0.006014745    0.002132042
     14        1          -0.000031315    0.000380060    0.000580561
     15        1           0.000169614    0.000475906   -0.001132202
     16        1           0.000205146    0.000525609    0.000083134
     17        8          -0.060427665   -0.014753750    0.082867551
     18        1          -0.008144709   -0.004664024    0.003940602
 -------------------------------------------------------------------
 Cartesian Forces:  Max     0.103259065 RMS     0.026311148
 Leave Link  716 at Thu May 16 17:25:00 2019, MaxMem=   104857600 cpu:               1.4 elap:               0.1
 (Enter /opt/software/gaussian/g16.b01/l103.exe)

 GradGradGradGradGradGradGradGradGradGradGradGradGradGradGradGradGradGrad
 Berny optimization.
 FormGI is forming the generalized inverse of G from B-inverse, IUseBI=4.
 GSVD:  received Info=                   1 from GESDD.
 Internal  Forces:  Max     0.112298166 RMS     0.013705796
 Search for a local minimum.
 Step number   1 out of a maximum of   92
 All quantities printed in internal units (Hartrees-Bohrs-Radians)
 RMS Force = .13706D-01 SwitMx=.10000D-02 MixMth= 1
 Mixed Optimization -- RFO/linear search
 Second derivative matrix not updated -- first step.
 ITU=  0
     Eigenvalues ---    0.00583   0.00808   0.01170   0.01658   0.02046
     Eigenvalues ---    0.02098   0.02112   0.02122   0.02138   0.02143
     Eigenvalues ---    0.02157   0.02166   0.03565   0.07237   0.07459
     Eigenvalues ---    0.15995   0.15997   0.16000   0.16000   0.16000
     Eigenvalues ---    0.16000   0.16000   0.16000   0.16000   0.22000
     Eigenvalues ---    0.22000   0.23472   0.24992   0.24998   0.24999
     Eigenvalues ---    0.30967   0.32713   0.34296   0.34313   0.34770
     Eigenvalues ---    0.35313   0.35314   0.35404   0.35428   0.35515
[...]
    11  C   -0.041687   0.532365  -0.029186   0.000221   4.837651  -0.040532
    12  H    0.005699   0.365857   0.000226  -0.000149  -0.040532   0.626440
    13  C   -0.045104  -0.046981   0.527050   0.004938   0.529991   0.004835
    14  H   -0.037243   0.000881   0.368612  -0.006252   0.004555   0.000016
    15  H    0.000924  -0.037239   0.004479   0.000015   0.368302  -0.006404
    16  H    0.004582   0.004854  -0.041047  -0.000170  -0.041059  -0.000181
    17  O   -0.004764   0.003041   0.000408   0.010330  -0.000066   0.000006
    18  H   -0.000305  -0.000100  -0.000001  -0.000404   0.000004  -0.000006
              13         14         15         16         17         18
     1  C    0.000665  -0.000207  -0.000215   0.000006   0.263950  -0.032219
     2  C   -0.000005   0.000001   0.000005  -0.000000  -0.072482  -0.007166
     3  H   -0.000000   0.000000  -0.000001  -0.000000   0.003290   0.000070
     4  H   -0.000000  -0.000000  -0.000000  -0.000000   0.000123   0.002212
     5  H   -0.000000  -0.000000  -0.000000  -0.000000   0.000133   0.002195
     6  C   -0.030138   0.003438   0.003408   0.000617  -0.044751   0.007088
     7  C   -0.045104  -0.037243   0.000924   0.004582  -0.004764  -0.000305
     8  C   -0.046981   0.000881  -0.037239   0.004854   0.003041  -0.000100
     9  C    0.527050   0.368612   0.004479  -0.041047   0.000408  -0.000001
    10  H    0.004938  -0.006252   0.000015  -0.000170   0.010330  -0.000404
    11  C    0.529991   0.004555   0.368302  -0.041059  -0.000066   0.000004
    12  H    0.004835   0.000016  -0.006404  -0.000181   0.000006  -0.000006
    13  C    4.882678  -0.042149  -0.041513   0.371478  -0.000002   0.000000
    14  H   -0.042149   0.621648  -0.000191  -0.005712  -0.000003  -0.000000
    15  H   -0.041513  -0.000191   0.620442  -0.005726   0.000000  -0.000000
    16  H    0.371478  -0.005712  -0.005726   0.622002   0.000000  -0.000000
    17  O   -0.000002  -0.000003   0.000000   0.000000   8.078650   0.299546
    18  H    0.000000  -0.000000  -0.000000  -0.000000   0.299546   0.383637
          Atomic-Atomic Spin Densities.
               1          2          3          4          5          6
     1  C    0.736202   0.005446  -0.001112  -0.018248  -0.018263   0.032749
     2  C    0.005446  -0.062056   0.002076   0.001106   0.001104  -0.001189
     3  H   -0.001112   0.002076   0.000395  -0.000362  -0.000390   0.000439
     4  H   -0.018248   0.001106  -0.000362   0.062588  -0.016868  -0.000284
     5  H   -0.018263   0.001104  -0.000390  -0.016868   0.062690  -0.000285
     6  C    0.032749  -0.001189   0.000439  -0.000284  -0.000285  -0.155361
     7  C   -0.020413  -0.000174   0.000006   0.000062   0.000062  -0.017583
     8  C   -0.018873   0.000073  -0.000082   0.000292   0.000294  -0.020911
     9  C   -0.000095   0.000009  -0.000000   0.000000   0.000000   0.000131
    10  H   -0.000314  -0.000021  -0.000000   0.000000   0.000000   0.001032
    11  C   -0.000254  -0.000020   0.000013   0.000001   0.000001   0.000487
    12  H   -0.000012   0.000087  -0.000001  -0.000004  -0.000004   0.000636
    13  C    0.000333   0.000000   0.000000  -0.000001  -0.000001   0.001830
    14  H   -0.000003   0.000000  -0.000000  -0.000000  -0.000000   0.000004
    15  H   -0.000003   0.000000  -0.000000   0.000000   0.000000  -0.000010
    16  H   -0.000000  -0.000000   0.000000   0.000000   0.000000  -0.000037
    17  O   -0.094724   0.000524   0.000003   0.002001   0.002005  -0.002398
    18  H   -0.000397   0.000323   0.000001   0.000018   0.000014  -0.000162
               7          8          9         10         11         12
     1  C   -0.020413  -0.018873  -0.000095  -0.000314  -0.000254  -0.000012
     2  C   -0.000174   0.000073   0.000009  -0.000021  -0.000020   0.000087
     3  H    0.000006  -0.000082  -0.000000  -0.000000   0.000013  -0.000001
     4  H    0.000062   0.000292   0.000000   0.000000   0.000001  -0.000004
     5  H    0.000062   0.000294   0.000000   0.000000   0.000001  -0.000004
     6  C   -0.017583  -0.020911   0.000131   0.001032   0.000487   0.000636
     7  C    0.274550   0.008617   0.005166   0.000943   0.001351  -0.000013
     8  C    0.008617   0.261507   0.000915   0.000021   0.008912   0.001273
     9  C    0.005166   0.000915  -0.128726   0.000512  -0.000177  -0.000016
    10  H    0.000943   0.000021   0.000512  -0.013040  -0.000019   0.000002
    11  C    0.001351   0.008912  -0.000177  -0.000019  -0.125671   0.000279
    12  H   -0.000013   0.001273  -0.000016   0.000002   0.000279  -0.012462
    13  C   -0.012916  -0.011985  -0.004840   0.000008  -0.009566   0.000021
    14  H   -0.000564  -0.000005   0.000498   0.000049  -0.000002  -0.000000
    15  H   -0.000007  -0.000581  -0.000004  -0.000000   0.000561   0.000039
    16  H    0.000015   0.000006   0.000095   0.000003   0.000102   0.000003
    17  O    0.003167   0.000358  -0.000008   0.000081   0.000002   0.000000
    18  H    0.000005  -0.000004  -0.000000   0.000005  -0.000000   0.000000
              13         14         15         16         17         18
     1  C    0.000333  -0.000003  -0.000003  -0.000000  -0.094724  -0.000397
     2  C    0.000000   0.000000   0.000000  -0.000000   0.000524   0.000323
     3  H    0.000000  -0.000000  -0.000000   0.000000   0.000003   0.000001
     4  H   -0.000001  -0.000000   0.000000   0.000000   0.002001   0.000018
     5  H   -0.000001  -0.000000   0.000000   0.000000   0.002005   0.000014
     6  C    0.001830   0.000004  -0.000010  -0.000037  -0.002398  -0.000162
     7  C   -0.012916  -0.000564  -0.000007   0.000015   0.003167   0.000005
     8  C   -0.011985  -0.000005  -0.000581   0.000006   0.000358  -0.000004
     9  C   -0.004840   0.000498  -0.000004   0.000095  -0.000008  -0.000000
    10  H    0.000008   0.000049  -0.000000   0.000003   0.000081   0.000005
    11  C   -0.009566  -0.000002   0.000561   0.000102   0.000002  -0.000000
    12  H    0.000021  -0.000000   0.000039   0.000003   0.000000   0.000000
    13  C    0.305621  -0.000604  -0.000549   0.001674  -0.000004   0.000000
    14  H   -0.000604   0.005072  -0.000000   0.000079   0.000000   0.000000
    15  H   -0.000549  -0.000000   0.004891   0.000080   0.000000   0.000000
    16  H    0.001674   0.000079   0.000080  -0.014598  -0.000000   0.000000
    17  O   -0.000004   0.000000   0.000000  -0.000000   0.175921   0.000132
    18  H    0.000000   0.000000   0.000000   0.000000   0.000132  -0.003081
 Mulliken charges and spin densities:
               1          2
     1  C    0.248114   0.602018
     2  C   -0.394897  -0.052710
     3  H    0.136036   0.000987
     4  H    0.136870   0.030304
     5  H    0.136906   0.030361
     6  C    0.084972  -0.160911
     7  C   -0.139985   0.242275
     8  C   -0.151637   0.229825
     9  C   -0.102638  -0.126540
    10  H    0.095612  -0.010736
    11  C   -0.109145  -0.123997
    12  H    0.090819  -0.010172
    13  C   -0.115742   0.269021
    14  H    0.092604   0.004523
    15  H    0.093715   0.004415
    16  H    0.090355  -0.012577
    17  O   -0.537408   0.087061
    18  H    0.345450  -0.003147
 Sum of Mulliken charges =  -0.00000   1.00000
 Mulliken charges and spin densities with hydrogens summed into heavy atoms:
               1          2
     1  C    0.248114   0.602018
     2  C    0.014915   0.008942
     6  C    0.084972  -0.160911
     7  C   -0.044372   0.231538
     8  C   -0.060818   0.219653
     9  C   -0.010033  -0.122017
    11  C   -0.015430  -0.119582
    13  C   -0.025388   0.256443
    17  O   -0.191959   0.083915
 Electronic spatial extent (au):  <R**2>=           1283.2918
 Charge=              0.0000 electrons
 Dipole moment (field-independent basis, Debye):
    X=             -3.2465    Y=              1.1499    Z=             -0.0005  Tot=              3.4441
 Quadrupole moment (field-independent basis, Debye-Ang):
   XX=            -38.0316   YY=            -49.9854   ZZ=            -56.4745
   XY=             -0.5189   XZ=              0.0017   YZ=              0.0014
 Traceless Quadrupole moment (field-independent basis, Debye-Ang):
   XX=             10.1322   YY=             -1.8215   ZZ=             -8.3107
   XY=             -0.5189   XZ=              0.0017   YZ=              0.0014
 Octapole moment (field-independent basis, Debye-Ang**2):
  XXX=            -50.2152  YYY=             -0.4532  ZZZ=              0.0025  XYY=             -1.4633
  XXY=             -7.5526  XXZ=             -0.0044  XZZ=            -10.0108  YZZ=             -1.5525
  YYZ=             -0.0013  XYZ=             -0.0019
 Hexadecapole moment (field-independent basis, Debye-Ang**3):
 XXXX=           -979.3278 YYYY=           -414.3627 ZZZZ=            -63.3236 XXXY=             48.5734
 XXXZ=              0.0181 YYYX=              8.9273 YYYZ=              0.0004 ZZZX=             -0.0055
 ZZZY=              0.0011 XXYY=           -248.8179 XXZZ=           -218.5456 YYZZ=            -89.7948
 XXYZ=              0.0099 YYXZ=              0.0033 ZZXY=              2.6597
 N-N= 4.104489794245D+02 E-N=-1.716817377970D+03  KE= 3.817898871830D+02
                          Isotropic Fermi Contact Couplings
        Atom                 a.u.       MegaHertz       Gauss      10(-4) cm-1
     1  C(13)              0.07029      79.02500      28.19808      26.35990
     2  C(13)             -0.01912     -21.49210      -7.66892      -7.16899
     3  H(1)               0.00028       1.24069       0.44271       0.41385
     4  H(1)               0.01361      60.83168      21.70626      20.29126
     5  H(1)               0.01364      60.95021      21.74855      20.33080
     6  C(13)             -0.03191     -35.87050     -12.79949     -11.96511
     7  C(13)              0.02638      29.65496      10.58163       9.89183
     8  C(13)              0.02539      28.54038      10.18392       9.52005
     9  C(13)             -0.01881     -21.14384      -7.54465      -7.05283
    10  H(1)              -0.00362     -16.18754      -5.77612      -5.39958
    11  C(13)             -0.01858     -20.88866      -7.45359      -6.96771
    12  H(1)              -0.00340     -15.21717      -5.42986      -5.07590
    13  C(13)              0.02902      32.62317      11.64076      10.88192
    14  H(1)               0.00145       6.49441       2.31737       2.16630
    15  H(1)               0.00141       6.30838       2.25099       2.10425
    16  H(1)              -0.00407     -18.20187      -6.49488      -6.07149
    17  O(17)              0.02433     -14.75147      -5.26369      -4.92056
    18  H(1)              -0.00179      -7.98233      -2.84829      -2.66262
 --------------------------------------------------------
       Center         ----  Spin Dipole Couplings  ----
                      3XX-RR        3YY-RR        3ZZ-RR
 --------------------------------------------------------
     1   Atom       -0.368211     -0.369998      0.738209
     2   Atom        0.000639      0.002379     -0.003019
     3   Atom       -0.003807      0.009342     -0.005536
     4   Atom        0.004676     -0.000349     -0.004326
     5   Atom        0.004660     -0.000340     -0.004319
     6   Atom        0.064325      0.038342     -0.102666
     7   Atom       -0.110856     -0.114469      0.225326
     8   Atom       -0.109571     -0.112227      0.221798
     9   Atom        0.053972      0.044829     -0.098801
    10   Atom       -0.005961      0.009685     -0.003724
    11   Atom        0.053050      0.044017     -0.097067
    12   Atom       -0.006835      0.010285     -0.003450
    13   Atom       -0.124858     -0.136761      0.261619
    14   Atom        0.004957     -0.000810     -0.004147
    15   Atom        0.005061     -0.001012     -0.004049
    16   Atom        0.018983     -0.018839     -0.000144
    17   Atom       -0.250320     -0.273833      0.524154
    18   Atom        0.027727     -0.016501     -0.011225
 --------------------------------------------------------
                        XY            XZ            YZ
 --------------------------------------------------------
     1   Atom       -0.002212      0.000042      0.000161
     2   Atom       -0.009017     -0.000002      0.000005
     3   Atom       -0.005185      0.000003     -0.000005
     4   Atom       -0.007605      0.004383     -0.002979
     5   Atom       -0.007606     -0.004385      0.002983
     6   Atom        0.000924     -0.000003      0.000002
     7   Atom       -0.000835      0.000004     -0.000037
     8   Atom        0.001008     -0.000020     -0.000040
     9   Atom        0.004863      0.000001      0.000008
    10   Atom        0.007882      0.000002      0.000001
    11   Atom       -0.004316      0.000006      0.000013
    12   Atom       -0.008517      0.000001     -0.000001
    13   Atom        0.000310      0.000001     -0.000022
    14   Atom        0.003004      0.000000      0.000000
    15   Atom       -0.002595     -0.000000      0.000000
    16   Atom        0.000851      0.000000     -0.000001
    17   Atom       -0.000408     -0.000189      0.000177
    18   Atom        0.005581      0.000006      0.000001
 --------------------------------------------------------


 ---------------------------------------------------------------------------------
              Anisotropic Spin Dipole Couplings in Principal Axis System
 ---------------------------------------------------------------------------------

       Atom             a.u.   MegaHertz   Gauss  10(-4) cm-1        Axes

              Baa    -0.3715   -49.850   -17.788   -16.628  0.5592  0.8290 -0.0001
     1 C(13)  Bbb    -0.3667   -49.210   -17.559   -16.415  0.8290 -0.5592  0.0001
              Bcc     0.7382    99.061    35.347    33.043  0.0000  0.0001  1.0000
 
              Baa    -0.0075    -1.013    -0.361    -0.338  0.7403  0.6723 -0.0003
     2 C(13)  Bbb    -0.0030    -0.405    -0.145    -0.135  0.0005 -0.0001  1.0000
              Bcc     0.0106     1.418     0.506     0.473 -0.6723  0.7403  0.0004
 
              Baa    -0.0056    -2.991    -1.067    -0.998  0.9447  0.3277 -0.0120
     3 H(1)   Bbb    -0.0055    -2.953    -1.054    -0.985  0.0112  0.0043  0.9999
              Bcc     0.0111     5.944     2.121     1.983 -0.3277  0.9448 -0.0003
 
              Baa    -0.0061    -3.271    -1.167    -1.091 -0.4903 -0.2090  0.8461
     4 H(1)   Bbb    -0.0058    -3.080    -1.099    -1.027  0.4045  0.8054  0.4333
              Bcc     0.0119     6.351     2.266     2.118  0.7720 -0.5547  0.3104
 
              Baa    -0.0061    -3.271    -1.167    -1.091  0.4942  0.2153  0.8423
     5 H(1)   Bbb    -0.0058    -3.078    -1.098    -1.027  0.4007  0.8034 -0.4405
              Bcc     0.0119     6.349     2.265     2.118  0.7715 -0.5552 -0.3107
 
              Baa    -0.1027   -13.777    -4.916    -4.595  0.0000 -0.0000  1.0000
     6 C(13)  Bbb     0.0383     5.141     1.834     1.715 -0.0355  0.9994  0.0000
              Bcc     0.0644     8.636     3.082     2.881  0.9994  0.0355 -0.0000
 
              Baa    -0.1147   -15.385    -5.490    -5.132  0.2148  0.9767  0.0001
     7 C(13)  Bbb    -0.1107   -14.851    -5.299    -4.954  0.9767 -0.2148 -0.0000
              Bcc     0.2253    30.237    10.789    10.086  0.0000 -0.0001  1.0000
 
              Baa    -0.1126   -15.105    -5.390    -5.039 -0.3191  0.9477  0.0001
     8 C(13)  Bbb    -0.1092   -14.658    -5.230    -4.889  0.9477  0.3191  0.0001
              Bcc     0.2218    29.763    10.620     9.928 -0.0001 -0.0001  1.0000
 
              Baa    -0.0988   -13.258    -4.731    -4.422 -0.0000 -0.0001  1.0000
     9 C(13)  Bbb     0.0427     5.733     2.046     1.912 -0.3969  0.9179  0.0001
              Bcc     0.0561     7.525     2.685     2.510  0.9179  0.3969  0.0000
 
              Baa    -0.0092    -4.932    -1.760    -1.645  0.9232 -0.3844 -0.0002
    10 H(1)   Bbb    -0.0037    -1.987    -0.709    -0.663  0.0002 -0.0002  1.0000
              Bcc     0.0130     6.919     2.469     2.308  0.3844  0.9232  0.0001
 
              Baa    -0.0971   -13.025    -4.648    -4.345 -0.0000 -0.0001  1.0000
    11 C(13)  Bbb     0.0423     5.674     2.025     1.893  0.3722  0.9282  0.0001
              Bcc     0.0548     7.351     2.623     2.452  0.9282 -0.3722  0.0000
 
              Baa    -0.0104    -5.522    -1.971    -1.842  0.9244  0.3815 -0.0001
    12 H(1)   Bbb    -0.0035    -1.841    -0.657    -0.614  0.0000  0.0001  1.0000
              Bcc     0.0138     7.363     2.627     2.456 -0.3815  0.9244 -0.0001
 
              Baa    -0.1368   -18.353    -6.549    -6.122 -0.0260  0.9997  0.0001
    13 C(13)  Bbb    -0.1248   -16.754    -5.978    -5.588  0.9997  0.0260 -0.0000
              Bcc     0.2616    35.107    12.527    11.710  0.0000 -0.0001  1.0000
 
              Baa    -0.0041    -2.213    -0.790    -0.738 -0.0000 -0.0000  1.0000
    14 H(1)   Bbb    -0.0021    -1.115    -0.398    -0.372 -0.3921  0.9199  0.0000
              Bcc     0.0062     3.328     1.187     1.110  0.9199  0.3921  0.0000
 
              Baa    -0.0040    -2.161    -0.771    -0.721  0.0000 -0.0000  1.0000
    15 H(1)   Bbb    -0.0020    -1.051    -0.375    -0.351  0.3463  0.9381 -0.0000
              Bcc     0.0060     3.211     1.146     1.071  0.9381 -0.3463 -0.0000
 
              Baa    -0.0189   -10.062    -3.590    -3.356 -0.0225  0.9997  0.0001
    16 H(1)   Bbb    -0.0001    -0.077    -0.027    -0.026  0.0000 -0.0001  1.0000
              Bcc     0.0190    10.139     3.618     3.382  0.9997  0.0225  0.0000
 
              Baa    -0.2738    19.815     7.070     6.610  0.0173  0.9998 -0.0002
    17 O(17)  Bbb    -0.2503    18.113     6.463     6.042  0.9998 -0.0173  0.0002
              Bcc     0.5242   -37.927   -13.533   -12.651 -0.0002  0.0002  1.0000
 
              Baa    -0.0172    -9.174    -3.274    -3.060 -0.1233  0.9924 -0.0001
    18 H(1)   Bbb    -0.0112    -5.989    -2.137    -1.998 -0.0002  0.0001  1.0000
              Bcc     0.0284    15.164     5.411     5.058  0.9924  0.1233  0.0002
 

 ---------------------------------------------------------------------------------

 No NMR shielding tensors so no spin-rotation constants.
 Leave Link  601 at Thu May 16 17:29:03 2019, MaxMem=   104857600 cpu:               6.8 elap:               0.2
 (Enter /opt/software/gaussian/g16.b01/l9999.exe)
 1\1\GINC-GRA795\FOpt\UB3LYP\6-31G(d,p)\C8H9O1(2)\HPHAM196\16-May-2019\
 0\\#p opt=modredundant ub3lyp/6-31g(d,p) scrf=(iefpcm,solvent=acetonit
 rile) empiricaldispersion=gd3\\Title Card Required\\0,2\C,-2.667747838
 ,0.0308991109,-0.5186569377\C,-2.975811662,-0.7300016862,-1.7662869358
 \H,-2.2955871028,-0.4909200621,-2.5827438561\H,-2.9150943723,-1.812926
 3391,-1.5880840678\H,-3.9977810828,-0.5176771087,-2.1108193946\C,-1.63
 28955928,0.9773870332,-0.3203453514\C,-1.47024675,1.6235950521,0.94506
 99946\C,-0.7113980789,1.3333920565,-1.3517061938\C,-0.4606765785,2.552
 0181206,1.1511857024\H,-2.151894996,1.3776186023,1.7510127079\C,0.2919
 729321,2.2643749991,-1.126402343\H,-0.7888134921,0.8739969441,-2.33112
 22365\C,0.4333695341,2.8863718133,0.1232314232\H,-0.3647211503,3.02489
 496,2.1251862278\H,0.9760189932,2.5118568304,-1.9338003846\H,1.2212992
 484,3.6138244542,0.2911600164\O,-3.4796558646,-0.2141603277,0.55894098
 99\H,-4.1474439369,-0.8706665028,0.318410419\\Version=ES64L-G16RevB.01
 \State=2-A\HF=-385.4878348\S2=0.775672\S2-1=0.\S2A=0.75046\RMSD=8.039e
 -09\RMSF=5.705e-06\Dipole=-0.7728879,-0.9072657,-0.64464\Quadrupole=1.
 2574348,0.1298534,-1.3872882,6.4160298,0.4658712,2.3204532\PG=C01 [X(C
 8H9O1)]\\@


 MISERY NO LONGER LOVES COMPANY.  NOWADAYS IT INSISTS ON IT.

                                              -- BAKER'S LAW
 Job cpu time:       0 days  2 hours  8 minutes 29.9 seconds.
 Elapsed time:       0 days  0 hours  4 minutes 14.6 seconds.
 File lengths (MBytes):  RWF=    107 Int=      0 D2E=      0 Chk=      7 Scr=      1
 Normal termination of Gaussian 16 at Thu May 16 17:29:03 2019.
