 Entering Gaussian System, Link 0=g16
 Initial command:
 /project/6004141/group/g16/g16/l1.exe "/scratch/rzk/Gau-20760.inp" -scrdir="/scratch/rzk/"
 Entering Link 1 = /project/6004141/group/g16/g16/l1.exe PID=     20761.
  
 Copyright (c) 1988,1990,1992,1993,1995,1998,2003,2009,2016,
            Gaussian, Inc.  All Rights Reserved.
  
 This is part of the Gaussian(R) 16 program.  It is based on
 the Gaussian(R) 09 system (copyright 2009, Gaussian, Inc.),
 the Gaussian(R) 03 system (copyright 2003, Gaussian, Inc.),
 the Gaussian(R) 98 system (copyright 1998, Gaussian, Inc.),
 the Gaussian(R) 94 system (copyright 1995, Gaussian, Inc.),
 the Gaussian 92(TM) system (copyright 1992, Gaussian, Inc.),
 the Gaussian 90(TM) system (copyright 1990, Gaussian, Inc.),
 the Gaussian 88(TM) system (copyright 1988, Gaussian, Inc.),
 the Gaussian 86(TM) system (copyright 1986, Carnegie Mellon
 University), and the Gaussian 82(TM) system (copyright 1983,
 Carnegie Mellon University). Gaussian is a federally registered
 trademark of Gaussian, Inc.
  
 This software contains proprietary and confidential information,
 including trade secrets, belonging to Gaussian, Inc.
  
 This software is provided under written license and may be
 used, copied, transmitted, or stored only in accord with that
 written license.
  
 The following legend is applicable only to US Government
 contracts under FAR:
  
                    RESTRICTED RIGHTS LEGEND
  
 Use, reproduction and disclosure by the US Government is
 subject to restrictions as set forth in subparagraphs (a)
 and (c) of the Commercial Computer Software - Restricted
 Rights clause in FAR 52.227-19.
  
 Gaussian, Inc.
 340 Quinnipiac St., Bldg. 40, Wallingford CT 06492
  
  
 ---------------------------------------------------------------
 Warning -- This program may not be used in any manner that
 competes with the business of Gaussian, Inc. or will provide
 assistance to any competitor of Gaussian, Inc.  The licensee
 of this program is prohibited from giving any competitor of
 Gaussian, Inc. access to this program.  By using this program,
 the user acknowledges that Gaussian, Inc. is engaged in the
 business of creating and licensing software in the field of
 computational chemistry and represents and warrants to the
 licensee that it is not a competitor of Gaussian, Inc. and that
 it will not use this program in any manner prohibited above.
 ---------------------------------------------------------------
  

 Cite this work as:
 Gaussian 16, Revision A.03,
 M. J. Frisch, G. W. Trucks, H. B. Schlegel, G. E. Scuseria, 
 M. A. Robb, J. R. Cheeseman, G. Scalmani, V. Barone, 
 G. A. Petersson, H. Nakatsuji, X. Li, M. Caricato, A. V. Marenich, 
 J. Bloino, B. G. Janesko, R. Gomperts, B. Mennucci, H. P. Hratchian, 
 J. V. Ortiz, A. F. Izmaylov, J. L. Sonnenberg, D. Williams-Young, 
 F. Ding, F. Lipparini, F. Egidi, J. Goings, B. Peng, A. Petrone, 
 T. Henderson, D. Ranasinghe, V. G. Zakrzewski, J. Gao, N. Rega, 
 G. Zheng, W. Liang, M. Hada, M. Ehara, K. Toyota, R. Fukuda, 
 J. Hasegawa, M. Ishida, T. Nakajima, Y. Honda, O. Kitao, H. Nakai, 
 T. Vreven, K. Throssell, J. A. Montgomery, Jr., J. E. Peralta, 
 F. Ogliaro, M. J. Bearpark, J. J. Heyd, E. N. Brothers, K. N. Kudin, 
 V. N. Staroverov, T. A. Keith, R. Kobayashi, J. Normand, 
 K. Raghavachari, A. P. Rendell, J. C. Burant, S. S. Iyengar, 
 J. Tomasi, M. Cossi, J. M. Millam, M. Klene, C. Adamo, R. Cammi, 
 J. W. Ochterski, R. L. Martin, K. Morokuma, O. Farkas, 
 J. B. Foresman, and D. J. Fox, Gaussian, Inc., Wallingford CT, 2016.
 
 ******************************************
 Gaussian 16:  ES64L-G16RevA.03 25-Dec-2016
                 2-Jun-2019 
 ******************************************
 %NProcShared=40
 Will use up to   40 processors via shared memory.
 %chk=AABH.chk
 ----------------------------------------------------------------------
 #p opt ub3lyp/6-31g(d,p) scrf=(iefpcm,solvent=acetonitrile) guess=(mix
 ,always) empiricaldispersion=gd3
 ----------------------------------------------------------------------
 1/18=20,19=15,26=3,38=1/1,3;
 2/9=110,12=2,17=6,18=5,40=1/2;
 3/5=1,6=6,7=101,11=2,25=1,30=1,70=2201,71=1,72=2,74=-5,116=2,124=31/1,2,3;
 4/13=-1/1;
 5/5=2,38=5,53=2/2;
 6/7=2,8=2,9=2,10=2,28=1/1;
 7//1,2,3,16;
 1/18=20,19=15,26=3/3(2);
 2/9=110/2;
 99//99;
 2/9=110/2;
 3/5=1,6=6,7=101,11=2,25=1,30=1,70=2205,71=1,72=2,74=-5,116=2,124=31/1,2,3;
 4/13=-1/1;
 5/5=2,38=5,53=2/2;
 7//1,2,3,16;
 1/18=20,19=15,26=3/3(-5);
 2/9=110/2;
 6/7=2,8=2,9=2,10=2,19=2,28=1/1;
 99/9=1/99;
 Leave Link    1 at Sun Jun  2 11:01:43 2019, MaxMem=           0 cpu:              11.9 elap:               0.3
 (Enter /project/6004141/group/g16/g16/l101.exe)
 -------------------
 Title Card Required
 -------------------
 Symbolic Z-matrix:
 Charge =  0 Multiplicity = 1
 C                     1.06434  -1.41763  -0.65518 
 H                     4.13465  -0.35806   1.30058 
 C                     1.06477   1.41046   0.67728 
 O                     1.93105   1.86872  -0.1838 
 O                     1.92153  -1.87368   0.24446 
 N                     4.09504   0.60763  -0.34443 
 H                     4.11958   0.37891  -1.34533 
 N                     4.1533   -0.58789   0.29849 
 H                     2.84161  -1.49888   0.13058 
 H                     2.85207   1.475    -0.10817 
 C                     1.58849  -0.81971  -1.9247 
 H                     0.96088  -1.08914  -2.77648 
 H                     1.62845   0.27554  -1.87214 
 H                     2.60011  -1.18281  -2.11653 
 C                     1.55227   0.78106   1.94455 
 H                     0.97504   1.13543   2.80164 
 H                     1.45605  -0.31074   1.90336 
 H                     2.60169   1.02651   2.11016 
 C                    -0.33005  -1.62315  -0.39023 
 C                    -0.74672  -2.24131   0.81856 
 C                    -1.33112  -1.19936  -1.30167 
 C                    -2.09399  -2.45364   1.07895 
 H                     0.00521  -2.56103   1.5306 
 C                    -2.67552  -1.41586  -1.02751 
 H                    -1.05497  -0.68615  -2.21501 
 C                    -3.06786  -2.0517    0.15536 
 H                    -2.39141  -2.93475   2.00593 
 H                    -3.42514  -1.07749  -1.73599 
 H                    -4.11984  -2.22175   0.36186 
 C                    -0.32501   1.62083   0.391 
 C                    -0.72128   2.24834  -0.8175 
 C                    -1.33383   1.19815   1.29247 
 C                    -2.06371   2.47007  -1.0903 
 H                     0.03976   2.56421  -1.52129 
 C                    -2.67322   1.42357   1.00617 
 H                    -1.06848   0.68388   2.20788 
 C                    -3.04699   2.06827  -0.17738 
 H                    -2.34939   2.95886  -2.01673 
 H                    -3.43232   1.08803   1.70527 
 H                    -4.09593   2.24554  -0.39315 
 
 Add virtual bond connecting atoms H10        and N6         Dist= 2.90D+00.
 Add virtual bond connecting atoms H9         and N8         Dist= 3.03D+00.
 ITRead=  0  0  0  0  0  0  0  0  0  0  0  0  0  0  0  0  0  0  0  0
 ITRead=  0  0  0  0  0  0  0  0  0  0  0  0  0  0  0  0  0  0  0  0
 MicOpt= -1 -1 -1 -1 -1 -1 -1 -1 -1 -1 -1 -1 -1 -1 -1 -1 -1 -1 -1 -1
 MicOpt= -1 -1 -1 -1 -1 -1 -1 -1 -1 -1 -1 -1 -1 -1 -1 -1 -1 -1 -1 -1
 NAtoms=     40 NQM=       40 NQMF=       0 NMMI=      0 NMMIF=      0
                NMic=       0 NMicF=      0.
                    Isotopes and Nuclear Properties:
 (Nuclear quadrupole moments (NQMom) in fm**2, nuclear magnetic moments (NMagM)
  in nuclear magnetons)

  Atom         1           2           3           4           5           6           7           8           9          10
 IAtWgt=          12           1          12          16          16          14           1          14           1           1
 AtmWgt=  12.0000000   1.0078250  12.0000000  15.9949146  15.9949146  14.0030740   1.0078250  14.0030740   1.0078250   1.0078250
 NucSpn=           0           1           0           0           0           2           1           2           1           1
 AtZEff=  -0.0000000  -0.0000000  -0.0000000  -0.0000000  -0.0000000  -0.0000000  -0.0000000  -0.0000000  -0.0000000  -0.0000000
 NQMom=    0.0000000   0.0000000   0.0000000   0.0000000   0.0000000   2.0440000   0.0000000   2.0440000   0.0000000   0.0000000
 NMagM=    0.0000000   2.7928460   0.0000000   0.0000000   0.0000000   0.4037610   2.7928460   0.4037610   2.7928460   2.7928460
 AtZNuc=   6.0000000   1.0000000   6.0000000   8.0000000   8.0000000   7.0000000   1.0000000   7.0000000   1.0000000   1.0000000

  Atom        11          12          13          14          15          16          17          18          19          20
 IAtWgt=          12           1           1           1          12           1           1           1          12          12
 AtmWgt=  12.0000000   1.0078250   1.0078250   1.0078250  12.0000000   1.0078250   1.0078250   1.0078250  12.0000000  12.0000000
 NucSpn=           0           1           1           1           0           1           1           1           0           0
 AtZEff=  -0.0000000  -0.0000000  -0.0000000  -0.0000000  -0.0000000  -0.0000000  -0.0000000  -0.0000000  -0.0000000  -0.0000000
 NQMom=    0.0000000   0.0000000   0.0000000   0.0000000   0.0000000   0.0000000   0.0000000   0.0000000   0.0000000   0.0000000
 NMagM=    0.0000000   2.7928460   2.7928460   2.7928460   0.0000000   2.7928460   2.7928460   2.7928460   0.0000000   0.0000000
 AtZNuc=   6.0000000   1.0000000   1.0000000   1.0000000   6.0000000   1.0000000   1.0000000   1.0000000   6.0000000   6.0000000

  Atom        21          22          23          24          25          26          27          28          29          30
 IAtWgt=          12          12           1          12           1          12           1           1           1          12
 AtmWgt=  12.0000000  12.0000000   1.0078250  12.0000000   1.0078250  12.0000000   1.0078250   1.0078250   1.0078250  12.0000000
 NucSpn=           0           0           1           0           1           0           1           1           1           0
 AtZEff=  -0.0000000  -0.0000000  -0.0000000  -0.0000000  -0.0000000  -0.0000000  -0.0000000  -0.0000000  -0.0000000  -0.0000000
 NQMom=    0.0000000   0.0000000   0.0000000   0.0000000   0.0000000   0.0000000   0.0000000   0.0000000   0.0000000   0.0000000
 NMagM=    0.0000000   0.0000000   2.7928460   0.0000000   2.7928460   0.0000000   2.7928460   2.7928460   2.7928460   0.0000000
 AtZNuc=   6.0000000   6.0000000   1.0000000   6.0000000   1.0000000   6.0000000   1.0000000   1.0000000   1.0000000   6.0000000

  Atom        31          32          33          34          35          36          37          38          39          40
 IAtWgt=          12          12          12           1          12           1          12           1           1           1
 AtmWgt=  12.0000000  12.0000000  12.0000000   1.0078250  12.0000000   1.0078250  12.0000000   1.0078250   1.0078250   1.0078250
 NucSpn=           0           0           0           1           0           1           0           1           1           1
 AtZEff=  -0.0000000  -0.0000000  -0.0000000  -0.0000000  -0.0000000  -0.0000000  -0.0000000  -0.0000000  -0.0000000  -0.0000000
 NQMom=    0.0000000   0.0000000   0.0000000   0.0000000   0.0000000   0.0000000   0.0000000   0.0000000   0.0000000   0.0000000
 NMagM=    0.0000000   0.0000000   0.0000000   2.7928460   0.0000000   2.7928460   0.0000000   2.7928460   2.7928460   2.7928460
 AtZNuc=   6.0000000   6.0000000   6.0000000   1.0000000   6.0000000   1.0000000   6.0000000   1.0000000   1.0000000   1.0000000
 Leave Link  101 at Sun Jun  2 11:01:44 2019, MaxMem=   104857600 cpu:               8.5 elap:               0.3
 (Enter /project/6004141/group/g16/g16/l103.exe)

 GradGradGradGradGradGradGradGradGradGradGradGradGradGradGradGradGradGrad
 Berny optimization.
 Initialization pass.
                           ----------------------------
                           !    Initial Parameters    !
                           ! (Angstroms and Degrees)  !
 --------------------------                            --------------------------
 ! Name  Definition              Value          Derivative Info.                !
 --------------------------------------------------------------------------------
 ! R1    R(1,5)                  1.3237         estimate D2E/DX2                !
 ! R2    R(1,11)                 1.498          estimate D2E/DX2                !
 ! R3    R(1,19)                 1.4341         estimate D2E/DX2                !
 ! R4    R(2,8)                  1.0283         estimate D2E/DX2                !
 ! R5    R(3,4)                  1.3046         estimate D2E/DX2                !
 ! R6    R(3,15)                 1.4966         estimate D2E/DX2                !
 ! R7    R(3,30)                 1.4345         estimate D2E/DX2                !
 ! R8    R(4,10)                 1.0045         estimate D2E/DX2                !
 ! R9    R(5,9)                  1.0            estimate D2E/DX2                !
 ! R10   R(6,7)                  1.027          estimate D2E/DX2                !
 ! R11   R(6,8)                  1.3587         estimate D2E/DX2                !
 ! R12   R(6,10)                 1.534          estimate D2E/DX2                !
 ! R13   R(8,9)                  1.6058         estimate D2E/DX2                !
 ! R14   R(11,12)                1.0918         estimate D2E/DX2                !
 ! R15   R(11,13)                1.0972         estimate D2E/DX2                !
 ! R16   R(11,14)                1.0918         estimate D2E/DX2                !
 ! R17   R(15,16)                1.0924         estimate D2E/DX2                !
 ! R18   R(15,17)                1.0968         estimate D2E/DX2                !
 ! R19   R(15,18)                1.0904         estimate D2E/DX2                !
 ! R20   R(19,20)                1.4202         estimate D2E/DX2                !
 ! R21   R(19,21)                1.4186         estimate D2E/DX2                !
 ! R22   R(20,22)                1.3885         estimate D2E/DX2                !
 ! R23   R(20,23)                1.0838         estimate D2E/DX2                !
 ! R24   R(21,24)                1.389          estimate D2E/DX2                !
 ! R25   R(21,25)                1.0834         estimate D2E/DX2                !
 ! R26   R(22,26)                1.4011         estimate D2E/DX2                !
 ! R27   R(22,27)                1.0859         estimate D2E/DX2                !
 ! R28   R(24,26)                1.3991         estimate D2E/DX2                !
 ! R29   R(24,28)                1.0855         estimate D2E/DX2                !
 ! R30   R(26,29)                1.0855         estimate D2E/DX2                !
 ! R31   R(30,31)                1.4182         estimate D2E/DX2                !
 ! R32   R(30,32)                1.4174         estimate D2E/DX2                !
 ! R33   R(31,33)                1.3877         estimate D2E/DX2                !
 ! R34   R(31,34)                1.0836         estimate D2E/DX2                !
 ! R35   R(32,35)                1.3881         estimate D2E/DX2                !
 ! R36   R(32,36)                1.083          estimate D2E/DX2                !
 ! R37   R(33,37)                1.4006         estimate D2E/DX2                !
 ! R38   R(33,38)                1.0857         estimate D2E/DX2                !
 ! R39   R(35,37)                1.3986         estimate D2E/DX2                !
 ! R40   R(35,39)                1.0852         estimate D2E/DX2                !
 ! R41   R(37,40)                1.0855         estimate D2E/DX2                !
 ! A1    A(5,1,11)             119.1392         estimate D2E/DX2                !
 ! A2    A(5,1,19)             117.0452         estimate D2E/DX2                !
 ! A3    A(11,1,19)            123.6404         estimate D2E/DX2                !
 ! A4    A(4,3,15)             119.363          estimate D2E/DX2                !
 ! A5    A(4,3,30)             117.3943         estimate D2E/DX2                !
 ! A6    A(15,3,30)            123.1104         estimate D2E/DX2                !
 ! A7    A(3,4,10)             114.9275         estimate D2E/DX2                !
 ! A8    A(1,5,9)              112.911          estimate D2E/DX2                !
 ! A9    A(7,6,8)              105.319          estimate D2E/DX2                !
 ! A10   A(7,6,10)             107.1813         estimate D2E/DX2                !
 ! A11   A(8,6,10)             117.3482         estimate D2E/DX2                !
 ! A12   A(2,8,6)              105.2898         estimate D2E/DX2                !
 ! A13   A(2,8,9)              102.3507         estimate D2E/DX2                !
 ! A14   A(6,8,9)              114.4991         estimate D2E/DX2                !
 ! A15   A(5,9,8)              162.2281         estimate D2E/DX2                !
 ! A16   A(4,10,6)             162.3596         estimate D2E/DX2                !
 ! A17   A(1,11,12)            111.1949         estimate D2E/DX2                !
 ! A18   A(1,11,13)            111.7505         estimate D2E/DX2                !
 ! A19   A(1,11,14)            109.8993         estimate D2E/DX2                !
 ! A20   A(12,11,13)           107.7367         estimate D2E/DX2                !
 ! A21   A(12,11,14)           108.2692         estimate D2E/DX2                !
 ! A22   A(13,11,14)           107.8572         estimate D2E/DX2                !
 ! A23   A(3,15,16)            110.8435         estimate D2E/DX2                !
 ! A24   A(3,15,17)            110.9942         estimate D2E/DX2                !
 ! A25   A(3,15,18)            110.331          estimate D2E/DX2                !
 ! A26   A(16,15,17)           107.8192         estimate D2E/DX2                !
 ! A27   A(16,15,18)           108.4424         estimate D2E/DX2                !
 ! A28   A(17,15,18)           108.313          estimate D2E/DX2                !
 ! A29   A(1,19,20)            120.3239         estimate D2E/DX2                !
 ! A30   A(1,19,21)            121.6411         estimate D2E/DX2                !
 ! A31   A(20,19,21)           118.0245         estimate D2E/DX2                !
 ! A32   A(19,20,22)           120.7204         estimate D2E/DX2                !
 ! A33   A(19,20,23)           118.9497         estimate D2E/DX2                !
 ! A34   A(22,20,23)           120.3224         estimate D2E/DX2                !
 ! A35   A(19,21,24)           120.6377         estimate D2E/DX2                !
 ! A36   A(19,21,25)           120.2164         estimate D2E/DX2                !
 ! A37   A(24,21,25)           119.1377         estimate D2E/DX2                !
 ! A38   A(20,22,26)           120.4609         estimate D2E/DX2                !
 ! A39   A(20,22,27)           119.5761         estimate D2E/DX2                !
 ! A40   A(26,22,27)           119.963          estimate D2E/DX2                !
 ! A41   A(21,24,26)           120.6059         estimate D2E/DX2                !
 ! A42   A(21,24,28)           119.4034         estimate D2E/DX2                !
 ! A43   A(26,24,28)           119.9876         estimate D2E/DX2                !
 ! A44   A(22,26,24)           119.524          estimate D2E/DX2                !
 ! A45   A(22,26,29)           120.2189         estimate D2E/DX2                !
 ! A46   A(24,26,29)           120.253          estimate D2E/DX2                !
 ! A47   A(3,30,31)            120.375          estimate D2E/DX2                !
 ! A48   A(3,30,32)            121.2591         estimate D2E/DX2                !
 ! A49   A(31,30,32)           118.3622         estimate D2E/DX2                !
 ! A50   A(30,31,33)           120.5653         estimate D2E/DX2                !
 ! A51   A(30,31,34)           119.0899         estimate D2E/DX2                !
 ! A52   A(33,31,34)           120.3406         estimate D2E/DX2                !
 ! A53   A(30,32,35)           120.475          estimate D2E/DX2                !
 ! A54   A(30,32,36)           120.3189         estimate D2E/DX2                !
 ! A55   A(35,32,36)           119.2017         estimate D2E/DX2                !
 ! A56   A(31,33,37)           120.3423         estimate D2E/DX2                !
 ! A57   A(31,33,38)           119.6185         estimate D2E/DX2                !
 ! A58   A(37,33,38)           120.0392         estimate D2E/DX2                !
 ! A59   A(32,35,37)           120.4825         estimate D2E/DX2                !
 ! A60   A(32,35,39)           119.4654         estimate D2E/DX2                !
 ! A61   A(37,35,39)           120.0503         estimate D2E/DX2                !
 ! A62   A(33,37,35)           119.7483         estimate D2E/DX2                !
 ! A63   A(33,37,40)           120.1316         estimate D2E/DX2                !
 ! A64   A(35,37,40)           120.1158         estimate D2E/DX2                !
 ! D1    D(11,1,5,9)            19.6631         estimate D2E/DX2                !
 ! D2    D(19,1,5,9)          -164.9704         estimate D2E/DX2                !
 ! D3    D(5,1,11,12)          141.9668         estimate D2E/DX2                !
 ! D4    D(5,1,11,13)          -97.6022         estimate D2E/DX2                !
 ! D5    D(5,1,11,14)           22.1028         estimate D2E/DX2                !
 ! D6    D(19,1,11,12)         -33.0755         estimate D2E/DX2                !
 ! D7    D(19,1,11,13)          87.3556         estimate D2E/DX2                !
 ! D8    D(19,1,11,14)        -152.9395         estimate D2E/DX2                !
 ! D9    D(5,1,19,20)            2.558          estimate D2E/DX2                !
 ! D10   D(5,1,19,21)         -178.6486         estimate D2E/DX2                !
 ! D11   D(11,1,19,20)         177.6963         estimate D2E/DX2                !
 ! D12   D(11,1,19,21)          -3.5103         estimate D2E/DX2                !
 ! D13   D(15,3,4,10)           21.7781         estimate D2E/DX2                !
 ! D14   D(30,3,4,10)         -162.2725         estimate D2E/DX2                !
 ! D15   D(4,3,15,16)          135.4375         estimate D2E/DX2                !
 ! D16   D(4,3,15,17)         -104.7719         estimate D2E/DX2                !
 ! D17   D(4,3,15,18)           15.3008         estimate D2E/DX2                !
 ! D18   D(30,3,15,16)         -40.2685         estimate D2E/DX2                !
 ! D19   D(30,3,15,17)          79.5221         estimate D2E/DX2                !
 ! D20   D(30,3,15,18)        -160.4053         estimate D2E/DX2                !
 ! D21   D(4,3,30,31)            2.9078         estimate D2E/DX2                !
 ! D22   D(4,3,30,32)         -177.7978         estimate D2E/DX2                !
 ! D23   D(15,3,30,31)         178.693          estimate D2E/DX2                !
 ! D24   D(15,3,30,32)          -2.0126         estimate D2E/DX2                !
 ! D25   D(3,4,10,6)            98.2516         estimate D2E/DX2                !
 ! D26   D(1,5,9,8)             96.9163         estimate D2E/DX2                !
 ! D27   D(7,6,8,2)            179.6551         estimate D2E/DX2                !
 ! D28   D(7,6,8,9)            -68.7364         estimate D2E/DX2                !
 ! D29   D(10,6,8,2)           -61.2345         estimate D2E/DX2                !
 ! D30   D(10,6,8,9)            50.374          estimate D2E/DX2                !
 ! D31   D(7,6,10,4)            31.942          estimate D2E/DX2                !
 ! D32   D(8,6,10,4)           -86.1732         estimate D2E/DX2                !
 ! D33   D(2,8,9,5)             33.8663         estimate D2E/DX2                !
 ! D34   D(6,8,9,5)            -79.4895         estimate D2E/DX2                !
 ! D35   D(1,19,20,22)        -179.5021         estimate D2E/DX2                !
 ! D36   D(1,19,20,23)          -0.4977         estimate D2E/DX2                !
 ! D37   D(21,19,20,22)          1.6615         estimate D2E/DX2                !
 ! D38   D(21,19,20,23)       -179.334          estimate D2E/DX2                !
 ! D39   D(1,19,21,24)         179.6327         estimate D2E/DX2                !
 ! D40   D(1,19,21,25)          -1.4133         estimate D2E/DX2                !
 ! D41   D(20,19,21,24)         -1.5472         estimate D2E/DX2                !
 ! D42   D(20,19,21,25)        177.4069         estimate D2E/DX2                !
 ! D43   D(19,20,22,26)         -0.4673         estimate D2E/DX2                !
 ! D44   D(19,20,22,27)        179.5401         estimate D2E/DX2                !
 ! D45   D(23,20,22,26)       -179.4581         estimate D2E/DX2                !
 ! D46   D(23,20,22,27)          0.5493         estimate D2E/DX2                !
 ! D47   D(19,21,24,26)          0.2392         estimate D2E/DX2                !
 ! D48   D(19,21,24,28)        179.6029         estimate D2E/DX2                !
 ! D49   D(25,21,24,26)       -178.7259         estimate D2E/DX2                !
 ! D50   D(25,21,24,28)          0.6377         estimate D2E/DX2                !
 ! D51   D(20,22,26,24)         -0.8812         estimate D2E/DX2                !
 ! D52   D(20,22,26,29)        179.8539         estimate D2E/DX2                !
 ! D53   D(27,22,26,24)        179.1114         estimate D2E/DX2                !
 ! D54   D(27,22,26,29)         -0.1535         estimate D2E/DX2                !
 ! D55   D(21,24,26,22)          0.996          estimate D2E/DX2                !
 ! D56   D(21,24,26,29)       -179.7393         estimate D2E/DX2                !
 ! D57   D(28,24,26,22)       -178.3639         estimate D2E/DX2                !
 ! D58   D(28,24,26,29)          0.9008         estimate D2E/DX2                !
 ! D59   D(3,30,31,33)        -179.1271         estimate D2E/DX2                !
 ! D60   D(3,30,31,34)           0.1261         estimate D2E/DX2                !
 ! D61   D(32,30,31,33)          1.5584         estimate D2E/DX2                !
 ! D62   D(32,30,31,34)       -179.1885         estimate D2E/DX2                !
 ! D63   D(3,30,32,35)         179.2656         estimate D2E/DX2                !
 ! D64   D(3,30,32,36)          -1.5019         estimate D2E/DX2                !
 ! D65   D(31,30,32,35)         -1.4262         estimate D2E/DX2                !
 ! D66   D(31,30,32,36)        177.8063         estimate D2E/DX2                !
 ! D67   D(30,31,33,37)         -0.412          estimate D2E/DX2                !
 ! D68   D(30,31,33,38)        179.5167         estimate D2E/DX2                !
 ! D69   D(34,31,33,37)       -179.6557         estimate D2E/DX2                !
 ! D70   D(34,31,33,38)          0.2729         estimate D2E/DX2                !
 ! D71   D(30,32,35,37)          0.1483         estimate D2E/DX2                !
 ! D72   D(30,32,35,39)        179.6537         estimate D2E/DX2                !
 ! D73   D(36,32,35,37)       -179.0927         estimate D2E/DX2                !
 ! D74   D(36,32,35,39)          0.4127         estimate D2E/DX2                !
 ! D75   D(31,33,37,35)         -0.8987         estimate D2E/DX2                !
 ! D76   D(31,33,37,40)        179.8538         estimate D2E/DX2                !
 ! D77   D(38,33,37,35)        179.1729         estimate D2E/DX2                !
 ! D78   D(38,33,37,40)         -0.0746         estimate D2E/DX2                !
 ! D79   D(32,35,37,33)          1.0314         estimate D2E/DX2                !
 ! D80   D(32,35,37,40)       -179.7209         estimate D2E/DX2                !
 ! D81   D(39,35,37,33)       -178.4711         estimate D2E/DX2                !
 ! D82   D(39,35,37,40)          0.7766         estimate D2E/DX2                !
 --------------------------------------------------------------------------------
 Trust Radius=3.00D-01 FncErr=1.00D-07 GrdErr=1.00D-06 EigMax=2.50D+02 EigMin=1.00D-04
 Number of steps in this run=    197 maximum allowed number of steps=    240.
 GradGradGradGradGradGradGradGradGradGradGradGradGradGradGradGradGradGrad

 Leave Link  103 at Sun Jun  2 11:01:44 2019, MaxMem=   104857600 cpu:               5.1 elap:               0.2
 (Enter /project/6004141/group/g16/g16/l202.exe)
                          Input orientation:                          
 ---------------------------------------------------------------------
 Center     Atomic      Atomic             Coordinates (Angstroms)
 Number     Number       Type             X           Y           Z
 ---------------------------------------------------------------------
      1          6           0        1.064341   -1.417625   -0.655177
      2          1           0        4.134654   -0.358055    1.300576
      3          6           0        1.064772    1.410464    0.677275
      4          8           0        1.931045    1.868720   -0.183800
      5          8           0        1.921527   -1.873676    0.244462
      6          7           0        4.095037    0.607628   -0.344430
      7          1           0        4.119583    0.378912   -1.345332
      8          7           0        4.153296   -0.587885    0.298494
      9          1           0        2.841613   -1.498879    0.130581
     10          1           0        2.852068    1.475002   -0.108168
     11          6           0        1.588489   -0.819707   -1.924704
     12          1           0        0.960881   -1.089137   -2.776478
     13          1           0        1.628448    0.275544   -1.872135
     14          1           0        2.600114   -1.182811   -2.116535
     15          6           0        1.552270    0.781056    1.944545
     16          1           0        0.975039    1.135427    2.801641
     17          1           0        1.456052   -0.310744    1.903364
     18          1           0        2.601687    1.026506    2.110161
     19          6           0       -0.330048   -1.623154   -0.390226
     20          6           0       -0.746720   -2.241313    0.818563
     21          6           0       -1.331121   -1.199358   -1.301673
     22          6           0       -2.093986   -2.453637    1.078950
     23          1           0        0.005210   -2.561027    1.530600
     24          6           0       -2.675518   -1.415864   -1.027506
     25          1           0       -1.054975   -0.686150   -2.215011
     26          6           0       -3.067859   -2.051695    0.155364
     27          1           0       -2.391409   -2.934745    2.005932
     28          1           0       -3.425144   -1.077487   -1.735989
     29          1           0       -4.119840   -2.221748    0.361858
     30          6           0       -0.325014    1.620828    0.391003
     31          6           0       -0.721279    2.248339   -0.817500
     32          6           0       -1.333827    1.198145    1.292470
     33          6           0       -2.063708    2.470065   -1.090304
     34          1           0        0.039757    2.564207   -1.521285
     35          6           0       -2.673219    1.423570    1.006166
     36          1           0       -1.068479    0.683881    2.207876
     37          6           0       -3.046993    2.068273   -0.177376
     38          1           0       -2.349393    2.958859   -2.016725
     39          1           0       -3.432316    1.088025    1.705265
     40          1           0       -4.095925    2.245540   -0.393154
 ---------------------------------------------------------------------
                    Distance matrix (angstroms):
                    1          2          3          4          5
     1  C    0.000000
     2  H    3.791369   0.000000
     3  C    3.126262   3.597268   0.000000
     4  O    3.431244   3.466669   1.304560   0.000000
     5  O    1.323669   2.882779   3.421539   3.766832   0.000000
     6  N    3.658324   1.907920   3.297110   2.509784   3.350792
     7  H    3.610867   2.746666   3.806167   2.891087   3.526053
     8  N    3.337604   1.028269   3.698088   3.347524   2.576232
     9  H    1.944920   2.083824   3.452581   3.502669   1.000000
    10  H    3.444195   2.643801   1.953334   1.004499   3.493408
    11  C    1.497977   4.135034   3.466733   3.221138   2.434553
    12  H    2.149076   5.218207   4.264646   4.051187   3.265642
    13  H    2.160098   4.092507   2.846975   2.340993   3.030681
    14  H    2.132910   3.835581   4.109468   3.673549   2.551878
    15  C    3.439597   2.894992   1.496590   2.419987   3.173994
    16  H    4.298330   3.803531   2.143975   3.219398   4.060752
    17  H    2.815094   2.745997   2.149175   3.054822   2.326237
    18  H    3.998037   2.218654   2.136046   2.534037   3.514898
    19  C    1.434142   4.938912   3.505413   4.165134   2.352696
    20  C    2.475947   5.254218   4.078841   5.006748   2.753959
    21  C    2.490750   6.111807   4.058043   4.615677   3.664008
    22  C    3.749073   6.575450   5.007032   6.039717   4.142109
    23  H    2.684539   4.685969   4.198044   5.125492   2.408085
    24  C    3.758348   7.274433   4.988404   5.720206   4.791693
    25  H    2.731234   6.276882   4.153846   4.423742   4.039652
    26  C    4.258415   7.487064   5.416417   6.361897   4.993356
    27  H    4.617939   7.051692   5.708884   6.822889   4.778081
    28  H    4.630262   8.178561   5.672133   6.306995   5.756995
    29  H    5.343848   8.514177   6.338190   7.324130   6.052524
    30  C    3.500999   4.963057   1.434472   2.341293   4.156919
    31  C    4.080941   5.904204   2.475149   2.753272   5.010309
    32  C    4.048060   5.685605   2.485321   3.645330   4.596927
    33  C    5.008808   7.220406   3.746262   4.140219   6.044153
    34  H    4.201774   5.768076   2.686158   2.418582   5.133588
    35  C    4.980141   7.043295   3.752455   4.776340   5.706463
    36  H    4.142743   5.383439   2.724229   4.015109   4.397298
    37  C    5.411363   7.723177   4.250853   4.982040   6.356343
    38  H    5.714981   8.003079   4.616458   4.782276   6.834261
    39  H    5.663029   7.714529   4.624341   5.739660   6.290410
    40  H    6.333702   8.797151   5.336287   6.042366   7.320125
                    6          7          8          9         10
     6  N    0.000000
     7  H    1.026995   0.000000
     8  N    1.358675   1.907353   0.000000
     9  H    2.496814   2.708805   1.605807   0.000000
    10  H    1.533991   2.082926   2.472665   2.983468   0.000000
    11  C    3.288972   2.859859   3.402144   2.501158   3.187809
    12  H    4.314719   3.765733   4.460742   3.486550   4.155872
    13  H    2.920312   2.548325   3.439767   2.937893   2.459172
    14  H    2.929304   2.311389   2.932350   2.282050   3.340807
    15  C    3.425660   4.192387   3.368801   3.186059   2.526790
    16  H    4.462143   5.259074   4.397370   4.190254   3.479301
    17  H    3.586116   4.257235   3.150800   2.544446   3.030513
    18  H    2.903544   3.829337   2.880258   3.217743   2.277021
    19  C    4.955791   4.971892   4.652579   3.216538   4.450167
    20  C    5.736866   5.935396   5.197543   3.728359   5.255578
    21  C    5.798681   5.674770   5.745717   4.421852   5.106440
    22  C    7.049919   7.246304   6.566481   5.115770   6.427045
    23  H    5.502981   5.817413   4.755838   3.336674   5.203815
    24  C    7.099403   7.035313   7.005464   5.637978   6.305275
    25  H    5.629881   5.354134   5.783896   4.620144   4.937039
    26  C    7.656949   7.734291   7.369417   5.935325   6.895838
    27  H    7.755423   8.037681   7.159348   5.741356   7.170031
    28  H    7.831294   7.693934   7.862034   6.552396   6.969103
    29  H    8.717133   8.807157   8.433167   7.002704   7.905339
    30  C    4.593940   4.930685   4.994220   4.452855   3.219361
    31  C    5.110052   5.216063   5.749008   5.256872   3.724246
    32  C    5.700940   6.113004   5.855460   5.104726   4.422686
    33  C    6.477279   6.532308   7.066184   6.426916   5.110733
    34  H    4.653868   4.631571   5.492584   5.204587   3.330520
    35  C    6.949760   7.263815   7.151787   6.302438   5.636771
    36  H    5.760380   6.295576   5.703513   4.936437   4.621755
    37  C    7.291775   7.455057   7.689330   6.891668   5.929223
    38  H    7.060845   6.996753   7.760451   7.171394   5.735819
    39  H    7.816206   8.175583   7.894884   6.966627   6.552234
    40  H    8.353262   8.478533   8.749647   7.900912   6.996396
                   11         12         13         14         15
    11  C    0.000000
    12  H    1.091789   0.000000
    13  H    1.097240   1.768003   0.000000
    14  H    1.091801   1.769572   1.769369   0.000000
    15  C    4.187462   5.112281   3.850765   4.631104   0.000000
    16  H    5.151428   6.005356   4.796929   5.674817   1.092423
    17  H    3.864025   4.769907   3.824637   4.269539   1.096805
    18  H    4.551396   5.572022   4.167712   4.769281   1.090390
    19  C    2.584750   2.765117   3.104322   3.429270   3.843761
    20  C    3.872942   4.143396   4.383588   4.575645   3.960796
    21  C    3.009389   2.727723   3.355564   4.014833   4.772202
    22  C    5.025165   5.104743   5.478489   5.818995   4.950523
    23  H    4.180681   4.650880   4.718013   4.683439   3.705977
    24  C    4.397968   4.048339   4.700892   5.391900   5.615491
    25  H    2.662709   2.131037   2.871094   3.689993   5.123702
    26  C    5.246528   5.074738   5.619795   6.167852   5.707122
    27  H    5.980207   6.124995   6.442407   6.706662   5.418814
    28  H    5.023801   4.507768   5.233357   6.038182   6.463371
    29  H    6.307068   6.078296   6.653571   7.237375   6.610186
    30  C    3.870427   4.362381   3.278353   4.764925   2.577383
    31  C    3.996728   4.219716   3.244286   4.948933   3.866631
    32  C    4.791854   5.201315   4.431816   5.724173   2.988097
    33  C    4.985716   4.965807   4.365684   6.012311   5.013817
    34  H    3.743286   3.971259   2.808027   4.577105   4.180825
    35  C    5.637770   5.816251   5.301596   6.659769   4.375858
    36  H    5.137944   5.666187   4.907815   5.970230   2.635737
    37  C    5.734220   5.726048   5.286382   6.798507   5.226155
    38  H    5.458291   5.284071   4.800448   6.454534   5.971387
    39  H    6.482638   6.642758   6.250540   7.493535   4.999758
    40  H    6.637315   6.509346   6.231911   7.717550   6.285830
                   16         17         18         19         20
    16  H    0.000000
    17  H    1.769092   0.000000
    18  H    1.770873   1.772987   0.000000
    19  C    4.415998   3.189534   4.676292   0.000000
    20  C    4.277783   3.123475   4.853730   1.420178   0.000000
    21  C    5.254216   4.339381   5.662337   1.418621   2.433638
    22  C    5.026724   4.227815   5.934993   2.441241   1.388527
    23  H    4.027392   2.703270   4.466316   2.163695   1.083795
    24  C    5.873501   5.184704   6.607497   2.439329   2.794566
    25  H    5.710157   4.838099   5.917050   2.175623   3.422882
    26  C    5.788398   5.152881   6.740942   2.824345   2.421461
    27  H    5.341575   4.658203   6.374432   3.422142   2.143757
    28  H    6.696916   6.136681   7.452674   3.418837   3.879972
    29  H    6.571222   6.092516   7.667245   3.909791   3.403954
    30  C    2.781533   3.031568   3.445911   3.336729   3.908552
    31  C    4.149006   4.323514   4.594146   3.914599   4.778527
    32  C    2.759057   3.230072   4.023226   3.434933   3.521243
    33  C    5.114927   5.392927   5.838900   4.500014   5.251220
    34  H    4.647995   4.690358   4.702702   4.353165   5.402449
    35  C    4.076339   4.567679   5.403804   4.089363   4.144630
    36  H    2.175412   2.730433   3.687419   3.552158   3.254302
    37  C    5.091315   5.501510   6.182693   4.588434   4.985547
    38  H    6.131346   6.367010   6.728920   5.264798   6.135895
    39  H    4.541923   5.088412   6.047885   4.622298   4.368427
    40  H    6.095387   6.529397   7.253319   5.398947   5.728637
                   21         22         23         24         25
    21  C    0.000000
    22  C    2.796881   0.000000
    23  H    3.414922   2.149917   0.000000
    24  C    1.389045   2.419155   3.878351   0.000000
    25  H    1.083432   3.879914   4.320736   2.137478   0.000000
    26  C    2.421919   1.401070   3.405062   1.399069   3.396335
    27  H    3.882786   1.085919   2.471718   3.404330   4.965742
    28  H    2.142059   3.404358   4.963751   1.085535   2.449553
    29  H    3.404346   2.161499   4.300826   2.160057   4.288556
    30  C    3.439601   4.494864   4.346912   4.093719   3.556164
    31  C    3.534536   5.252564   5.401052   4.158069   3.267356
    32  C    3.532365   3.736167   3.997637   3.743724   3.991334
    33  C    3.747803   5.380467   6.038331   3.934298   3.499172
    34  H    4.011478   6.040930   5.965167   4.843294   3.499216
    35  C    3.742606   3.920911   4.829702   3.492594   4.176795
    36  H    3.991554   3.488575   3.484385   4.178421   4.630237
    37  C    3.858196   4.788971   5.802029   3.605541   3.963198
    38  H    4.340385   6.240477   6.971141   4.497012   3.873103
    39  H    4.323057   3.837547   5.016241   3.782888   4.916097
    40  H    4.509642   5.315742   6.604788   3.978170   4.600146
                   26         27         28         29         30
    26  C    0.000000
    27  H    2.159158   0.000000
    28  H    2.157302   4.303486   0.000000
    29  H    1.085459   2.489743   2.488553   0.000000
    30  C    4.589788   5.256542   4.627721   5.400643   0.000000
    31  C    4.994316   6.133960   4.383563   5.737838   1.418194
    32  C    3.855040   4.325308   4.327086   4.508168   1.417395
    33  C    4.796491   6.237470   3.854289   5.324431   2.436910
    34  H    5.811625   6.970674   5.031259   6.614669   2.163300
    35  C    3.599593   4.480386   3.786831   3.974442   2.435447
    36  H    3.961528   3.858157   4.920402   4.600138   2.175233
    37  C    4.133435   5.497892   3.531017   4.454891   2.816457
    38  H    5.508159   7.135692   4.186662   5.969156   3.418419
    39  H    3.520350   4.166121   4.065922   3.637586   3.415624
    40  H    4.452417   5.957881   3.646322   4.530704   3.901915
                   31         32         33         34         35
    31  C    0.000000
    32  C    2.435179   0.000000
    33  C    1.387696   2.797878   0.000000
    34  H    1.083634   3.416149   2.149226   0.000000
    35  C    2.795724   1.388077   2.421124   3.879343   0.000000
    36  H    3.423591   1.082980   3.880583   4.320932   2.136922
    37  C    2.418911   2.419196   1.400615   3.402950   1.398614
    38  H    2.143300   3.883589   1.085722   2.471689   3.405855
    39  H    3.880772   2.141537   3.405632   4.964376   1.085153
    40  H    3.401222   3.401110   2.160170   4.298615   2.158199
                   36         37         38         39         40
    36  H    0.000000
    37  C    3.394184   0.000000
    38  H    4.966238   2.159397   0.000000
    39  H    2.450240   2.157243   4.304178   0.000000
    40  H    4.285973   1.085469   2.489012   2.486681   0.000000
 Stoichiometry    C16H20N2O2
 Framework group  C1[X(C16H20N2O2)]
 Deg. of freedom   114
 Full point group                 C1      NOp   1
 Largest Abelian subgroup         C1      NOp   1
 Largest concise Abelian subgroup C1      NOp   1
                         Standard orientation:                         
 ---------------------------------------------------------------------
 Center     Atomic      Atomic             Coordinates (Angstroms)
 Number     Number       Type             X           Y           Z
 ---------------------------------------------------------------------
      1          6           0        1.064341   -1.417625   -0.655177
      2          1           0        4.134654   -0.358055    1.300576
      3          6           0        1.064772    1.410464    0.677275
      4          8           0        1.931045    1.868720   -0.183800
      5          8           0        1.921527   -1.873676    0.244462
      6          7           0        4.095037    0.607628   -0.344430
      7          1           0        4.119583    0.378912   -1.345332
      8          7           0        4.153296   -0.587885    0.298494
      9          1           0        2.841613   -1.498879    0.130581
     10          1           0        2.852068    1.475002   -0.108168
     11          6           0        1.588489   -0.819707   -1.924704
     12          1           0        0.960881   -1.089137   -2.776478
     13          1           0        1.628448    0.275544   -1.872135
     14          1           0        2.600114   -1.182811   -2.116535
     15          6           0        1.552270    0.781056    1.944545
     16          1           0        0.975039    1.135427    2.801641
     17          1           0        1.456052   -0.310744    1.903364
     18          1           0        2.601687    1.026506    2.110161
     19          6           0       -0.330048   -1.623154   -0.390226
     20          6           0       -0.746720   -2.241313    0.818563
     21          6           0       -1.331121   -1.199358   -1.301673
     22          6           0       -2.093986   -2.453637    1.078950
     23          1           0        0.005210   -2.561027    1.530600
     24          6           0       -2.675518   -1.415864   -1.027506
     25          1           0       -1.054975   -0.686150   -2.215011
     26          6           0       -3.067859   -2.051695    0.155364
     27          1           0       -2.391409   -2.934745    2.005932
     28          1           0       -3.425144   -1.077487   -1.735989
     29          1           0       -4.119840   -2.221748    0.361858
     30          6           0       -0.325014    1.620828    0.391003
     31          6           0       -0.721279    2.248339   -0.817500
     32          6           0       -1.333827    1.198145    1.292470
     33          6           0       -2.063708    2.470065   -1.090304
     34          1           0        0.039757    2.564207   -1.521285
     35          6           0       -2.673219    1.423570    1.006166
     36          1           0       -1.068479    0.683881    2.207876
     37          6           0       -3.046993    2.068273   -0.177376
     38          1           0       -2.349393    2.958859   -2.016725
     39          1           0       -3.432316    1.088025    1.705265
     40          1           0       -4.095925    2.245540   -0.393154
 ---------------------------------------------------------------------
 Rotational constants (GHZ):           0.4874825           0.3035993           0.2366772
 Leave Link  202 at Sun Jun  2 11:01:45 2019, MaxMem=   104857600 cpu:               6.1 elap:               0.2
 (Enter /project/6004141/group/g16/g16/l301.exe)
 Standard basis: 6-31G(d,p) (6D, 7F)
 Ernie: Thresh=  0.10000D-02 Tol=  0.10000D-05 Strict=F.
 There are   400 symmetry adapted cartesian basis functions of A   symmetry.
 There are   400 symmetry adapted basis functions of A   symmetry.
   400 basis functions,   700 primitive gaussians,   400 cartesian basis functions
    73 alpha electrons       73 beta electrons
       nuclear repulsion energy      1611.7680227747 Hartrees.
 IExCor=  402 DFT=T Ex+Corr=B3LYP ExCW=0 ScaHFX=  0.200000
 ScaDFX=  0.800000  0.720000  1.000000  0.810000 ScalE2=  1.000000  1.000000
 IRadAn=      5 IRanWt=     -1 IRanGd=            0 ICorTp=0 IEmpDi=131
 NAtoms=   40 NActive=   40 NUniq=   40 SFac= 1.00D+00 NAtFMM=   60 NAOKFM=F Big=F
 Integral buffers will be    131072 words long.
 Raffenetti 2 integral format.
 Two-electron integral symmetry is turned on.
 R6Disp:  Grimme-D3 Dispersion energy=       -0.0526298823 Hartrees.
 Nuclear repulsion after empirical dispersion term =     1611.7153928924 Hartrees.
 ------------------------------------------------------------------------------
 Polarizable Continuum Model (PCM)
 =================================
 Model                : PCM.
 Atomic radii         : UFF (Universal Force Field).
 Polarization charges : Total charges.
 Charge compensation  : None.
 Solution method      : On-the-fly selection.
 Cavity type          : Scaled VdW (van der Waals Surface) (Alpha=1.100).
 Cavity algorithm     : GePol (No added spheres)
                        Default sphere list used, NSphG=   40.
                        Lebedev-Laikov grids with approx.  5.0 points / Ang**2.
                        Smoothing algorithm: York/Karplus (Gamma=1.0000).
                        Polarization charges: spherical gaussians, with
                                              point-specific exponents (IZeta= 3).
                        Self-potential: point-specific (ISelfS= 7).
                        Self-field    : sphere-specific E.n sum rule (ISelfD= 2).
 1st derivatives      : Analytical E(r).r(x)/FMM algorithm (CHGder, D1EAlg=3).
                        Cavity 1st derivative terms included.
 Solvent              : Acetonitrile, Eps=  35.688000 Eps(inf)=   1.806874
 ------------------------------------------------------------------------------
 GePol: Number of generator spheres                  =      40
 GePol: Total number of spheres                      =      40
 GePol: Number of exposed spheres                    =      40 (100.00%)
 GePol: Number of points                             =    2580
 GePol: Average weight of points                     =       0.13
 GePol: Minimum weight of points                     =   0.39D-10
 GePol: Maximum weight of points                     =    0.20577
 GePol: Number of points with low weight             =     180
 GePol: Fraction of low-weight points (<1% of avg)   =       6.98%
 GePol: Cavity surface area                          =    326.871 Ang**2
 GePol: Cavity volume                                =    397.363 Ang**3
 Leave Link  301 at Sun Jun  2 11:01:46 2019, MaxMem=   104857600 cpu:              18.7 elap:               0.6
 (Enter /project/6004141/group/g16/g16/l302.exe)
 NPDir=0 NMtPBC=     1 NCelOv=     1 NCel=       1 NClECP=     1 NCelD=      1
         NCelK=      1 NCelE2=     1 NClLst=     1 CellRange=     0.0.
 One-electron integrals computed using PRISM.
 One-electron integral symmetry used in STVInt
 PrsmSu:  requested number of processors reduced to:  27 ShMem   1 Linda.
 NBasis=   400 RedAO= T EigKep=  4.66D-04  NBF=   400
 NBsUse=   400 1.00D-06 EigRej= -1.00D+00 NBFU=   400
 Precomputing XC quadrature grid using
 IXCGrd= 4 IRadAn=           5 IRanWt=          -1 IRanGd=           0 AccXCQ= 0.00D+00.
 Generated NRdTot=       0 NPtTot=           0 NUsed=           0 NTot=          32
 NSgBfM=   398   398   398   398   398 MxSgAt=    40 MxSgA2=    40.
 Leave Link  302 at Sun Jun  2 11:01:47 2019, MaxMem=   104857600 cpu:              22.3 elap:               0.7
 (Enter /project/6004141/group/g16/g16/l303.exe)
 DipDrv:  MaxL=1.
 Leave Link  303 at Sun Jun  2 11:01:48 2019, MaxMem=   104857600 cpu:               5.9 elap:               0.2
 (Enter /project/6004141/group/g16/g16/l401.exe)
 ExpMin= 1.61D-01 ExpMax= 5.48D+03 ExpMxC= 8.25D+02 IAcc=3 IRadAn=         5 AccDes= 0.00D+00
 Harris functional with IExCor=  402 and IRadAn=       5 diagonalized for initial guess.
 HarFok:  IExCor=  402 AccDes= 0.00D+00 IRadAn=         5 IDoV= 1 UseB2=F ITyADJ=14
 ICtDFT=  3500011 ScaDFX=  1.000000  1.000000  1.000000  1.000000
 FoFCou: FMM=F IPFlag=           0 FMFlag=      100000 FMFlg1=           0
         NFxFlg=           0 DoJE=T BraDBF=F KetDBF=T FulRan=T
         wScrn=  0.000000 ICntrl=       500 IOpCl=  0 I1Cent=   200000004 NGrid=           0
         NMat0=    1 NMatS0=      1 NMatT0=    0 NMatD0=    1 NMtDS0=    0 NMtDT0=    0
 Petite list used in FoFCou.
 Harris En= -881.683203784291    
 JPrj=0 DoOrth=F DoCkMO=T.
 Mixing orbitals, IMix= 1 IMixAn=  0 NRI=1 NE=   73 Coef=  7.07106781D-01  7.07106781D-01
 Mixing orbitals, IMix= 1 IMixAn=  0 NRI=1 NE=   73 Coef= -7.07106781D-01  7.07106781D-01
 Initial guess <Sx>= 0.0000 <Sy>= 0.0000 <Sz>= 0.0000 <S**2>= 1.0000 S= 0.6180
 Leave Link  401 at Sun Jun  2 11:01:49 2019, MaxMem=   104857600 cpu:              38.5 elap:               1.0
 (Enter /project/6004141/group/g16/g16/l502.exe)
 Integral symmetry usage will be decided dynamically.
 UHF open shell SCF:
 Using DIIS extrapolation, IDIIS=  1040.
 NGot=   104857600 LenX=   104517248 LenY=   104356807
 Requested convergence on RMS density matrix=1.00D-08 within 128 cycles.
 Requested convergence on MAX density matrix=1.00D-06.
 Requested convergence on             energy=1.00D-06.
 No special actions if energy rises.
 Fock matrices will be formed incrementally for  20 cycles.

 Cycle   1  Pass 1  IDiag  1:
 FoFJK:  IHMeth= 1 ICntrl=       0 DoSepK=F KAlg= 0 I1Cent=           0 FoldK=F
 IRaf= 820000000 NMat=       1 IRICut=       1 DoRegI=T DoRafI=F ISym2E= 0 IDoP0=0 IntGTp=1.
 FoFCou: FMM=F IPFlag=           0 FMFlag=      100000 FMFlg1=           0
         NFxFlg=           0 DoJE=F BraDBF=F KetDBF=F FulRan=T
         wScrn=  0.000000 ICntrl=         0 IOpCl=  1 I1Cent=           0 NGrid=           0
         NMat0=    1 NMatS0=      1 NMatT0=    0 NMatD0=    1 NMtDS0=    0 NMtDT0=    0
 Symmetry not used in FoFCou.
 Inv3:  Mode=1 IEnd=    19969200.
 Iteration    1 A*A^-1 deviation from unit magnitude is 3.44D-15 for    612.
 Iteration    1 A*A^-1 deviation from orthogonality  is 2.47D-15 for   2381   1095.
 Iteration    1 A^-1*A deviation from unit magnitude is 3.33D-15 for   1528.
 Iteration    1 A^-1*A deviation from orthogonality  is 2.18D-15 for   1186    364.
 E= -881.123848496744    
 DIIS: error= 2.45D-02 at cycle   1 NSaved=   1.
 NSaved= 1 IEnMin= 1 EnMin= -881.123848496744     IErMin= 1 ErrMin= 2.45D-02
 ErrMax= 2.45D-02  0.00D+00 EMaxC= 1.00D-01 BMatC= 1.94D+00 BMatP= 1.94D+00
 IDIUse=3 WtCom= 7.55D-01 WtEn= 2.45D-01
 Coeff-Com:  0.100D+01
 Coeff-En:   0.100D+01
 Coeff:      0.100D+01
 Gap=     0.061 Goal=   None    Shift=    0.000
 Gap=     0.066 Goal=   None    Shift=    0.000
 GapD=    0.061 DampG=0.500 DampE=0.500 DampFc=0.2500 IDamp=-1.
 Damping current iteration by 2.50D-01
 RMSDP=4.56D-03 MaxDP=2.06D-01              OVMax= 5.53D-01

 Cycle   2  Pass 1  IDiag  1:
 RMSU=  1.12D-03    CP:  9.86D-01
 E= -881.298800300158     Delta-E=       -0.174951803414 Rises=F Damp=T
 DIIS: error= 1.39D-02 at cycle   2 NSaved=   2.
 NSaved= 2 IEnMin= 2 EnMin= -881.298800300158     IErMin= 2 ErrMin= 1.39D-02
 ErrMax= 1.39D-02  0.00D+00 EMaxC= 1.00D-01 BMatC= 5.28D-01 BMatP= 1.94D+00
 IDIUse=3 WtCom= 8.61D-01 WtEn= 1.39D-01
 Coeff-Com: -0.699D+00 0.170D+01
 Coeff-En:   0.000D+00 0.100D+01
 Coeff:     -0.602D+00 0.160D+01
 Gap=     0.104 Goal=   None    Shift=    0.000
 Gap=     0.124 Goal=   None    Shift=    0.000
 RMSDP=2.17D-03 MaxDP=1.18D-01 DE=-1.75D-01 OVMax= 9.27D-01

 Cycle   3  Pass 1  IDiag  1:
 RMSU=  2.14D-03    CP:  9.64D-01  1.02D+00
 E= -881.443183426538     Delta-E=       -0.144383126380 Rises=F Damp=F
 DIIS: error= 2.96D-02 at cycle   3 NSaved=   3.
 NSaved= 3 IEnMin= 3 EnMin= -881.443183426538     IErMin= 2 ErrMin= 1.39D-02
 ErrMax= 2.96D-02  0.00D+00 EMaxC= 1.00D-01 BMatC= 6.86D-01 BMatP= 5.28D-01
 IDIUse=2 WtCom= 0.00D+00 WtEn= 1.00D+00
 Coeff-En:   0.000D+00 0.220D+00 0.780D+00
 Coeff:      0.000D+00 0.220D+00 0.780D+00
 Gap=     0.075 Goal=   None    Shift=    0.000
 Gap=     0.077 Goal=   None    Shift=    0.000
 RMSDP=3.68D-03 MaxDP=3.46D-01 DE=-1.44D-01 OVMax= 9.35D-01

 Cycle   4  Pass 1  IDiag  1:
 RMSU=  1.56D-03    CP:  9.55D-01  2.80D+00 -2.45D-01
 E= -880.786581805520     Delta-E=        0.656601621018 Rises=F Damp=F
 DIIS: error= 5.46D-02 at cycle   4 NSaved=   4.
 NSaved= 4 IEnMin= 3 EnMin= -881.443183426538     IErMin= 2 ErrMin= 1.39D-02
 ErrMax= 5.46D-02  0.00D+00 EMaxC= 1.00D-01 BMatC= 2.92D+00 BMatP= 5.28D-01
 IDIUse=2 WtCom= 0.00D+00 WtEn= 1.00D+00
 Coeff-En:   0.000D+00 0.000D+00 0.722D+00 0.278D+00
 Coeff:      0.000D+00 0.000D+00 0.722D+00 0.278D+00
 Gap=     0.109 Goal=   None    Shift=    0.000
 Gap=     0.112 Goal=   None    Shift=    0.000
 RMSDP=2.17D-03 MaxDP=1.88D-01 DE= 6.57D-01 OVMax= 6.23D-01

 Cycle   5  Pass 1  IDiag  1:
 RMSU=  1.24D-03    CP:  9.66D-01  1.84D+00  4.89D-02  1.97D-01
 E= -881.548847988631     Delta-E=       -0.762266183111 Rises=F Damp=F
 DIIS: error= 1.63D-02 at cycle   5 NSaved=   5.
 NSaved= 5 IEnMin= 5 EnMin= -881.548847988631     IErMin= 2 ErrMin= 1.39D-02
 ErrMax= 1.63D-02  0.00D+00 EMaxC= 1.00D-01 BMatC= 2.70D-01 BMatP= 5.28D-01
 IDIUse=3 WtCom= 8.37D-01 WtEn= 1.63D-01
 Coeff-Com: -0.125D+00 0.290D+00 0.382D+00 0.234D-01 0.429D+00
 Coeff-En:   0.000D+00 0.000D+00 0.373D+00 0.000D+00 0.627D+00
 Coeff:     -0.104D+00 0.243D+00 0.380D+00 0.196D-01 0.461D+00
 Gap=     0.014 Goal=   None    Shift=    0.000
 Gap=     0.014 Goal=   None    Shift=    0.000
 RMSDP=1.84D-03 MaxDP=1.30D-01 DE=-7.62D-01 OVMax= 5.77D-01

 Cycle   6  Pass 1  IDiag  1:
 RMSU=  5.89D-04    CP:  9.68D-01  1.11D+00  6.54D-01 -4.48D-03  3.86D-01
 E= -881.612548186894     Delta-E=       -0.063700198263 Rises=F Damp=F
 DIIS: error= 8.52D-03 at cycle   6 NSaved=   6.
 NSaved= 6 IEnMin= 6 EnMin= -881.612548186894     IErMin= 6 ErrMin= 8.52D-03
 ErrMax= 8.52D-03  0.00D+00 EMaxC= 1.00D-01 BMatC= 7.17D-02 BMatP= 2.70D-01
 IDIUse=3 WtCom= 9.15D-01 WtEn= 8.52D-02
 Coeff-Com: -0.517D-01 0.673D-01-0.114D-01 0.117D-01 0.274D+00 0.710D+00
 Coeff-En:   0.000D+00 0.000D+00 0.000D+00 0.000D+00 0.313D+00 0.687D+00
 Coeff:     -0.473D-01 0.616D-01-0.105D-01 0.107D-01 0.277D+00 0.708D+00
 Gap=     0.029 Goal=   None    Shift=    0.000
 Gap=     0.026 Goal=   None    Shift=    0.000
 RMSDP=8.50D-04 MaxDP=6.28D-02 DE=-6.37D-02 OVMax= 3.08D-01

 Cycle   7  Pass 1  IDiag  1:
 RMSU=  3.33D-04    CP:  9.68D-01  1.37D+00  4.00D-01  1.58D-02  7.67D-01
                    CP:  8.60D-01
 E= -881.636256682158     Delta-E=       -0.023708495264 Rises=F Damp=F
 DIIS: error= 1.43D-03 at cycle   7 NSaved=   7.
 NSaved= 7 IEnMin= 7 EnMin= -881.636256682158     IErMin= 7 ErrMin= 1.43D-03
 ErrMax= 1.43D-03  0.00D+00 EMaxC= 1.00D-01 BMatC= 9.53D-03 BMatP= 7.17D-02
 IDIUse=3 WtCom= 9.86D-01 WtEn= 1.43D-02
 Coeff-Com: -0.480D-01 0.604D-01-0.928D-01-0.127D-01 0.919D-01 0.504D+00
 Coeff-Com:  0.497D+00
 Coeff-En:   0.000D+00 0.000D+00 0.000D+00 0.000D+00 0.000D+00 0.800D-01
 Coeff-En:   0.920D+00
 Coeff:     -0.473D-01 0.595D-01-0.914D-01-0.125D-01 0.906D-01 0.498D+00
 Coeff:      0.503D+00
 Gap=     0.036 Goal=   None    Shift=    0.000
 Gap=     0.035 Goal=   None    Shift=    0.000
 RMSDP=2.17D-04 MaxDP=1.37D-02 DE=-2.37D-02 OVMax= 6.58D-02

 Cycle   8  Pass 1  IDiag  1:
 RMSU=  2.04D-04    CP:  9.68D-01  1.38D+00  4.06D-01  1.35D-02  7.40D-01
                    CP:  9.67D-01  9.94D-01
 E= -881.639555001521     Delta-E=       -0.003298319363 Rises=F Damp=F
 DIIS: error= 9.11D-04 at cycle   8 NSaved=   8.
 NSaved= 8 IEnMin= 8 EnMin= -881.639555001521     IErMin= 8 ErrMin= 9.11D-04
 ErrMax= 9.11D-04  0.00D+00 EMaxC= 1.00D-01 BMatC= 1.23D-03 BMatP= 9.53D-03
 IDIUse=3 WtCom= 9.91D-01 WtEn= 9.11D-03
 Coeff-Com: -0.137D-01 0.197D-01-0.260D-01-0.125D-02 0.333D-02 0.189D+00
 Coeff-Com:  0.144D+00 0.685D+00
 Coeff-En:   0.000D+00 0.000D+00 0.000D+00 0.000D+00 0.000D+00 0.000D+00
 Coeff-En:   0.000D+00 0.100D+01
 Coeff:     -0.135D-01 0.196D-01-0.258D-01-0.124D-02 0.330D-02 0.187D+00
 Coeff:      0.142D+00 0.688D+00
 Gap=     0.043 Goal=   None    Shift=    0.000
 Gap=     0.036 Goal=   None    Shift=    0.000
 RMSDP=2.62D-04 MaxDP=1.82D-02 DE=-3.30D-03 OVMax= 8.26D-02

 Cycle   9  Pass 1  IDiag  1:
 RMSU=  9.34D-05    CP:  9.67D-01  1.40D+00  4.07D-01  4.49D-02  7.01D-01
                    CP:  9.59D-01  1.44D+00  1.88D+00
 E= -881.641249379764     Delta-E=       -0.001694378243 Rises=F Damp=F
 DIIS: error= 1.14D-03 at cycle   9 NSaved=   9.
 NSaved= 9 IEnMin= 9 EnMin= -881.641249379764     IErMin= 8 ErrMin= 9.11D-04
 ErrMax= 1.14D-03  0.00D+00 EMaxC= 1.00D-01 BMatC= 1.97D-03 BMatP= 1.23D-03
 IDIUse=3 WtCom= 9.91D-01 WtEn= 9.11D-03
 Coeff-Com: -0.135D-01 0.195D-01-0.256D-01-0.120D-02 0.301D-02 0.188D+00
 Coeff-Com:  0.141D+00 0.681D+00 0.863D-02
 Coeff-En:   0.000D+00 0.000D+00 0.000D+00 0.000D+00 0.000D+00 0.000D+00
 Coeff-En:   0.000D+00 0.000D+00 0.100D+01
 Coeff:     -0.133D-01 0.193D-01-0.254D-01-0.119D-02 0.299D-02 0.186D+00
 Coeff:      0.139D+00 0.675D+00 0.177D-01
 Gap=     0.043 Goal=   None    Shift=    0.000
 Gap=     0.036 Goal=   None    Shift=    0.000
 RMSDP=7.24D-06 MaxDP=4.20D-04 DE=-1.69D-03 OVMax= 2.46D-03

 Cycle  10  Pass 1  IDiag  1:
 RMSU=  1.43D-06    CP:  9.67D-01  1.41D+00  4.07D-01  4.58D-02  6.99D-01
                    CP:  9.59D-01  1.45D+00  1.91D+00  1.02D+00
 E= -881.641310251078     Delta-E=       -0.000060871315 Rises=F Damp=F
 DIIS: error= 1.14D-03 at cycle  10 NSaved=  10.
 NSaved=10 IEnMin=10 EnMin= -881.641310251078     IErMin= 8 ErrMin= 9.11D-04
 ErrMax= 1.14D-03  0.00D+00 EMaxC= 1.00D-01 BMatC= 1.95D-03 BMatP= 1.23D-03
 IDIUse=3 WtCom= 9.91D-01 WtEn= 9.11D-03
 Coeff-Com: -0.118D-01 0.179D-01-0.239D-01-0.396D-03-0.507D-02 0.171D+00
 Coeff-Com:  0.126D+00 0.870D+00 0.817D+01-0.832D+01
 Coeff-En:   0.000D+00 0.000D+00 0.000D+00 0.000D+00 0.000D+00 0.000D+00
 Coeff-En:   0.000D+00 0.000D+00 0.000D+00 0.100D+01
 Coeff:     -0.117D-01 0.177D-01-0.237D-01-0.393D-03-0.502D-02 0.170D+00
 Coeff:      0.125D+00 0.862D+00 0.810D+01-0.823D+01
 Gap=     0.041 Goal=   None    Shift=    0.000
 Gap=     0.037 Goal=   None    Shift=    0.000
 RMSDP=1.28D-04 MaxDP=8.23D-03 DE=-6.09D-05 OVMax= 4.15D-02

 Cycle  11  Pass 1  IDiag  1:
 RMSU=  1.39D-05    CP:  9.68D-01  1.39D+00  4.05D-01  2.91D-02  7.21D-01
                    CP:  9.67D-01  1.26D+00  1.47D+00  5.21D-01 -3.00D+00
 E= -881.640450575564     Delta-E=        0.000859675514 Rises=F Damp=F
 DIIS: error= 1.07D-03 at cycle  11 NSaved=  11.
 NSaved=11 IEnMin=10 EnMin= -881.641310251078     IErMin= 8 ErrMin= 9.11D-04
 ErrMax= 1.07D-03  0.00D+00 EMaxC= 1.00D-01 BMatC= 1.62D-03 BMatP= 1.23D-03
 IDIUse=3 WtCom= 9.91D-01 WtEn= 9.11D-03
 Large coefficients: NSaved= 11 BigCof=   17.70 CofMax=   10.00 Det=-4.98D-08
 Inversion failed.  Reducing to 10 matrices.
 Large coefficients: NSaved= 10 BigCof=   13.56 CofMax=   10.00 Det=-5.42D-08
 Inversion failed.  Reducing to  9 matrices.
 Large coefficients: NSaved=  9 BigCof=   12.63 CofMax=   10.00 Det=-5.57D-08
 Inversion failed.  Reducing to  8 matrices.
 Large coefficients: NSaved=  8 BigCof=   11.93 CofMax=   10.00 Det=-5.83D-08
 Inversion failed.  Reducing to  7 matrices.
 Rare condition: small coef for last iteration:  0.000D+00
 Coeff-Com: -0.223D-01 0.472D-01-0.334D-01 0.381D+00 0.652D+01-0.981D+01
 Coeff-Com:  0.392D+01
 Coeff-En:   0.000D+00 0.000D+00 0.000D+00 0.000D+00 0.000D+00 0.000D+00
 Coeff-En:   0.100D+01
 Coeff:     -0.223D-01 0.472D-01-0.334D-01 0.381D+00 0.652D+01-0.981D+01
 Coeff:      0.392D+01
 Gap=     0.039 Goal=   None    Shift=    0.000
 Gap=     0.038 Goal=   None    Shift=    0.000
 RMSDP=3.18D-04 MaxDP=1.90D-02 DE= 8.60D-04 OVMax= 1.12D-01

 Cycle  12  Pass 1  IDiag  1:
 RMSU=  5.06D-05    CP:  9.68D-01  1.38D+00  3.88D-01  3.75D-03  7.70D-01
                    CP:  9.39D-01  7.73D-01  3.92D-01 -7.58D-01 -3.00D+00
                    CP:  3.00D+00
 E= -881.638371654308     Delta-E=        0.002078921256 Rises=F Damp=F
 DIIS: error= 1.28D-03 at cycle  12 NSaved=   8.
 NSaved= 8 IEnMin= 6 EnMin= -881.641310251078     IErMin= 4 ErrMin= 9.11D-04
 ErrMax= 1.28D-03  0.00D+00 EMaxC= 1.00D-01 BMatC= 2.25D-03 BMatP= 1.23D-03
 IDIUse=3 WtCom= 9.91D-01 WtEn= 9.11D-03
 Rare condition: small coef for last iteration:  0.000D+00
 Coeff-Com: -0.374D-01 0.529D-01-0.800D-01-0.167D+00-0.310D+01-0.728D+00
 Coeff-Com:  0.418D+01 0.880D+00
 Coeff-En:   0.000D+00 0.000D+00 0.000D+00 0.000D+00 0.000D+00 0.000D+00
 Coeff-En:   0.000D+00 0.100D+01
 Coeff:     -0.374D-01 0.529D-01-0.800D-01-0.167D+00-0.310D+01-0.728D+00
 Coeff:      0.418D+01 0.880D+00
 Gap=     0.038 Goal=   None    Shift=    0.000
 Gap=     0.040 Goal=   None    Shift=    0.000
 RMSDP=2.89D-04 MaxDP=1.98D-02 DE= 2.08D-03 OVMax= 9.60D-02

 Cycle  13  Pass 1  IDiag  1:
 RMSU=  4.80D-05    CP:  9.68D-01  1.38D+00  3.81D-01 -4.93D-03  7.85D-01
                    CP:  8.86D-01  2.65D-01 -5.69D-01 -1.83D+00 -3.00D+00
                    CP:  3.00D+00  2.00D+00
 E= -881.637327381672     Delta-E=        0.001044272636 Rises=F Damp=F
 DIIS: error= 1.53D-03 at cycle  13 NSaved=   9.
 NSaved= 9 IEnMin= 6 EnMin= -881.641310251078     IErMin= 4 ErrMin= 9.11D-04
 ErrMax= 1.53D-03  0.00D+00 EMaxC= 1.00D-01 BMatC= 2.48D-03 BMatP= 1.23D-03
 IDIUse=3 WtCom= 9.91D-01 WtEn= 9.11D-03
 Rare condition: small coef for last iteration:  0.000D+00
 Coeff-Com: -0.380D-01 0.105D+00-0.741D-01-0.126D+00-0.347D+01 0.297D+01
 Coeff-Com:  0.394D+00 0.397D+00 0.840D+00
 Coeff-En:   0.000D+00 0.336D-01 0.000D+00 0.000D+00 0.000D+00 0.000D+00
 Coeff-En:   0.000D+00 0.000D+00 0.966D+00
 Coeff:     -0.380D-01 0.105D+00-0.741D-01-0.126D+00-0.347D+01 0.297D+01
 Coeff:      0.394D+00 0.397D+00 0.840D+00
 Gap=     0.037 Goal=   None    Shift=    0.000
 Gap=     0.040 Goal=   None    Shift=    0.000
 RMSDP=9.61D-05 MaxDP=7.21D-03 DE= 1.04D-03 OVMax= 3.63D-02

 Cycle  14  Pass 1  IDiag  1:
 RMSU=  1.57D-05    CP:  9.68D-01  1.35D+00  4.10D-01 -1.16D-02  7.49D-01
                    CP:  9.30D-01  2.88D-01 -4.67D-01 -1.67D+00 -3.00D+00
                    CP:  3.00D+00  2.06D+00  7.41D-01
 E= -881.638129316048     Delta-E=       -0.000801934376 Rises=F Damp=F
 DIIS: error= 3.86D-04 at cycle  14 NSaved=  10.
 NSaved=10 IEnMin= 6 EnMin= -881.641310251078     IErMin=10 ErrMin= 3.86D-04
 ErrMax= 3.86D-04  0.00D+00 EMaxC= 1.00D-01 BMatC= 2.60D-04 BMatP= 1.23D-03
 IDIUse=3 WtCom= 9.96D-01 WtEn= 3.86D-03
 Coeff-Com: -0.247D-01 0.528D-01-0.430D-01 0.120D-01 0.308D+01-0.348D+01
 Coeff-Com:  0.132D+00 0.447D-01 0.542D+00 0.686D+00
 Coeff-En:   0.000D+00 0.000D+00 0.000D+00 0.000D+00 0.000D+00 0.000D+00
 Coeff-En:   0.000D+00 0.000D+00 0.000D+00 0.100D+01
 Coeff:     -0.246D-01 0.526D-01-0.429D-01 0.119D-01 0.307D+01-0.347D+01
 Coeff:      0.132D+00 0.445D-01 0.540D+00 0.687D+00
 Gap=     0.036 Goal=   None    Shift=    0.000
 Gap=     0.042 Goal=   None    Shift=    0.000
 RMSDP=2.48D-04 MaxDP=1.84D-02 DE=-8.02D-04 OVMax= 8.87D-02

 Cycle  15  Pass 1  IDiag  1:
 RMSU=  2.18D-05    CP:  9.68D-01  1.37D+00  3.98D-01 -4.05D-03  7.55D-01
                    CP:  8.49D-01 -1.55D-01 -1.29D+00 -2.44D+00 -3.00D+00
                    CP:  3.00D+00  2.68D+00  1.42D+00  2.94D-01
 E= -881.637691815495     Delta-E=        0.000437500553 Rises=F Damp=F
 DIIS: error= 8.82D-04 at cycle  15 NSaved=  11.
 NSaved=11 IEnMin= 6 EnMin= -881.641310251078     IErMin=10 ErrMin= 3.86D-04
 ErrMax= 8.82D-04  0.00D+00 EMaxC= 1.00D-01 BMatC= 9.27D-04 BMatP= 2.60D-04
 IDIUse=3 WtCom= 9.96D-01 WtEn= 3.86D-03
 Rare condition: small coef for last iteration:  0.000D+00
 Coeff-Com: -0.785D-02 0.342D-01-0.355D-02 0.272D+00 0.782D+01-0.700D+01
 Coeff-Com: -0.103D+01-0.425D+00 0.574D-01 0.733D+00 0.555D+00
 Coeff-En:   0.000D+00 0.000D+00 0.000D+00 0.000D+00 0.000D+00 0.000D+00
 Coeff-En:   0.000D+00 0.000D+00 0.000D+00 0.000D+00 0.100D+01
 Coeff:     -0.785D-02 0.342D-01-0.355D-02 0.272D+00 0.782D+01-0.700D+01
 Coeff:     -0.103D+01-0.425D+00 0.574D-01 0.733D+00 0.555D+00
 Gap=     0.035 Goal=   None    Shift=    0.000
 Gap=     0.041 Goal=   None    Shift=    0.000
 RMSDP=7.46D-05 MaxDP=6.14D-03 DE= 4.38D-04 OVMax= 2.97D-02

 Cycle  16  Pass 1  IDiag  1:
 RMSU=  1.42D-05    CP:  9.68D-01  1.34D+00  4.20D-01 -9.32D-03  7.33D-01
                    CP:  8.81D-01 -1.23D-01 -1.19D+00 -2.25D+00 -3.00D+00
                    CP:  3.00D+00  2.44D+00  1.12D+00  9.17D-01  8.64D-01
 E= -881.637991992988     Delta-E=       -0.000300177493 Rises=F Damp=F
 DIIS: error= 1.10D-04 at cycle  16 NSaved=  12.
 NSaved=12 IEnMin= 6 EnMin= -881.641310251078     IErMin=12 ErrMin= 1.10D-04
 ErrMax= 1.10D-04  0.00D+00 EMaxC= 1.00D-01 BMatC= 1.65D-05 BMatP= 2.60D-04
 IDIUse=3 WtCom= 9.99D-01 WtEn= 1.10D-03
 Coeff-Com: -0.168D-02 0.105D-01 0.266D-02 0.153D+00 0.398D+01-0.371D+01
 Coeff-Com: -0.327D+00-0.237D+00-0.113D+00 0.344D+00 0.326D+00 0.569D+00
 Coeff-En:   0.000D+00 0.000D+00 0.000D+00 0.000D+00 0.000D+00 0.000D+00
 Coeff-En:   0.000D+00 0.000D+00 0.000D+00 0.000D+00 0.000D+00 0.100D+01
 Coeff:     -0.168D-02 0.105D-01 0.266D-02 0.153D+00 0.398D+01-0.370D+01
 Coeff:     -0.327D+00-0.237D+00-0.113D+00 0.343D+00 0.326D+00 0.569D+00
 Gap=     0.035 Goal=   None    Shift=    0.000
 Gap=     0.041 Goal=   None    Shift=    0.000
 RMSDP=1.68D-05 MaxDP=1.21D-03 DE=-3.00D-04 OVMax= 5.66D-03

 Cycle  17  Pass 1  IDiag  1:
 RMSU=  3.78D-06    CP:  9.68D-01  1.34D+00  4.21D-01 -8.55D-03  7.31D-01
                    CP:  8.76D-01 -1.54D-01 -1.24D+00 -2.28D+00 -3.00D+00
                    CP:  3.00D+00  2.42D+00  1.14D+00  8.91D-01  1.02D+00
                    CP:  1.05D+00
 E= -881.637998450748     Delta-E=       -0.000006457761 Rises=F Damp=F
 DIIS: error= 6.95D-05 at cycle  17 NSaved=  13.
 NSaved=13 IEnMin= 6 EnMin= -881.641310251078     IErMin=13 ErrMin= 6.95D-05
 ErrMax= 6.95D-05  0.00D+00 EMaxC= 1.00D-01 BMatC= 6.55D-06 BMatP= 1.65D-05
 IDIUse=1 WtCom= 1.00D+00 WtEn= 0.00D+00
 Coeff-Com: -0.100D-02 0.572D-02-0.250D-03 0.455D-01 0.708D+00-0.663D+00
 Coeff-Com: -0.294D-01-0.643D-01-0.622D-01 0.860D-01 0.860D-01 0.332D+00
 Coeff-Com:  0.557D+00
 Coeff:     -0.100D-02 0.572D-02-0.250D-03 0.455D-01 0.708D+00-0.663D+00
 Coeff:     -0.294D-01-0.643D-01-0.622D-01 0.860D-01 0.860D-01 0.332D+00
 Coeff:      0.557D+00
 Gap=     0.036 Goal=   None    Shift=    0.000
 Gap=     0.041 Goal=   None    Shift=    0.000
 RMSDP=2.12D-05 MaxDP=1.81D-03 DE=-6.46D-06 OVMax= 8.36D-03

 Cycle  18  Pass 1  IDiag  1:
 RMSU=  1.67D-06    CP:  9.68D-01  1.34D+00  4.23D-01 -9.58D-03  7.30D-01
                    CP:  8.85D-01 -1.19D-01 -1.17D+00 -2.21D+00 -3.00D+00
                    CP:  3.00D+00  2.34D+00  1.08D+00  9.31D-01  9.79D-01
                    CP:  1.07D+00  8.90D-01
 E= -881.637996404253     Delta-E=        0.000002046495 Rises=F Damp=F
 DIIS: error= 3.00D-05 at cycle  18 NSaved=  14.
 NSaved=14 IEnMin= 6 EnMin= -881.641310251078     IErMin=14 ErrMin= 3.00D-05
 ErrMax= 3.00D-05  0.00D+00 EMaxC= 1.00D-01 BMatC= 1.08D-06 BMatP= 6.55D-06
 IDIUse=1 WtCom= 1.00D+00 WtEn= 0.00D+00
 Coeff-Com: -0.784D-03 0.226D-02-0.159D-02-0.528D-02-0.470D+00 0.428D+00
 Coeff-Com:  0.621D-01 0.137D-01-0.969D-02-0.233D-02-0.198D-02 0.916D-01
 Coeff-Com:  0.373D+00 0.522D+00
 Coeff:     -0.784D-03 0.226D-02-0.159D-02-0.528D-02-0.470D+00 0.428D+00
 Coeff:      0.621D-01 0.137D-01-0.969D-02-0.233D-02-0.198D-02 0.916D-01
 Coeff:      0.373D+00 0.522D+00
 Gap=     0.036 Goal=   None    Shift=    0.000
 Gap=     0.041 Goal=   None    Shift=    0.000
 RMSDP=4.14D-06 MaxDP=3.85D-04 DE= 2.05D-06 OVMax= 1.45D-03

 Cycle  19  Pass 1  IDiag  1:
 RMSU=  8.69D-07    CP:  9.68D-01  1.34D+00  4.23D-01 -9.65D-03  7.31D-01
                    CP:  8.86D-01 -1.12D-01 -1.16D+00 -2.21D+00 -3.00D+00
                    CP:  3.00D+00  2.33D+00  1.07D+00  9.23D-01  9.75D-01
                    CP:  1.06D+00  9.39D-01  1.06D+00
 E= -881.637996402663     Delta-E=        0.000000001591 Rises=F Damp=F
 DIIS: error= 1.62D-05 at cycle  19 NSaved=  15.
 NSaved=15 IEnMin= 6 EnMin= -881.641310251078     IErMin=15 ErrMin= 1.62D-05
 ErrMax= 1.62D-05  0.00D+00 EMaxC= 1.00D-01 BMatC= 3.74D-07 BMatP= 1.08D-06
 IDIUse=1 WtCom= 1.00D+00 WtEn= 0.00D+00
 Coeff-Com:  0.775D-04 0.177D-03-0.124D-03-0.114D-01-0.396D+00 0.401D+00
 Coeff-Com: -0.164D-02 0.122D-01 0.116D-01-0.257D-02-0.138D-02-0.451D-01
 Coeff-Com: -0.340D-02 0.178D+00 0.859D+00
 Coeff:      0.775D-04 0.177D-03-0.124D-03-0.114D-01-0.396D+00 0.401D+00
 Coeff:     -0.164D-02 0.122D-01 0.116D-01-0.257D-02-0.138D-02-0.451D-01
 Coeff:     -0.340D-02 0.178D+00 0.859D+00
 Gap=     0.036 Goal=   None    Shift=    0.000
 Gap=     0.041 Goal=   None    Shift=    0.000
 RMSDP=6.84D-06 MaxDP=5.21D-04 DE= 1.59D-09 OVMax= 2.17D-03

 Cycle  20  Pass 1  IDiag  1:
 RMSU=  5.20D-07    CP:  9.68D-01  1.34D+00  4.23D-01 -9.87D-03  7.31D-01
                    CP:  8.88D-01 -9.87D-02 -1.14D+00 -2.19D+00 -3.00D+00
                    CP:  3.00D+00  2.32D+00  1.06D+00  9.41D-01  9.59D-01
                    CP:  1.04D+00  9.70D-01  1.31D+00  1.30D+00
 E= -881.637996341943     Delta-E=        0.000000060720 Rises=F Damp=F
 DIIS: error= 2.13D-05 at cycle  20 NSaved=  16.
 NSaved=16 IEnMin= 6 EnMin= -881.641310251078     IErMin=15 ErrMin= 1.62D-05
 ErrMax= 2.13D-05  0.00D+00 EMaxC= 1.00D-01 BMatC= 5.15D-07 BMatP= 3.74D-07
 IDIUse=1 WtCom= 1.00D+00 WtEn= 0.00D+00
 Coeff-Com:  0.426D-03-0.164D-02 0.644D-03-0.249D-02 0.355D-01-0.224D-01
 Coeff-Com: -0.207D-01-0.242D-02 0.737D-02 0.480D-02 0.169D-01-0.559D-01
 Coeff-Com: -0.130D+00-0.114D+00 0.370D+00 0.914D+00
 Coeff:      0.426D-03-0.164D-02 0.644D-03-0.249D-02 0.355D-01-0.224D-01
 Coeff:     -0.207D-01-0.242D-02 0.737D-02 0.480D-02 0.169D-01-0.559D-01
 Coeff:     -0.130D+00-0.114D+00 0.370D+00 0.914D+00
 Gap=     0.036 Goal=   None    Shift=    0.000
 Gap=     0.041 Goal=   None    Shift=    0.000
 RMSDP=3.22D-06 MaxDP=3.57D-04 DE= 6.07D-08 OVMax= 1.33D-03

 Cycle  21  Pass 1  IDiag  1:
 Restarting incremental Fock formation.
 E= -881.637996483361     Delta-E=       -0.000000141418 Rises=F Damp=F
 DIIS: error= 8.71D-06 at cycle  21 NSaved=  17.
 NSaved=17 IEnMin= 6 EnMin= -881.641310251078     IErMin=17 ErrMin= 8.71D-06
 ErrMax= 8.71D-06  0.00D+00 EMaxC= 1.00D-01 BMatC= 9.53D-08 BMatP= 3.74D-07
 IDIUse=1 WtCom= 1.00D+00 WtEn= 0.00D+00
 Coeff-Com:  0.280D-03-0.816D-03 0.385D-03 0.375D-02 0.165D+00-0.152D+00
 Coeff-Com: -0.166D-01-0.792D-02-0.286D-02-0.581D-03 0.653D-02-0.747D-02
 Coeff-Com: -0.568D-01-0.991D-01-0.154D+00 0.499D+00 0.824D+00
 Coeff:      0.280D-03-0.816D-03 0.385D-03 0.375D-02 0.165D+00-0.152D+00
 Coeff:     -0.166D-01-0.792D-02-0.286D-02-0.581D-03 0.653D-02-0.747D-02
 Coeff:     -0.568D-01-0.991D-01-0.154D+00 0.499D+00 0.824D+00
 Gap=     0.036 Goal=   None    Shift=    0.000
 Gap=     0.041 Goal=   None    Shift=    0.000
 RMSDP=7.97D-07 MaxDP=9.60D-05 DE=-1.41D-07 OVMax= 2.60D-04

 Cycle  22  Pass 1  IDiag  1:
 RMSU=  7.97D-07    CP:  1.00D+00
 E= -881.637996505101     Delta-E=       -0.000000021739 Rises=F Damp=F
 DIIS: error= 6.22D-06 at cycle  22 NSaved=  18.
 NSaved=18 IEnMin= 6 EnMin= -881.641310251078     IErMin=18 ErrMin= 6.22D-06
 ErrMax= 6.22D-06  0.00D+00 EMaxC= 1.00D-01 BMatC= 4.28D-08 BMatP= 9.53D-08
 IDIUse=1 WtCom= 1.00D+00 WtEn= 0.00D+00
 Coeff-Com:  0.346D-04 0.125D-03-0.779D-04 0.413D-03 0.657D-02-0.557D-02
 Coeff-Com: -0.221D-03-0.199D-03-0.180D-02-0.640D-02-0.677D-02 0.487D-02
 Coeff-Com:  0.577D-02 0.638D-02-0.110D+00-0.255D-01 0.298D+00 0.834D+00
 Coeff:      0.346D-04 0.125D-03-0.779D-04 0.413D-03 0.657D-02-0.557D-02
 Coeff:     -0.221D-03-0.199D-03-0.180D-02-0.640D-02-0.677D-02 0.487D-02
 Coeff:      0.577D-02 0.638D-02-0.110D+00-0.255D-01 0.298D+00 0.834D+00
 Gap=     0.036 Goal=   None    Shift=    0.000
 Gap=     0.041 Goal=   None    Shift=    0.000
 RMSDP=7.19D-07 MaxDP=5.68D-05 DE=-2.17D-08 OVMax= 2.34D-04

 Cycle  23  Pass 1  IDiag  1:
 RMSU=  6.36D-07    CP:  1.00D+00  1.42D+00
 E= -881.637996519563     Delta-E=       -0.000000014463 Rises=F Damp=F
 DIIS: error= 2.01D-06 at cycle  23 NSaved=  19.
 NSaved=19 IEnMin= 6 EnMin= -881.641310251078     IErMin=19 ErrMin= 2.01D-06
 ErrMax= 2.01D-06  0.00D+00 EMaxC= 1.00D-01 BMatC= 4.34D-09 BMatP= 4.28D-08
 IDIUse=1 WtCom= 1.00D+00 WtEn= 0.00D+00
 Coeff-Com: -0.344D-04 0.129D-03-0.933D-04-0.127D-03-0.127D-01 0.112D-01
 Coeff-Com:  0.222D-02 0.742D-03-0.184D-03-0.212D-02-0.235D-02 0.296D-02
 Coeff-Com:  0.942D-02 0.135D-01-0.242D-01-0.803D-01 0.732D-02 0.337D+00
 Coeff-Com:  0.738D+00
 Coeff:     -0.344D-04 0.129D-03-0.933D-04-0.127D-03-0.127D-01 0.112D-01
 Coeff:      0.222D-02 0.742D-03-0.184D-03-0.212D-02-0.235D-02 0.296D-02
 Coeff:      0.942D-02 0.135D-01-0.242D-01-0.803D-01 0.732D-02 0.337D+00
 Coeff:      0.738D+00
 Gap=     0.036 Goal=   None    Shift=    0.000
 Gap=     0.041 Goal=   None    Shift=    0.000
 RMSDP=1.26D-07 MaxDP=1.54D-05 DE=-1.45D-08 OVMax= 4.58D-05

 Cycle  24  Pass 1  IDiag  1:
 RMSU=  6.36D-08    CP:  1.00D+00  1.50D+00  8.66D-01
 E= -881.637996520751     Delta-E=       -0.000000001188 Rises=F Damp=F
 DIIS: error= 1.04D-06 at cycle  24 NSaved=  20.
 NSaved=20 IEnMin= 6 EnMin= -881.641310251078     IErMin=20 ErrMin= 1.04D-06
 ErrMax= 1.04D-06  0.00D+00 EMaxC= 1.00D-01 BMatC= 1.33D-09 BMatP= 4.34D-09
 IDIUse=1 WtCom= 1.00D+00 WtEn= 0.00D+00
 Coeff-Com: -0.254D-04-0.234D-04 0.105D-04-0.110D-03-0.335D-02 0.235D-02
 Coeff-Com:  0.849D-03 0.307D-03 0.707D-03 0.191D-02 0.232D-02-0.715D-03
 Coeff-Com:  0.175D-02 0.123D-02 0.325D-01-0.228D-01-0.108D+00-0.199D+00
 Coeff-Com:  0.192D+00 0.110D+01
 Coeff:     -0.254D-04-0.234D-04 0.105D-04-0.110D-03-0.335D-02 0.235D-02
 Coeff:      0.849D-03 0.307D-03 0.707D-03 0.191D-02 0.232D-02-0.715D-03
 Coeff:      0.175D-02 0.123D-02 0.325D-01-0.228D-01-0.108D+00-0.199D+00
 Coeff:      0.192D+00 0.110D+01
 Gap=     0.036 Goal=   None    Shift=    0.000
 Gap=     0.041 Goal=   None    Shift=    0.000
 RMSDP=1.92D-07 MaxDP=2.01D-05 DE=-1.19D-09 OVMax= 7.64D-05

 Cycle  25  Pass 1  IDiag  1:
 RMSU=  4.36D-08    CP:  1.00D+00  1.58D+00  6.12D-01  2.13D+00
 E= -881.637996521188     Delta-E=       -0.000000000437 Rises=F Damp=F
 DIIS: error= 6.35D-07 at cycle  25 NSaved=  20.
 NSaved=20 IEnMin= 5 EnMin= -881.641310251078     IErMin=20 ErrMin= 6.35D-07
 ErrMax= 6.35D-07  0.00D+00 EMaxC= 1.00D-01 BMatC= 5.13D-10 BMatP= 1.33D-09
 IDIUse=1 WtCom= 1.00D+00 WtEn= 0.00D+00
 Coeff-Com: -0.321D-04 0.380D-04-0.528D-04 0.798D-03-0.769D-03-0.300D-03
 Coeff-Com: -0.247D-05 0.351D-03 0.145D-02 0.136D-02-0.969D-03-0.173D-02
 Coeff-Com: -0.276D-02 0.211D-01 0.110D-01-0.557D-01-0.177D+00-0.649D-01
 Coeff-Com:  0.545D+00 0.723D+00
 Coeff:     -0.321D-04 0.380D-04-0.528D-04 0.798D-03-0.769D-03-0.300D-03
 Coeff:     -0.247D-05 0.351D-03 0.145D-02 0.136D-02-0.969D-03-0.173D-02
 Coeff:     -0.276D-02 0.211D-01 0.110D-01-0.557D-01-0.177D+00-0.649D-01
 Coeff:      0.545D+00 0.723D+00
 Gap=     0.036 Goal=   None    Shift=    0.000
 Gap=     0.041 Goal=   None    Shift=    0.000
 RMSDP=4.05D-08 MaxDP=4.25D-06 DE=-4.37D-10 OVMax= 1.30D-05

 Cycle  26  Pass 1  IDiag  1:
 RMSU=  2.66D-08    CP:  1.00D+00  1.57D+00  6.49D-01  2.37D+00  8.73D-01
 E= -881.637996521298     Delta-E=       -0.000000000110 Rises=F Damp=F
 DIIS: error= 4.30D-07 at cycle  26 NSaved=  20.
 NSaved=20 IEnMin= 4 EnMin= -881.641310251078     IErMin=20 ErrMin= 4.30D-07
 ErrMax= 4.30D-07  0.00D+00 EMaxC= 1.00D-01 BMatC= 2.19D-10 BMatP= 5.13D-10
 IDIUse=1 WtCom= 1.00D+00 WtEn= 0.00D+00
 Coeff-Com:  0.688D-05-0.241D-04 0.271D-03-0.185D-03-0.159D-03-0.463D-05
 Coeff-Com:  0.162D-04 0.290D-03-0.627D-04-0.132D-03-0.104D-02-0.111D-02
 Coeff-Com:  0.284D-02 0.117D-01-0.586D-02-0.467D-01-0.660D-01-0.872D-02
 Coeff-Com:  0.329D+00 0.786D+00
 Coeff:      0.688D-05-0.241D-04 0.271D-03-0.185D-03-0.159D-03-0.463D-05
 Coeff:      0.162D-04 0.290D-03-0.627D-04-0.132D-03-0.104D-02-0.111D-02
 Coeff:      0.284D-02 0.117D-01-0.586D-02-0.467D-01-0.660D-01-0.872D-02
 Coeff:      0.329D+00 0.786D+00
 Gap=     0.036 Goal=   None    Shift=    0.000
 Gap=     0.041 Goal=   None    Shift=    0.000
 RMSDP=3.95D-08 MaxDP=3.73D-06 DE=-1.10D-10 OVMax= 1.57D-05

 Cycle  27  Pass 1  IDiag  1:
 RMSU=  8.77D-09    CP:  1.00D+00  1.56D+00  7.02D-01  2.45D+00  8.13D-01
                    CP:  1.58D+00
 E= -881.637996521377     Delta-E=       -0.000000000079 Rises=F Damp=F
 DIIS: error= 1.14D-07 at cycle  27 NSaved=  20.
 NSaved=20 IEnMin= 3 EnMin= -881.641310251078     IErMin=20 ErrMin= 1.14D-07
 ErrMax= 1.14D-07  0.00D+00 EMaxC= 1.00D-01 BMatC= 1.36D-11 BMatP= 2.19D-10
 IDIUse=1 WtCom= 1.00D+00 WtEn= 0.00D+00
 Coeff-Com:  0.227D-04 0.933D-03-0.914D-03-0.296D-04-0.406D-04-0.661D-04
 Coeff-Com: -0.781D-04-0.178D-03 0.393D-04-0.615D-03-0.743D-03-0.195D-02
 Coeff-Com:  0.593D-02 0.689D-02 0.281D-02-0.165D-01-0.101D+00-0.177D-01
 Coeff-Com:  0.348D+00 0.775D+00
[...]
    22  C(13)              0.01748       9.82489       3.50577       3.27723
    23  H(1)               0.00334       7.46151       2.66245       2.48889
    24  C(13)              0.01745       9.80997       3.50044       3.27226
    25  H(1)               0.00323       7.20814       2.57204       2.40438
    26  C(13)             -0.02705     -15.20654      -5.42607      -5.07236
    27  H(1)              -0.00135      -3.01003      -1.07405      -1.00404
    28  H(1)              -0.00129      -2.89053      -1.03141      -0.96418
    29  H(1)               0.00381       8.50662       3.03537       2.83750
    30  C(13)              0.00058       0.32453       0.11580       0.10825
    31  C(13)             -0.00051      -0.28552      -0.10188      -0.09524
    32  C(13)             -0.00082      -0.46193      -0.16483      -0.15408
    33  C(13)              0.00044       0.24875       0.08876       0.08298
    34  H(1)               0.00006       0.12551       0.04478       0.04187
    35  C(13)              0.00044       0.25007       0.08923       0.08341
    36  H(1)               0.00009       0.20046       0.07153       0.06687
    37  C(13)             -0.00080      -0.44700      -0.15950      -0.14910
    38  H(1)              -0.00004      -0.08990      -0.03208      -0.02999
    39  H(1)              -0.00008      -0.17293      -0.06171      -0.05768
    40  H(1)               0.00012       0.26081       0.09306       0.08700
 --------------------------------------------------------
       Center         ----  Spin Dipole Couplings  ----
                      3XX-RR        3YY-RR        3ZZ-RR
 --------------------------------------------------------
     1   Atom        0.356546     -0.500132      0.143586
     2   Atom       -0.020467     -0.047568      0.068035
     3   Atom        0.007631     -0.006705     -0.000926
     4   Atom        0.017687     -0.021583      0.003896
     5   Atom        0.331511     -0.377922      0.046411
     6   Atom        0.822075     -0.412640     -0.409435
     7   Atom       -0.016830     -0.035411      0.052241
     8   Atom        1.443206     -0.710252     -0.732954
     9   Atom        0.010275      0.006366     -0.016641
    10   Atom       -0.019390      0.049077     -0.029687
    11   Atom        0.006113     -0.002341     -0.003773
    12   Atom        0.006351      0.002161     -0.008512
    13   Atom        0.006689     -0.006180     -0.000510
    14   Atom       -0.002185      0.002878     -0.000693
    15   Atom        0.001744     -0.000480     -0.001264
    16   Atom        0.001524     -0.000827     -0.000697
    17   Atom        0.006046     -0.002052     -0.003994
    18   Atom       -0.001483     -0.000301      0.001783
    19   Atom       -0.053954      0.067902     -0.013949
    20   Atom        0.102710     -0.158993      0.056283
    21   Atom        0.104297     -0.158234      0.053938
    22   Atom       -0.050415      0.069510     -0.019095
    23   Atom        0.002789      0.001109     -0.003898
    24   Atom       -0.045988      0.066940     -0.020952
    25   Atom        0.010241      0.000483     -0.010724
    26   Atom        0.117095     -0.181768      0.064672
    27   Atom       -0.005009      0.003166      0.001843
    28   Atom       -0.002940      0.002935      0.000005
    29   Atom       -0.015601      0.002750      0.012851
    30   Atom        0.002188     -0.002226      0.000038
    31   Atom        0.003443     -0.004325      0.000883
    32   Atom        0.005084     -0.004128     -0.000957
    33   Atom       -0.000209     -0.000412      0.000620
    34   Atom        0.001580     -0.001985      0.000405
    35   Atom       -0.000354     -0.000121      0.000475
    36   Atom        0.002772     -0.002080     -0.000691
    37   Atom        0.004456     -0.006597      0.002142
    38   Atom        0.000614     -0.001011      0.000397
    39   Atom        0.000742     -0.001539      0.000797
    40   Atom       -0.000109     -0.000746      0.000855
 --------------------------------------------------------
                        XY            XZ            YZ
 --------------------------------------------------------
     1   Atom       -0.022335     -0.005401     -0.419875
     2   Atom       -0.012037     -0.004707      0.050018
     3   Atom       -0.003349     -0.001354     -0.007114
     4   Atom       -0.005476      0.000529     -0.008426
     5   Atom        0.116237      0.002215     -0.345089
     6   Atom        0.036179      0.070216     -0.008154
     7   Atom        0.000027      0.009220      0.012692
     8   Atom       -0.360501      0.098343     -0.011241
     9   Atom        0.036318      0.005665      0.000291
    10   Atom       -0.013863     -0.000679      0.023597
    11   Atom       -0.003488      0.010413      0.004254
    12   Atom        0.000255      0.003539      0.005520
    13   Atom       -0.006993      0.010423      0.004274
    14   Atom        0.001068      0.013546      0.003745
    15   Atom       -0.003905     -0.004921      0.000338
    16   Atom       -0.001505     -0.002210     -0.000683
    17   Atom       -0.002712     -0.007500     -0.003152
    18   Atom       -0.003643     -0.004931      0.003017
    19   Atom       -0.001776      0.004962      0.047316
    20   Atom       -0.010074     -0.003007     -0.110318
    21   Atom       -0.010788     -0.004380     -0.118009
    22   Atom        0.006303      0.000276      0.048189
    23   Atom        0.004464     -0.009927      0.002684
    24   Atom        0.003591      0.007900      0.049811
    25   Atom       -0.001123      0.003867      0.005386
    26   Atom       -0.014578     -0.003942     -0.138655
    27   Atom        0.001021     -0.001212      0.000790
    28   Atom       -0.001153      0.003368      0.001445
    29   Atom       -0.002465      0.007204     -0.006130
    30   Atom       -0.000893     -0.000176     -0.000542
    31   Atom       -0.000812      0.000079     -0.002287
    32   Atom        0.000653      0.000477     -0.006345
    33   Atom        0.000352      0.000236      0.001875
    34   Atom       -0.001342      0.000665      0.000106
    35   Atom        0.000995      0.000979      0.000754
    36   Atom        0.000357      0.000085     -0.002217
    37   Atom        0.001155      0.000254     -0.004833
    38   Atom        0.000140      0.000111      0.000413
    39   Atom        0.000630      0.000543     -0.001210
    40   Atom        0.000918     -0.000222     -0.000005
 --------------------------------------------------------


 ---------------------------------------------------------------------------------
              Anisotropic Spin Dipole Couplings in Principal Axis System
 ---------------------------------------------------------------------------------

       Atom             a.u.   MegaHertz   Gauss  10(-4) cm-1        Axes

              Baa    -0.7078   -94.979   -33.891   -31.681  0.0211  0.8966  0.4423
     1 C(13)  Bbb     0.3480    46.694    16.662    15.575 -0.4863 -0.3774  0.7881
              Bcc     0.3598    48.285    17.229    16.106  0.8735 -0.2317  0.4281
 
              Baa    -0.0682   -36.373   -12.979   -12.133  0.1999  0.9220 -0.3317
     2 H(1)   Bbb    -0.0192   -10.241    -3.654    -3.416  0.9765 -0.1598  0.1443
              Bcc     0.0874    46.613    16.633    15.549 -0.0801  0.3527  0.9323
 
              Baa    -0.0121    -1.627    -0.581    -0.543  0.1764  0.8211  0.5428
     3 C(13)  Bbb     0.0037     0.502     0.179     0.168 -0.1567 -0.5210  0.8390
              Bcc     0.0084     1.125     0.401     0.375  0.9718 -0.2330  0.0367
 
              Baa    -0.0247     1.790     0.639     0.597  0.1196  0.9530  0.2783
     4 O(17)  Bbb     0.0061    -0.440    -0.157    -0.147 -0.1649 -0.2574  0.9521
              Bcc     0.0186    -1.349    -0.482    -0.450  0.9790 -0.1597  0.1263
 
              Baa    -0.5824    42.142    15.037    14.057 -0.1119  0.8710  0.4784
     5 O(17)  Bbb     0.2160   -15.632    -5.578    -5.214  0.3908 -0.4040  0.8270
              Bcc     0.3664   -26.510    -9.459    -8.843  0.9136  0.2795 -0.2952
 
              Baa    -0.4237   -16.343    -5.831    -5.451 -0.0601  0.7110  0.7006
     6 N(14)  Bbb    -0.4034   -15.557    -5.551    -5.189 -0.0200 -0.7026  0.7113
              Bcc     0.8271    31.899    11.382    10.640  0.9980  0.0288  0.0565
 
              Baa    -0.0373   -19.898    -7.100    -6.637  0.0648  0.9871 -0.1466
     7 H(1)   Bbb    -0.0179    -9.554    -3.409    -3.187  0.9899 -0.0821 -0.1153
              Bcc     0.0552    29.452    10.509     9.824  0.1258  0.1376  0.9825
 
              Baa    -0.7697   -29.685   -10.592    -9.902  0.1653  0.9756 -0.1441
     8 N(14)  Bbb    -0.7366   -28.410   -10.137    -9.477 -0.0199  0.1494  0.9886
              Bcc     1.5063    58.095    20.730    19.379  0.9860 -0.1606  0.0441
 
              Baa    -0.0292   -15.557    -5.551    -5.189 -0.6709  0.6835  0.2877
     9 H(1)   Bbb    -0.0158    -8.450    -3.015    -2.819  0.1488 -0.2560  0.9551
              Bcc     0.0450    24.007     8.566     8.008  0.7265  0.6836  0.0700
 
              Baa    -0.0368   -19.642    -7.009    -6.552 -0.1932 -0.2888  0.9377
    10 H(1)   Bbb    -0.0212   -11.292    -4.029    -3.767  0.9658  0.1122  0.2336
              Bcc     0.0580    30.934    11.038    10.319 -0.1726  0.9508  0.2573
 
              Baa    -0.0131    -1.761    -0.628    -0.587 -0.4866 -0.4522  0.7475
    11 C(13)  Bbb     0.0004     0.053     0.019     0.018 -0.2004  0.8906  0.4083
              Bcc     0.0127     1.708     0.610     0.570  0.8503 -0.0489  0.5239
 
              Baa    -0.0114    -6.093    -2.174    -2.033 -0.1765 -0.3678  0.9130
    12 H(1)   Bbb     0.0037     1.982     0.707     0.661 -0.4358  0.8609  0.2625
              Bcc     0.0077     4.111     1.467     1.371  0.8826  0.3515  0.3123
 
              Baa    -0.0148    -7.901    -2.819    -2.635  0.4885  0.6717 -0.5569
    13 H(1)   Bbb     0.0001     0.069     0.024     0.023 -0.2560  0.7205  0.6445
              Bcc     0.0147     7.832     2.795     2.613  0.8342 -0.1723  0.5239
 
              Baa    -0.0152    -8.104    -2.892    -2.703  0.7137  0.1014 -0.6931
    14 H(1)   Bbb     0.0019     1.015     0.362     0.339 -0.2917  0.9426 -0.1624
              Bcc     0.0133     7.089     2.530     2.365  0.6369  0.3180  0.7023
 
              Baa    -0.0059    -0.787    -0.281    -0.262  0.6349  0.4198  0.6485
    15 C(13)  Bbb    -0.0011    -0.147    -0.052    -0.049  0.0753  0.8018 -0.5928
              Bcc     0.0070     0.934     0.333     0.312  0.7689 -0.4252 -0.4775
 
              Baa    -0.0030    -1.596    -0.569    -0.532  0.5073  0.5595  0.6554
    16 H(1)   Bbb    -0.0001    -0.071    -0.025    -0.024 -0.0897  0.7907 -0.6055
              Bcc     0.0031     1.667     0.595     0.556  0.8571 -0.2484 -0.4513
 
              Baa    -0.0101    -5.370    -1.916    -1.791  0.4378  0.4535  0.7763
    17 H(1)   Bbb    -0.0001    -0.032    -0.011    -0.011 -0.1434  0.8876 -0.4377
              Bcc     0.0101     5.402     1.928     1.802  0.8876 -0.0803 -0.4536
 
              Baa    -0.0055    -2.923    -1.043    -0.975  0.8376  0.3402  0.4274
    18 H(1)   Bbb    -0.0024    -1.306    -0.466    -0.436 -0.0213  0.8021 -0.5968
              Bcc     0.0079     4.229     1.509     1.411 -0.5459  0.4907  0.6791
 
              Baa    -0.0553    -7.427    -2.650    -2.478  0.9665  0.1040 -0.2347
    19 C(13)  Bbb    -0.0342    -4.588    -1.637    -1.530  0.2567 -0.4027  0.8786
              Bcc     0.0895    12.015     4.287     4.008  0.0031  0.9094  0.4159
 
              Baa    -0.2058   -27.622    -9.856    -9.214  0.0339  0.9210  0.3880
    20 C(13)  Bbb     0.1018    13.657     4.873     4.555 -0.6607 -0.2707  0.7001
              Bcc     0.1041    13.965     4.983     4.658  0.7498 -0.2801  0.5994
 
              Baa    -0.2113   -28.349   -10.116    -9.456  0.0369  0.9128  0.4068
    21 C(13)  Bbb     0.1046    14.042     5.011     4.684  0.9786  0.0495 -0.1997
              Bcc     0.1066    14.307     5.105     4.772  0.2024 -0.4054  0.8914
 
              Baa    -0.0511    -6.862    -2.449    -2.289  0.9779 -0.1195  0.1714
    22 C(13)  Bbb    -0.0398    -5.337    -1.904    -1.780 -0.2047 -0.3850  0.8999
              Bcc     0.0909    12.199     4.353     4.069  0.0416  0.9151  0.4010
 
              Baa    -0.0127    -6.781    -2.420    -2.262  0.5747 -0.3311  0.7484
    23 H(1)   Bbb     0.0023     1.214     0.433     0.405 -0.0082  0.9121  0.4098
              Bcc     0.0104     5.567     1.986     1.857  0.8183  0.2416 -0.5215
 
              Baa    -0.0508    -6.812    -2.431    -2.272  0.7876  0.2196 -0.5757
    24 C(13)  Bbb    -0.0390    -5.230    -1.866    -1.744  0.6143 -0.3528  0.7059
              Bcc     0.0897    12.041     4.297     4.017  0.0481  0.9096  0.4128
 
              Baa    -0.0136    -7.239    -2.583    -2.415 -0.1660 -0.3645  0.9163
    25 H(1)   Bbb     0.0026     1.405     0.501     0.469 -0.0466  0.9310  0.3620
              Bcc     0.0109     5.834     2.082     1.946  0.9850 -0.0174  0.1715
 
              Baa    -0.2447   -32.831   -11.715   -10.951  0.0412  0.9115  0.4091
    26 C(13)  Bbb     0.1171    15.718     5.609     5.243  0.9711  0.0598 -0.2310
              Bcc     0.1275    17.112     6.106     5.708  0.2350 -0.4068  0.8828
 
              Baa    -0.0054    -2.865    -1.022    -0.956  0.9749 -0.1332  0.1783
    27 H(1)   Bbb     0.0018     0.967     0.345     0.323 -0.2156 -0.3657  0.9054
              Bcc     0.0036     1.898     0.677     0.633  0.0553  0.9212  0.3853
 
              Baa    -0.0055    -2.940    -1.049    -0.981  0.8107  0.2045 -0.5486
    28 H(1)   Bbb     0.0020     1.051     0.375     0.351  0.5822 -0.3802  0.7187
              Bcc     0.0035     1.889     0.674     0.630  0.0616  0.9020  0.4273
 
              Baa    -0.0174    -9.269    -3.307    -3.092  0.9738  0.0518 -0.2216
    29 H(1)   Bbb    -0.0001    -0.056    -0.020    -0.019  0.0442  0.9123  0.4071
              Bcc     0.0175     9.325     3.327     3.110  0.2233 -0.4062  0.8861
 
              Baa    -0.0025    -0.339    -0.121    -0.113  0.1895  0.9579  0.2157
    30 C(13)  Bbb     0.0002     0.022     0.008     0.007 -0.0111 -0.2176  0.9760
              Bcc     0.0024     0.317     0.113     0.106  0.9818 -0.1873 -0.0306
 
              Baa    -0.0052    -0.704    -0.251    -0.235  0.0841  0.9340  0.3473
    31 C(13)  Bbb     0.0017     0.225     0.080     0.075 -0.1917 -0.3268  0.9254
              Bcc     0.0036     0.480     0.171     0.160  0.9778 -0.1444  0.1515
 
              Baa    -0.0091    -1.225    -0.437    -0.409 -0.0568  0.7870  0.6144
    32 C(13)  Bbb     0.0040     0.536     0.191     0.179  0.0226 -0.6142  0.7888
              Bcc     0.0051     0.689     0.246     0.230  0.9981  0.0587  0.0171
 
              Baa    -0.0019    -0.248    -0.089    -0.083 -0.0851  0.7978 -0.5969
    33 C(13)  Bbb    -0.0003    -0.036    -0.013    -0.012  0.9817 -0.0352 -0.1870
              Bcc     0.0021     0.284     0.101     0.095  0.1702  0.6019  0.7802
 
              Baa    -0.0025    -1.317    -0.470    -0.439  0.3290  0.9378 -0.1108
    34 H(1)   Bbb     0.0002     0.129     0.046     0.043 -0.2639  0.2040  0.9427
              Bcc     0.0022     1.188     0.424     0.396  0.9067 -0.2809  0.3146
 
              Baa    -0.0013    -0.173    -0.062    -0.058  0.8076 -0.5499 -0.2131
    35 C(13)  Bbb    -0.0006    -0.075    -0.027    -0.025 -0.2546 -0.6511  0.7150
              Bcc     0.0018     0.248     0.089     0.083  0.5320  0.5232  0.6658
 
              Baa    -0.0037    -1.988    -0.709    -0.663 -0.0520  0.8057  0.5900
    36 H(1)   Bbb     0.0009     0.494     0.176     0.165  0.0759 -0.5859  0.8068
              Bcc     0.0028     1.494     0.533     0.498  0.9958  0.0867 -0.0307
 
              Baa    -0.0088    -1.187    -0.423    -0.396 -0.0868  0.9112  0.4028
    37 C(13)  Bbb     0.0042     0.557     0.199     0.186  0.5006 -0.3097  0.8084
              Bcc     0.0047     0.630     0.225     0.210  0.8613  0.2719 -0.4293
 
              Baa    -0.0011    -0.603    -0.215    -0.201 -0.0611  0.9646 -0.2564
    38 H(1)   Bbb     0.0004     0.219     0.078     0.073 -0.5634  0.1787  0.8066
              Bcc     0.0007     0.384     0.137     0.128  0.8239  0.1938  0.5325
 
              Baa    -0.0023    -1.208    -0.431    -0.403 -0.2563  0.8825  0.3944
    39 H(1)   Bbb     0.0008     0.441     0.157     0.147  0.8604  0.3942 -0.3230
              Bcc     0.0014     0.766     0.273     0.256  0.4405 -0.2565  0.8603
 
              Baa    -0.0014    -0.750    -0.268    -0.250 -0.5832  0.8104 -0.0554
    40 H(1)   Bbb     0.0005     0.245     0.088     0.082  0.7248  0.5499  0.4151
              Bcc     0.0009     0.505     0.180     0.168 -0.3669 -0.2019  0.9081
 

 ---------------------------------------------------------------------------------

 No NMR shielding tensors so no spin-rotation constants.
 Leave Link  601 at Sun Jun  2 14:34:54 2019, MaxMem=   104857600 cpu:              21.0 elap:               0.7
 (Enter /project/6004141/group/g16/g16/l9999.exe)
 1\1\GINC-BLG4715\FOpt\UB3LYP\6-31G(d,p)\C16H20N2O2\RZK\02-Jun-2019\0\\
 #p opt ub3lyp/6-31g(d,p) scrf=(iefpcm,solvent=acetonitrile) guess=(mix
 ,always) empiricaldispersion=gd3\\Title Card Required\\0,1\C,0.9308743
 731,-1.4390552872,-0.7763992377\H,4.1234050704,-0.3006522394,1.2091783
 316\C,1.1443425282,1.6072080685,0.9124125636\O,2.0071136777,2.14097872
 82,0.2086565807\O,1.8193661072,-1.9129013496,0.1362001905\N,4.33537092
 35,0.5329421466,-0.4886577292\H,4.2205845815,0.3922022422,-1.485617828
 2\N,4.1738691862,-0.5952663473,0.229212368\H,2.7334431113,-1.534302105
 5,-0.00270289\H,3.891749689,1.386221903,-0.1422018871\C,1.4753299924,-
 0.6694033786,-1.9400099918\H,0.7749956284,-0.637445635,-2.7754849365\H
 ,1.7092539347,0.3678580015,-1.662841711\H,2.399621682,-1.1347986887,-2
 .3022367169\C,1.5437028747,0.8009241831,2.1276310017\H,0.9093571818,1.
 0137718509,2.9910438981\H,1.4546826485,-0.2665704281,1.8930846103\H,2.
 5807944376,1.0270210261,2.3791375305\C,-0.4427533594,-1.6857259244,-0.
 5153991569\C,-0.8440084564,-2.3631157147,0.6763131459\C,-1.4787517472,
 -1.2698025105,-1.4025210902\C,-2.1828094282,-2.6071187588,0.9470328305
 \H,-0.0808022964,-2.6865531076,1.3745683245\C,-2.8115435675,-1.5256932
 663,-1.1183223802\H,-1.2316353883,-0.7267695241,-2.3078427726\C,-3.184
 0365695,-2.1973959759,0.055011553\H,-2.4545418809,-3.1229157919,1.8646
 37913\H,-3.5758163273,-1.1879902718,-1.8131142309\H,-4.2300955976,-2.3
 904726208,0.2718704192\C,-0.2961135302,1.7330498816,0.5584594401\C,-0.
 6489179254,2.5219482161,-0.5504151452\C,-1.3078864207,1.0883275322,1.2
 890663462\C,-1.9834738472,2.6740453444,-0.912087021\H,0.1400910684,3.0
 102973303,-1.1117196916\C,-2.6434569368,1.2395968003,0.9234044378\H,-1
 .059628565,0.4474344608,2.1263073963\C,-2.9840042,2.0353182823,-0.1718
 476027\H,-2.2471772366,3.2880304784,-1.767908961\H,-3.4154353578,0.720
 7001834,1.4811578684\H,-4.0259500582,2.1503662661,-0.4554177691\\Versi
 on=ES64L-G16RevA.03\State=1-A\HF=-881.694213\S2=1.021316\S2-1=0.\S2A=0
 .206126\RMSD=7.586e-09\RMSF=1.031e-05\Dipole=-0.4549253,1.2463928,0.07
 46572\Quadrupole=2.3556428,-10.4361433,8.0805005,1.1637313,-0.7374255,
 -3.0689997\PG=C01 [X(C16H20N2O2)]\\@


 GARLIC THEN HAVE POWER TO SAVE FROM DEATH
 BEAR WITH IT THOUGH IT MAKETH UNSAVORY BREATH,
 AND SCORN NOT GARLIC LIKE SOME THAT THINK
 IT ONLY MAKETH MEN WINK AND DRINK AND STINK.
   --  SIR JOHN HARRINGTON,
       "THE ENGLISHMAN'S DOCTOR", 1609
 Job cpu time:       5 days 17 hours  5 minutes 44.6 seconds.
 Elapsed time:       0 days  3 hours 32 minutes 52.3 seconds.
 File lengths (MBytes):  RWF=    443 Int=      0 D2E=      0 Chk=     22 Scr=      2
 Normal termination of Gaussian 16 at Sun Jun  2 14:34:55 2019.
