 Entering Gaussian System, Link 0=g16
 Initial command:
 /project/6004141/group/g16/g16/l1.exe "/scratch/rzk/Gau-438225.inp" -scrdir="/scratch/rzk/"
 Entering Link 1 = /project/6004141/group/g16/g16/l1.exe PID=    438226.
  
 Copyright (c) 1988,1990,1992,1993,1995,1998,2003,2009,2016,
            Gaussian, Inc.  All Rights Reserved.
  
 This is part of the Gaussian(R) 16 program.  It is based on
 the Gaussian(R) 09 system (copyright 2009, Gaussian, Inc.),
 the Gaussian(R) 03 system (copyright 2003, Gaussian, Inc.),
 the Gaussian(R) 98 system (copyright 1998, Gaussian, Inc.),
 the Gaussian(R) 94 system (copyright 1995, Gaussian, Inc.),
 the Gaussian 92(TM) system (copyright 1992, Gaussian, Inc.),
 the Gaussian 90(TM) system (copyright 1990, Gaussian, Inc.),
 the Gaussian 88(TM) system (copyright 1988, Gaussian, Inc.),
 the Gaussian 86(TM) system (copyright 1986, Carnegie Mellon
 University), and the Gaussian 82(TM) system (copyright 1983,
 Carnegie Mellon University). Gaussian is a federally registered
 trademark of Gaussian, Inc.
  
 This software contains proprietary and confidential information,
 including trade secrets, belonging to Gaussian, Inc.
  
 This software is provided under written license and may be
 used, copied, transmitted, or stored only in accord with that
 written license.
  
 The following legend is applicable only to US Government
 contracts under FAR:
  
                    RESTRICTED RIGHTS LEGEND
  
 Use, reproduction and disclosure by the US Government is
 subject to restrictions as set forth in subparagraphs (a)
 and (c) of the Commercial Computer Software - Restricted
 Rights clause in FAR 52.227-19.
  
 Gaussian, Inc.
 340 Quinnipiac St., Bldg. 40, Wallingford CT 06492
  
  
 ---------------------------------------------------------------
 Warning -- This program may not be used in any manner that
 competes with the business of Gaussian, Inc. or will provide
 assistance to any competitor of Gaussian, Inc.  The licensee
 of this program is prohibited from giving any competitor of
 Gaussian, Inc. access to this program.  By using this program,
 the user acknowledges that Gaussian, Inc. is engaged in the
 business of creating and licensing software in the field of
 computational chemistry and represents and warrants to the
 licensee that it is not a competitor of Gaussian, Inc. and that
 it will not use this program in any manner prohibited above.
 ---------------------------------------------------------------
  

 Cite this work as:
 Gaussian 16, Revision A.03,
 M. J. Frisch, G. W. Trucks, H. B. Schlegel, G. E. Scuseria, 
 M. A. Robb, J. R. Cheeseman, G. Scalmani, V. Barone, 
 G. A. Petersson, H. Nakatsuji, X. Li, M. Caricato, A. V. Marenich, 
 J. Bloino, B. G. Janesko, R. Gomperts, B. Mennucci, H. P. Hratchian, 
 J. V. Ortiz, A. F. Izmaylov, J. L. Sonnenberg, D. Williams-Young, 
 F. Ding, F. Lipparini, F. Egidi, J. Goings, B. Peng, A. Petrone, 
 T. Henderson, D. Ranasinghe, V. G. Zakrzewski, J. Gao, N. Rega, 
 G. Zheng, W. Liang, M. Hada, M. Ehara, K. Toyota, R. Fukuda, 
 J. Hasegawa, M. Ishida, T. Nakajima, Y. Honda, O. Kitao, H. Nakai, 
 T. Vreven, K. Throssell, J. A. Montgomery, Jr., J. E. Peralta, 
 F. Ogliaro, M. J. Bearpark, J. J. Heyd, E. N. Brothers, K. N. Kudin, 
 V. N. Staroverov, T. A. Keith, R. Kobayashi, J. Normand, 
 K. Raghavachari, A. P. Rendell, J. C. Burant, S. S. Iyengar, 
 J. Tomasi, M. Cossi, J. M. Millam, M. Klene, C. Adamo, R. Cammi, 
 J. W. Ochterski, R. L. Martin, K. Morokuma, O. Farkas, 
 J. B. Foresman, and D. J. Fox, Gaussian, Inc., Wallingford CT, 2016.
 
 ******************************************
 Gaussian 16:  ES64L-G16RevA.03 25-Dec-2016
                14-Jun-2019 
 ******************************************
 %NProcShared=40
 Will use up to   40 processors via shared memory.
 %chk=AABH-freq.chk
 ----------------------------------------------------------------------
 #p freq ub3lyp/6-31g(d,p) scrf=(iefpcm,solvent=acetonitrile) guess=(mi
 x,always) empiricaldispersion=gd3
 ----------------------------------------------------------------------
 1/10=4,30=1,38=1/1,3;
 2/12=2,17=6,18=5,40=1/2;
 3/5=1,6=6,7=101,11=2,25=1,30=1,70=2201,71=2,72=2,74=-5,116=2,124=31,140=1/1,2,3;
 4/13=-1/1;
 5/5=2,38=5,53=2,98=1/2;
 8/6=4,10=90,11=11/1;
 11/6=1,8=1,9=11,15=111,16=1/1,2,10;
 10/6=1/2;
 6/7=2,8=2,9=2,10=2,28=1/1;
 7/8=1,10=1,25=1/1,2,3,16;
 1/10=4,30=1/3;
 99//99;
 Leave Link    1 at Fri Jun 14 12:57:07 2019, MaxMem=           0 cpu:              10.1 elap:               0.3
 (Enter /project/6004141/group/g16/g16/l101.exe)
 -------------------
 Title Card Required
 -------------------
 Symbolic Z-matrix:
 Charge =  0 Multiplicity = 1
 C                     0.76648  -1.59592  -0.67528 
 H                     4.09817  -0.65598   1.18135 
 C                     1.33561   1.53346   0.76015 
 O                     2.23761   1.91336   0.00741 
 O                     1.6156   -2.08935   0.26403 
 N                     4.36722   0.01274  -0.58015 
 H                     4.21989  -0.19324  -1.56136 
 N                     4.09895  -1.03098   0.22791 
 H                     2.56228  -1.82406   0.0863 
 H                     4.0239    0.93374  -0.29943 
 C                     1.36894  -0.98424  -1.90234 
 H                     0.66095  -0.94295  -2.73094 
 H                     1.71759   0.04029  -1.71201 
 H                     2.23133  -1.57411  -2.23467 
 C                     1.6684    0.78746   2.03258 
 H                     1.07632   1.13538   2.88204 
 H                     1.46134  -0.27933   1.88578 
 H                     2.72814   0.91923   2.25509 
 C                    -0.62068  -1.67109  -0.3821 
 C                    -1.07039  -2.2046    0.86416 
 C                    -1.62217  -1.21707  -1.28994 
 C                    -2.42247  -2.28012   1.16648 
 H                    -0.33362  -2.5524    1.5789 
 C                    -2.9693   -1.30396  -0.97328 
 H                    -1.33486  -0.77735  -2.23844 
 C                    -3.39015  -1.8364    0.25393 
 H                    -2.73112  -2.68922   2.12526 
 H                    -3.70555  -0.94163  -1.68571 
 H                    -4.44674  -1.8974    0.49565 
 C                    -0.0893    1.78598   0.411 
 C                    -0.37574   2.51814  -0.75448 
 C                    -1.15082   1.31439   1.20088 
 C                    -1.6927    2.78461  -1.11446 
 H                     0.45067   2.87228  -1.36088 
 C                    -2.46895   1.57983   0.837 
 H                    -0.95741   0.71871   2.08468 
 C                    -2.74222   2.3185   -0.31557 
 H                    -1.90469   3.35382  -2.01446 
 H                    -3.28176   1.1933    1.44216 
 H                    -3.77085   2.52278  -0.59751 
 
 ITRead=  0  0  0  0  0  0  0  0  0  0  0  0  0  0  0  0  0  0  0  0
 ITRead=  0  0  0  0  0  0  0  0  0  0  0  0  0  0  0  0  0  0  0  0
 MicOpt= -1 -1 -1 -1 -1 -1 -1 -1 -1 -1 -1 -1 -1 -1 -1 -1 -1 -1 -1 -1
 MicOpt= -1 -1 -1 -1 -1 -1 -1 -1 -1 -1 -1 -1 -1 -1 -1 -1 -1 -1 -1 -1
 NAtoms=     40 NQM=       40 NQMF=       0 NMMI=      0 NMMIF=      0
                NMic=       0 NMicF=      0.
                    Isotopes and Nuclear Properties:
 (Nuclear quadrupole moments (NQMom) in fm**2, nuclear magnetic moments (NMagM)
  in nuclear magnetons)

  Atom         1           2           3           4           5           6           7           8           9          10
 IAtWgt=          12           1          12          16          16          14           1          14           1           1
 AtmWgt=  12.0000000   1.0078250  12.0000000  15.9949146  15.9949146  14.0030740   1.0078250  14.0030740   1.0078250   1.0078250
 NucSpn=           0           1           0           0           0           2           1           2           1           1
 AtZEff=  -0.0000000  -0.0000000  -0.0000000  -0.0000000  -0.0000000  -0.0000000  -0.0000000  -0.0000000  -0.0000000  -0.0000000
 NQMom=    0.0000000   0.0000000   0.0000000   0.0000000   0.0000000   2.0440000   0.0000000   2.0440000   0.0000000   0.0000000
 NMagM=    0.0000000   2.7928460   0.0000000   0.0000000   0.0000000   0.4037610   2.7928460   0.4037610   2.7928460   2.7928460
 AtZNuc=   6.0000000   1.0000000   6.0000000   8.0000000   8.0000000   7.0000000   1.0000000   7.0000000   1.0000000   1.0000000

  Atom        11          12          13          14          15          16          17          18          19          20
 IAtWgt=          12           1           1           1          12           1           1           1          12          12
 AtmWgt=  12.0000000   1.0078250   1.0078250   1.0078250  12.0000000   1.0078250   1.0078250   1.0078250  12.0000000  12.0000000
 NucSpn=           0           1           1           1           0           1           1           1           0           0
 AtZEff=  -0.0000000  -0.0000000  -0.0000000  -0.0000000  -0.0000000  -0.0000000  -0.0000000  -0.0000000  -0.0000000  -0.0000000
 NQMom=    0.0000000   0.0000000   0.0000000   0.0000000   0.0000000   0.0000000   0.0000000   0.0000000   0.0000000   0.0000000
 NMagM=    0.0000000   2.7928460   2.7928460   2.7928460   0.0000000   2.7928460   2.7928460   2.7928460   0.0000000   0.0000000
 AtZNuc=   6.0000000   1.0000000   1.0000000   1.0000000   6.0000000   1.0000000   1.0000000   1.0000000   6.0000000   6.0000000

  Atom        21          22          23          24          25          26          27          28          29          30
 IAtWgt=          12          12           1          12           1          12           1           1           1          12
 AtmWgt=  12.0000000  12.0000000   1.0078250  12.0000000   1.0078250  12.0000000   1.0078250   1.0078250   1.0078250  12.0000000
 NucSpn=           0           0           1           0           1           0           1           1           1           0
 AtZEff=  -0.0000000  -0.0000000  -0.0000000  -0.0000000  -0.0000000  -0.0000000  -0.0000000  -0.0000000  -0.0000000  -0.0000000
 NQMom=    0.0000000   0.0000000   0.0000000   0.0000000   0.0000000   0.0000000   0.0000000   0.0000000   0.0000000   0.0000000
 NMagM=    0.0000000   0.0000000   2.7928460   0.0000000   2.7928460   0.0000000   2.7928460   2.7928460   2.7928460   0.0000000
 AtZNuc=   6.0000000   6.0000000   1.0000000   6.0000000   1.0000000   6.0000000   1.0000000   1.0000000   1.0000000   6.0000000

  Atom        31          32          33          34          35          36          37          38          39          40
 IAtWgt=          12          12          12           1          12           1          12           1           1           1
 AtmWgt=  12.0000000  12.0000000  12.0000000   1.0078250  12.0000000   1.0078250  12.0000000   1.0078250   1.0078250   1.0078250
 NucSpn=           0           0           0           1           0           1           0           1           1           1
 AtZEff=  -0.0000000  -0.0000000  -0.0000000  -0.0000000  -0.0000000  -0.0000000  -0.0000000  -0.0000000  -0.0000000  -0.0000000
 NQMom=    0.0000000   0.0000000   0.0000000   0.0000000   0.0000000   0.0000000   0.0000000   0.0000000   0.0000000   0.0000000
 NMagM=    0.0000000   0.0000000   0.0000000   2.7928460   0.0000000   2.7928460   0.0000000   2.7928460   2.7928460   2.7928460
 AtZNuc=   6.0000000   6.0000000   6.0000000   1.0000000   6.0000000   1.0000000   6.0000000   1.0000000   1.0000000   1.0000000
 Leave Link  101 at Fri Jun 14 12:57:08 2019, MaxMem=   104857600 cpu:               7.9 elap:               0.3
 (Enter /project/6004141/group/g16/g16/l103.exe)

 GradGradGradGradGradGradGradGradGradGradGradGradGradGradGradGradGradGrad
 Berny optimization.
 Initialization pass.
 Trust Radius=3.00D-01 FncErr=1.00D-07 GrdErr=1.00D-07 EigMax=2.50D+02 EigMin=1.00D-04
 Number of steps in this run=      2 maximum allowed number of steps=      2.
 GradGradGradGradGradGradGradGradGradGradGradGradGradGradGradGradGradGrad

 Leave Link  103 at Fri Jun 14 12:57:08 2019, MaxMem=   104857600 cpu:               2.6 elap:               0.1
 (Enter /project/6004141/group/g16/g16/l202.exe)
                          Input orientation:                          
 ---------------------------------------------------------------------
 Center     Atomic      Atomic             Coordinates (Angstroms)
 Number     Number       Type             X           Y           Z
 ---------------------------------------------------------------------
      1          6           0        0.766480   -1.595915   -0.675280
      2          1           0        4.098170   -0.655976    1.181354
      3          6           0        1.335606    1.533462    0.760153
      4          8           0        2.237611    1.913355    0.007408
      5          8           0        1.615597   -2.089354    0.264031
      6          7           0        4.367223    0.012739   -0.580148
      7          1           0        4.219893   -0.193244   -1.561360
      8          7           0        4.098947   -1.030977    0.227912
      9          1           0        2.562275   -1.824062    0.086299
     10          1           0        4.023896    0.933740   -0.299431
     11          6           0        1.368936   -0.984241   -1.902344
     12          1           0        0.660954   -0.942951   -2.730936
     13          1           0        1.717585    0.040294   -1.712010
     14          1           0        2.231334   -1.574110   -2.234670
     15          6           0        1.668400    0.787463    2.032580
     16          1           0        1.076318    1.135376    2.882036
     17          1           0        1.461336   -0.279334    1.885780
     18          1           0        2.728144    0.919232    2.255094
     19          6           0       -0.620681   -1.671086   -0.382102
     20          6           0       -1.070394   -2.204599    0.864158
     21          6           0       -1.622170   -1.217071   -1.289935
     22          6           0       -2.422472   -2.280125    1.166475
     23          1           0       -0.333620   -2.552403    1.578897
     24          6           0       -2.969302   -1.303960   -0.973281
     25          1           0       -1.334856   -0.777352   -2.238437
     26          6           0       -3.390148   -1.836404    0.253927
     27          1           0       -2.731116   -2.689218    2.125259
     28          1           0       -3.705546   -0.941630   -1.685709
     29          1           0       -4.446744   -1.897399    0.495652
     30          6           0       -0.089300    1.785984    0.410997
     31          6           0       -0.375739    2.518137   -0.754481
     32          6           0       -1.150817    1.314386    1.200881
     33          6           0       -1.692700    2.784608   -1.114460
     34          1           0        0.450671    2.872277   -1.360875
     35          6           0       -2.468948    1.579831    0.837001
     36          1           0       -0.957405    0.718707    2.084683
     37          6           0       -2.742224    2.318498   -0.315567
     38          1           0       -1.904686    3.353822   -2.014463
     39          1           0       -3.281764    1.193296    1.442158
     40          1           0       -3.770851    2.522782   -0.597514
 ---------------------------------------------------------------------
                    Distance matrix (angstroms):
                    1          2          3          4          5
     1  C    0.000000
     2  H    3.928197   0.000000
     3  C    3.489609   3.550044   0.000000
     4  O    3.865911   3.382498   1.234729   0.000000
     5  O    1.358965   3.009854   3.667333   4.058871   0.000000
     6  N    3.944891   1.903276   3.646876   2.914243   3.564110
     7  H    3.831277   2.784137   4.085345   3.290628   3.702654
     8  N    3.498606   1.024538   3.807319   3.490313   2.699721
     9  H    1.963908   2.218681   3.637549   3.752321   0.999083
    10  H    4.141398   2.173807   2.951150   2.060245   3.905956
    11  C    1.497593   4.131062   3.664537   3.577403   2.444442
    12  H    2.159449   5.215632   4.333068   4.259444   3.345954
    13  H    2.157913   3.810975   2.913254   2.595223   2.906981
    14  H    2.139619   3.999658   4.407754   4.146006   2.624522
    15  C    3.718394   2.951590   1.512064   2.385992   3.377370
    16  H    4.495603   3.902928   2.174417   3.196457   4.188515
    17  H    2.962303   2.755171   2.137539   2.989777   2.435167
    18  H    4.331418   2.347588   2.133375   2.506191   3.775405
    19  C    1.419796   5.073697   3.924402   4.601062   2.365032
    20  C    2.472746   5.404896   4.446656   5.351118   2.754629
    21  C    2.495390   6.256548   4.529540   5.136202   3.695785
    22  C    3.745613   6.719885   5.369515   6.375350   4.142077
    23  H    2.684474   4.836862   4.488981   5.387374   2.396400
    24  C    3.759004   7.416973   5.439484   6.198775   4.813427
    25  H    2.743924   6.420862   4.632793   5.004622   4.085201
    26  C    4.266007   7.637306   5.826235   6.767063   5.012142
    27  H    4.612105   7.187780   6.019366   7.096282   4.766332
    28  H    4.631206   8.318632   6.125482   6.807253   5.782155
    29  H    5.351605   8.661805   6.728770   7.709788   6.069800
    30  C    3.653710   4.908312   1.488635   2.365084   4.236333
    31  C    4.270405   5.817071   2.488454   2.788518   5.121695
    32  C    3.958012   5.606654   2.534667   3.642058   4.485107
    33  C    5.042760   7.116358   3.774941   4.179116   6.049841
    34  H    4.531503   5.675892   2.659755   2.446402   5.349313
    35  C    4.779158   6.945823   3.805613   4.790737   5.520391
    36  H    3.993326   5.316446   2.770578   3.993793   4.221412
    37  C    5.269063   7.607842   4.289773   5.006717   6.225407
    38  H    5.781733   7.894682   4.638070   4.829237   6.871106
    39  H    5.352712   7.612572   4.679845   5.748086   6.012314
    40  H    6.128384   8.671238   5.375678   6.069510   7.143380
                    6          7          8          9         10
     6  N    0.000000
     7  H    1.013367   0.000000
     8  N    1.346951   1.979373   0.000000
     9  H    2.660043   2.849920   1.735050   0.000000
    10  H    1.022212   1.703224   2.035641   3.144932   0.000000
    11  C    3.425186   2.978238   3.463111   2.466588   3.646477
    12  H    4.390406   3.820473   4.536775   3.511152   4.554510
    13  H    2.881398   2.517694   3.252968   2.724562   2.848279
    14  H    3.133298   2.512868   3.138038   2.357731   3.639745
    15  C    3.835387   4.515341   3.531446   3.377438   3.317836
    16  H    4.906841   5.602773   4.568779   4.333877   4.341728
    17  H    3.822340   4.415860   3.204760   2.614648   3.579582
    18  H    3.398074   4.245967   3.129198   3.500978   2.864399
    19  C    5.268176   5.196713   4.801744   3.220871   5.325791
    20  C    6.047337   6.157583   5.338940   3.734455   6.095482
    21  C    6.155409   5.937305   5.921965   4.446576   6.122512
    22  C    7.376169   7.477778   6.705981   5.120789   7.350746
    23  H    5.774024   6.013429   4.877248   3.338343   5.888060
    24  C    7.464104   7.298223   7.174784   5.656108   7.373343
    25  H    5.990649   5.626264   5.972723   4.656998   5.950110
    26  C    8.018218   7.994246   7.532326   5.954796   7.933974
    27  H    8.062643   8.254549   7.280072   5.738104   8.039598
    28  H    8.203821   7.961666   8.036171   6.572996   8.073602
    29  H    9.082510   9.068960   8.593672   7.021346   8.966563
    30  C    4.897690   5.135823   5.050763   4.490959   4.260212
    31  C    5.366852   5.396524   5.795181   5.309758   4.698316
    32  C    5.942652   6.224745   5.831588   4.987905   5.401248
    33  C    6.685164   6.635215   7.064264   6.386429   6.063782
    34  H    4.911809   4.862576   5.574007   5.348718   4.201491
    35  C    7.155230   7.323696   7.093980   6.120723   6.623136
    36  H    5.995947   6.397632   5.663540   4.779891   5.526626
    37  C    7.478687   7.505459   7.636490   6.742404   6.906388
    38  H    7.249616   7.092069   7.765199   7.153840   6.629194
    39  H    7.999402   8.198687   7.803632   6.715325   7.514863
    40  H    8.516388   8.494574   8.674344   7.711753   7.960653
                   11         12         13         14         15
    11  C    0.000000
    12  H    1.090646   0.000000
    13  H    1.098843   1.766763   0.000000
    14  H    1.096411   1.763728   1.772967   0.000000
    15  C    4.325765   5.167240   3.818722   4.909516   0.000000
    16  H    5.241058   5.999785   4.766098   5.903902   1.092328
    17  H    3.854259   4.732342   3.621038   4.387192   1.096577
    18  H    4.770215   5.709772   4.187084   5.159608   1.090840
    19  C    2.596434   2.773047   3.188254   3.402264   4.137033
    20  C    3.884989   4.184976   4.410104   4.571833   4.221213
    21  C    3.062021   2.713721   3.593477   3.983653   5.087741
    22  C    5.046954   5.146393   5.550684   5.807250   5.186084
    23  H    4.180534   4.706822   4.664717   4.698866   3.920283
    24  C    4.448111   4.049498   4.931496   5.358236   5.909106
    25  H    2.732444   2.062337   3.203602   3.654114   5.450668
    26  C    5.293823   5.110684   5.785831   6.153290   5.969689
    27  H    5.994911   6.175615   6.478102   6.699131   5.608176
    28  H    5.079283   4.489858   5.511372   5.995660   6.759788
    29  H    6.356601   6.116406   6.828424   7.221904   6.853147
    30  C    3.892576   4.228677   3.289290   4.865709   2.591541
    31  C    4.077761   4.118281   3.382096   5.072896   3.865417
    32  C    4.611165   4.882343   4.282053   5.620086   2.986194
    33  C    4.919207   4.695464   4.417960   5.970874   5.018908
    34  H    4.001141   4.059218   3.122258   4.868741   4.164715
    35  C    5.367293   5.375025   5.137576   6.440121   4.378916
    36  H    4.920191   5.345127   4.693687   5.837969   2.627222
    37  C    5.507048   5.296478   5.199054   6.600881   5.226037
    38  H    5.435804   5.055502   4.918515   6.437365   5.977600
    39  H    6.128325   6.125626   6.022597   7.181354   5.001742
    40  H    6.357610   6.016950   6.125992   7.449230   6.286030
                   16         17         18         19         20
    16  H    0.000000
    17  H    1.772617   0.000000
    18  H    1.779973   1.782626   0.000000
    19  C    4.627162   3.378618   4.987903   0.000000
    20  C    4.453722   3.340661   5.110960   1.428300   0.000000
    21  C    5.497380   4.524658   6.004686   1.425928   2.433061
    22  C    5.181730   4.427700   6.160343   2.452646   1.387521
    23  H    4.157621   2.912540   4.678022   2.169018   1.083815
    24  C    6.097612   5.371652   6.915626   2.449550   2.791628
    25  H    5.974239   5.007582   6.291120   2.180547   3.425357
    26  C    5.973923   5.350169   7.002264   2.846368   2.426769
    27  H    5.449476   4.841647   6.545326   3.431820   2.140848
    28  H    6.931412   6.315920   7.770785   3.427519   3.878265
    29  H    6.737712   6.281401   7.906204   3.931975   3.410265
    30  C    2.808557   2.974054   3.477060   3.586461   4.134326
    31  C    4.152680   4.262824   4.609569   4.212867   5.040513
    32  C    2.796150   3.135662   4.039041   3.420515   3.535973
    33  C    5.134141   5.323263   5.863223   4.640989   5.403182
    34  H    4.627154   4.636255   4.698564   4.769480   5.747963
    35  C    4.116870   4.472534   5.427444   3.933289   4.034675
    36  H    2.223829   2.624111   3.694932   3.451018   3.169884
    37  C    5.119151   5.409674   6.204125   4.519088   4.964391
    38  H    6.146836   6.304112   6.754218   5.437184   6.314946
    39  H    4.590151   4.986225   6.070829   4.314391   4.095111
    40  H    6.125946   6.433847   7.276378   5.249619   5.637117
                   21         22         23         24         25
    21  C    0.000000
    22  C    2.793657   0.000000
    23  H    3.416675   2.146516   0.000000
    24  C    1.386573   2.414638   3.875441   0.000000
    25  H    1.084232   3.877455   4.327276   2.132920   0.000000
    26  C    2.427515   1.402152   3.407428   1.402372   3.399661
    27  H    3.880790   1.087145   2.462766   3.402444   4.964536
    28  H    2.138448   3.401882   4.962069   1.086689   2.439809
    29  H    3.410188   2.166601   4.303515   2.166280   4.291106
    30  C    3.776400   4.748440   4.499476   4.445041   3.891221
    31  C    3.973925   5.559002   5.581828   4.624161   3.739289
    32  C    3.582543   3.812978   3.970235   3.858705   4.029658
    33  C    4.006145   5.602388   6.130657   4.285561   3.752191
    34  H    4.585245   6.417920   6.219688   5.411783   4.156683
    35  C    3.614353   3.874271   4.710137   3.441471   4.037424
    36  H    3.946796   3.461578   3.368247   4.182111   4.590210
    37  C    3.834601   4.842109   5.754654   3.688679   3.906712
    38  H    4.636574   6.490595   7.089709   4.890031   4.176299
    39  H    4.003555   3.588738   4.768701   3.488304   4.606591
    40  H    4.368384   5.291285   6.504523   3.927803   4.417871
                   26         27         28         29         30
    26  C    0.000000
    27  H    2.159513   0.000000
    28  H    2.159232   4.304307   0.000000
    29  H    1.085609   2.495191   2.494234   0.000000
    30  C    4.903260   5.472232   4.991321   5.706294   0.000000
    31  C    5.391250   6.399785   4.891297   6.134564   1.405857
    32  C    3.979799   4.402348   4.466391   4.655754   1.404685
    33  C    5.109556   6.444909   4.273491   5.665546   2.427995
    34  H    6.287380   7.294321   5.650269   7.083867   2.147355
    35  C    3.585979   4.466892   3.775050   4.014888   2.426253
    36  H    3.974732   3.842089   4.952257   4.641607   2.166544
    37  C    4.243506   5.570904   3.665203   4.619226   2.801691
    38  H    5.855821   7.371473   4.669270   6.351225   3.411246
    39  H    3.256182   3.980421   3.810650   3.435906   3.406816
    40  H    4.457846   5.971556   3.631884   4.603243   3.887645
                   31         32         33         34         35
    31  C    0.000000
    32  C    2.423469   0.000000
    33  C    1.391035   2.795710   0.000000
    34  H    1.084473   3.399174   2.159270   0.000000
    35  C    2.791909   1.392961   2.421208   3.876242   0.000000
    36  H    3.411325   1.083212   3.878546   4.300280   2.140796
    37  C    2.415109   2.416699   1.398924   3.404984   1.395966
    38  H    2.150256   3.881502   1.085794   2.491339   3.405331
    39  H    3.876262   2.147979   3.404951   4.960549   1.084571
    40  H    3.398742   3.399856   2.157428   4.304197   2.154516
                   36         37         38         39         40
    36  H    0.000000
    37  C    3.392066   0.000000
    38  H    4.964290   2.158614   0.000000
    39  H    2.457787   2.155639   4.302609   0.000000
    40  H    4.285364   1.085956   2.486150   2.483345   0.000000
 Stoichiometry    C16H20N2O2
 Framework group  C1[X(C16H20N2O2)]
 Deg. of freedom   114
 Full point group                 C1      NOp   1
 Largest Abelian subgroup         C1      NOp   1
 Largest concise Abelian subgroup C1      NOp   1
                         Standard orientation:                         
 ---------------------------------------------------------------------
 Center     Atomic      Atomic             Coordinates (Angstroms)
 Number     Number       Type             X           Y           Z
 ---------------------------------------------------------------------
      1          6           0        0.766480   -1.595915   -0.675280
      2          1           0        4.098170   -0.655976    1.181354
      3          6           0        1.335606    1.533462    0.760153
      4          8           0        2.237611    1.913355    0.007408
      5          8           0        1.615597   -2.089354    0.264031
      6          7           0        4.367223    0.012739   -0.580148
      7          1           0        4.219893   -0.193244   -1.561360
      8          7           0        4.098947   -1.030977    0.227912
      9          1           0        2.562275   -1.824062    0.086299
     10          1           0        4.023896    0.933740   -0.299431
     11          6           0        1.368936   -0.984241   -1.902344
     12          1           0        0.660954   -0.942951   -2.730936
     13          1           0        1.717585    0.040294   -1.712010
     14          1           0        2.231334   -1.574110   -2.234670
     15          6           0        1.668400    0.787463    2.032580
     16          1           0        1.076318    1.135376    2.882036
     17          1           0        1.461336   -0.279334    1.885780
     18          1           0        2.728144    0.919232    2.255094
     19          6           0       -0.620681   -1.671086   -0.382102
     20          6           0       -1.070394   -2.204599    0.864158
     21          6           0       -1.622170   -1.217071   -1.289935
     22          6           0       -2.422472   -2.280125    1.166475
     23          1           0       -0.333620   -2.552403    1.578897
     24          6           0       -2.969302   -1.303960   -0.973281
     25          1           0       -1.334856   -0.777352   -2.238437
     26          6           0       -3.390148   -1.836404    0.253927
     27          1           0       -2.731116   -2.689218    2.125259
     28          1           0       -3.705546   -0.941630   -1.685709
     29          1           0       -4.446744   -1.897399    0.495652
     30          6           0       -0.089300    1.785984    0.410997
     31          6           0       -0.375739    2.518137   -0.754481
     32          6           0       -1.150817    1.314386    1.200881
     33          6           0       -1.692700    2.784608   -1.114460
     34          1           0        0.450671    2.872277   -1.360875
     35          6           0       -2.468948    1.579831    0.837001
     36          1           0       -0.957405    0.718707    2.084683
     37          6           0       -2.742224    2.318498   -0.315567
     38          1           0       -1.904686    3.353822   -2.014463
     39          1           0       -3.281764    1.193296    1.442158
     40          1           0       -3.770851    2.522782   -0.597514
 ---------------------------------------------------------------------
 Rotational constants (GHZ):           0.4511314           0.2930496           0.2224131
 Leave Link  202 at Fri Jun 14 12:57:09 2019, MaxMem=   104857600 cpu:               7.5 elap:               0.3
 (Enter /project/6004141/group/g16/g16/l301.exe)
 Standard basis: 6-31G(d,p) (6D, 7F)
 Ernie: Thresh=  0.10000D-02 Tol=  0.10000D-05 Strict=F.
 There are   400 symmetry adapted cartesian basis functions of A   symmetry.
 There are   400 symmetry adapted basis functions of A   symmetry.
   400 basis functions,   700 primitive gaussians,   400 cartesian basis functions
    73 alpha electrons       73 beta electrons
       nuclear repulsion energy      1578.3968253218 Hartrees.
 IExCor=  402 DFT=T Ex+Corr=B3LYP ExCW=0 ScaHFX=  0.200000
 ScaDFX=  0.800000  0.720000  1.000000  0.810000 ScalE2=  1.000000  1.000000
 IRadAn=      5 IRanWt=     -1 IRanGd=            0 ICorTp=0 IEmpDi=131
 NAtoms=   40 NActive=   40 NUniq=   40 SFac= 1.00D+00 NAtFMM=   60 NAOKFM=F Big=F
 Integral buffers will be    131072 words long.
 Raffenetti 2 integral format.
 Two-electron integral symmetry is turned on.
 R6Disp:  Grimme-D3 Dispersion energy=       -0.0486208840 Hartrees.
 Nuclear repulsion after empirical dispersion term =     1578.3482044378 Hartrees.
 Force inversion solution in PCM.
 ------------------------------------------------------------------------------
 Polarizable Continuum Model (PCM)
 =================================
 Model                : PCM.
 Atomic radii         : UFF (Universal Force Field).
 Polarization charges : Total charges.
 Charge compensation  : None.
 Solution method      : Matrix inversion.
 Cavity type          : Scaled VdW (van der Waals Surface) (Alpha=1.100).
 Cavity algorithm     : GePol (No added spheres)
                        Default sphere list used, NSphG=   40.
                        Lebedev-Laikov grids with approx.  5.0 points / Ang**2.
                        Smoothing algorithm: York/Karplus (Gamma=1.0000).
                        Polarization charges: spherical gaussians, with
                                              point-specific exponents (IZeta= 3).
                        Self-potential: point-specific (ISelfS= 7).
                        Self-field    : sphere-specific E.n sum rule (ISelfD= 2).
 1st derivatives      : Analytical E(r).r(x)/FMM algorithm (CHGder, D1EAlg=3).
                        Cavity 1st derivative terms included.
 2nd derivatives      : Analytical E(r).r(xy)/FMM algorithm (CHGder, D2EAlg=3).
                        Cavity 2nd derivative terms included.
 Solvent              : Acetonitrile, Eps=  35.688000 Eps(inf)=   1.806874
 ------------------------------------------------------------------------------
 GePol: Number of generator spheres                  =      40
 GePol: Total number of spheres                      =      40
 GePol: Number of exposed spheres                    =      40 (100.00%)
 GePol: Number of points                             =    2667
 GePol: Average weight of points                     =       0.13
 GePol: Minimum weight of points                     =   0.64D-10
 GePol: Maximum weight of points                     =    0.20577
 GePol: Number of points with low weight             =     190
 GePol: Fraction of low-weight points (<1% of avg)   =       7.12%
 GePol: Cavity surface area                          =    340.499 Ang**2
 GePol: Cavity volume                                =    408.884 Ang**3
 Leave Link  301 at Fri Jun 14 12:57:09 2019, MaxMem=   104857600 cpu:              12.5 elap:               0.4
 (Enter /project/6004141/group/g16/g16/l302.exe)
 NPDir=0 NMtPBC=     1 NCelOv=     1 NCel=       1 NClECP=     1 NCelD=      1
         NCelK=      1 NCelE2=     1 NClLst=     1 CellRange=     0.0.
 One-electron integrals computed using PRISM.
 One-electron integral symmetry used in STVInt
 PrsmSu:  requested number of processors reduced to:  27 ShMem   1 Linda.
 NBasis=   400 RedAO= T EigKep=  4.64D-04  NBF=   400
 NBsUse=   400 1.00D-06 EigRej= -1.00D+00 NBFU=   400
 Precomputing XC quadrature grid using
 IXCGrd= 4 IRadAn=           5 IRanWt=          -1 IRanGd=           0 AccXCQ= 0.00D+00.
 Generated NRdTot=       0 NPtTot=           0 NUsed=           0 NTot=          32
 NSgBfM=   398   397   398   398   398 MxSgAt=    40 MxSgA2=    40.
 Leave Link  302 at Fri Jun 14 12:57:10 2019, MaxMem=   104857600 cpu:              20.2 elap:               0.6
 (Enter /project/6004141/group/g16/g16/l303.exe)
 DipDrv:  MaxL=1.
 Leave Link  303 at Fri Jun 14 12:57:11 2019, MaxMem=   104857600 cpu:               9.1 elap:               0.3
 (Enter /project/6004141/group/g16/g16/l401.exe)
 ExpMin= 1.61D-01 ExpMax= 5.48D+03 ExpMxC= 8.25D+02 IAcc=3 IRadAn=         5 AccDes= 0.00D+00
 Harris functional with IExCor=  402 and IRadAn=       5 diagonalized for initial guess.
 HarFok:  IExCor=  402 AccDes= 0.00D+00 IRadAn=         5 IDoV= 1 UseB2=F ITyADJ=14
 ICtDFT=  3500011 ScaDFX=  1.000000  1.000000  1.000000  1.000000
 FoFCou: FMM=F IPFlag=           0 FMFlag=      100000 FMFlg1=           0
         NFxFlg=           0 DoJE=T BraDBF=F KetDBF=T FulRan=T
         wScrn=  0.000000 ICntrl=       500 IOpCl=  0 I1Cent=   200000004 NGrid=           0
         NMat0=    1 NMatS0=      1 NMatT0=    0 NMatD0=    1 NMtDS0=    0 NMtDT0=    0
 Petite list used in FoFCou.
 Harris En= -881.709619764985    
 JPrj=0 DoOrth=F DoCkMO=T.
 Mixing orbitals, IMix= 1 IMixAn=  0 NRI=1 NE=   73 Coef=  7.07106781D-01  7.07106781D-01
 Mixing orbitals, IMix= 1 IMixAn=  0 NRI=1 NE=   73 Coef= -7.07106781D-01  7.07106781D-01
 Initial guess <Sx>= 0.0000 <Sy>= 0.0000 <Sz>= 0.0000 <S**2>= 1.0000 S= 0.6180
 Leave Link  401 at Fri Jun 14 12:57:12 2019, MaxMem=   104857600 cpu:              41.2 elap:               1.1
 (Enter /project/6004141/group/g16/g16/l502.exe)
 Integral symmetry usage will be decided dynamically.
 UHF open shell SCF:
 Using DIIS extrapolation, IDIIS=  1040.
 NGot=   104857600 LenX=   104517248 LenY=   104356807
 Requested convergence on RMS density matrix=1.00D-08 within 128 cycles.
 Requested convergence on MAX density matrix=1.00D-06.
 Requested convergence on             energy=1.00D-06.
 No special actions if energy rises.
 Fock matrices will be formed incrementally for  20 cycles.

 Cycle   1  Pass 1  IDiag  1:
 FoFJK:  IHMeth= 1 ICntrl=       0 DoSepK=F KAlg= 0 I1Cent=           0 FoldK=F
 IRaf= 810000000 NMat=       1 IRICut=       1 DoRegI=T DoRafI=F ISym2E= 0 IDoP0=0 IntGTp=1.
 FoFCou: FMM=F IPFlag=           0 FMFlag=      100000 FMFlg1=           0
         NFxFlg=           0 DoJE=F BraDBF=F KetDBF=F FulRan=T
         wScrn=  0.000000 ICntrl=         0 IOpCl=  1 I1Cent=           0 NGrid=           0
         NMat0=    1 NMatS0=      1 NMatT0=    0 NMatD0=    1 NMtDS0=    0 NMtDT0=    0
 Symmetry not used in FoFCou.
 Inv3:  Mode=1 IEnd=    21338667.
 Iteration    1 A*A^-1 deviation from unit magnitude is 3.11D-15 for   2156.
 Iteration    1 A*A^-1 deviation from orthogonality  is 2.76D-15 for   1245    182.
 Iteration    1 A^-1*A deviation from unit magnitude is 3.22D-15 for   1253.
 Iteration    1 A^-1*A deviation from orthogonality  is 2.63D-15 for   1469    742.
 E= -881.170864507504    
 DIIS: error= 2.41D-02 at cycle   1 NSaved=   1.
 NSaved= 1 IEnMin= 1 EnMin= -881.170864507504     IErMin= 1 ErrMin= 2.41D-02
 ErrMax= 2.41D-02  0.00D+00 EMaxC= 1.00D-01 BMatC= 1.96D+00 BMatP= 1.96D+00
 IDIUse=3 WtCom= 7.59D-01 WtEn= 2.41D-01
 Coeff-Com:  0.100D+01
 Coeff-En:   0.100D+01
 Coeff:      0.100D+01
 Gap=     0.097 Goal=   None    Shift=    0.000
 Gap=     0.012 Goal=   None    Shift=    0.000
 GapD=    0.012 DampG=0.250 DampE=0.500 DampFc=0.2500 IDamp=-1.
 Damping current iteration by 2.50D-01
 RMSDP=3.85D-03 MaxDP=1.43D-01              OVMax= 3.21D-01

 Cycle   2  Pass 1  IDiag  1:
 RMSU=  9.48D-04    CP:  9.89D-01
 E= -881.351695013438     Delta-E=       -0.180830505934 Rises=F Damp=T
 DIIS: error= 1.41D-02 at cycle   2 NSaved=   2.
 NSaved= 2 IEnMin= 2 EnMin= -881.351695013438     IErMin= 2 ErrMin= 1.41D-02
 ErrMax= 1.41D-02  0.00D+00 EMaxC= 1.00D-01 BMatC= 5.20D-01 BMatP= 1.96D+00
 IDIUse=3 WtCom= 8.59D-01 WtEn= 1.41D-01
 Coeff-Com: -0.855D+00 0.185D+01
 Coeff-En:   0.000D+00 0.100D+01
 Coeff:     -0.734D+00 0.173D+01
 Gap=     0.149 Goal=   None    Shift=    0.000
 Gap=     0.042 Goal=   None    Shift=    0.000
 RMSDP=1.56D-03 MaxDP=7.23D-02 DE=-1.81D-01 OVMax= 3.73D-01

 Cycle   3  Pass 1  IDiag  1:
 RMSU=  1.24D-03    CP:  9.66D-01  1.94D+00
 E= -881.664554019079     Delta-E=       -0.312859005641 Rises=F Damp=F
 DIIS: error= 7.05D-03 at cycle   3 NSaved=   3.
 NSaved= 3 IEnMin= 3 EnMin= -881.664554019079     IErMin= 3 ErrMin= 7.05D-03
 ErrMax= 7.05D-03  0.00D+00 EMaxC= 1.00D-01 BMatC= 1.09D-01 BMatP= 5.20D-01
 IDIUse=3 WtCom= 9.30D-01 WtEn= 7.05D-02
 Coeff-Com: -0.423D+00 0.891D+00 0.531D+00
 Coeff-En:   0.000D+00 0.000D+00 0.100D+01
 Coeff:     -0.393D+00 0.829D+00 0.564D+00
 Gap=     0.119 Goal=   None    Shift=    0.000
 Gap=     0.055 Goal=   None    Shift=    0.000
 RMSDP=6.45D-04 MaxDP=3.91D-02 DE=-3.13D-01 OVMax= 1.09D-01

 Cycle   4  Pass 1  IDiag  1:
 RMSU=  6.24D-04    CP:  9.68D-01  1.97D+00  8.72D-01
 E= -881.684826927541     Delta-E=       -0.020272908463 Rises=F Damp=F
 DIIS: error= 5.45D-03 at cycle   4 NSaved=   4.
 NSaved= 4 IEnMin= 4 EnMin= -881.684826927541     IErMin= 4 ErrMin= 5.45D-03
 ErrMax= 5.45D-03  0.00D+00 EMaxC= 1.00D-01 BMatC= 3.50D-02 BMatP= 1.09D-01
 IDIUse=3 WtCom= 9.45D-01 WtEn= 5.45D-02
 Coeff-Com: -0.655D-01 0.147D+00 0.355D+00 0.564D+00
 Coeff-En:   0.000D+00 0.000D+00 0.212D+00 0.788D+00
 Coeff:     -0.620D-01 0.139D+00 0.347D+00 0.576D+00
 Gap=     0.135 Goal=   None    Shift=    0.000
 Gap=     0.064 Goal=   None    Shift=    0.000
 RMSDP=3.26D-04 MaxDP=2.08D-02 DE=-2.03D-02 OVMax= 6.34D-02

 Cycle   5  Pass 1  IDiag  1:
 RMSU=  2.64D-04    CP:  9.67D-01  1.95D+00  9.94D-01  8.19D-01
 E= -881.692890771083     Delta-E=       -0.008063843541 Rises=F Damp=F
 DIIS: error= 1.68D-03 at cycle   5 NSaved=   5.
 NSaved= 5 IEnMin= 5 EnMin= -881.692890771083     IErMin= 5 ErrMin= 1.68D-03
 ErrMax= 1.68D-03  0.00D+00 EMaxC= 1.00D-01 BMatC= 3.30D-03 BMatP= 3.50D-02
 IDIUse=3 WtCom= 9.83D-01 WtEn= 1.68D-02
 Coeff-Com: -0.479D-02 0.110D-01 0.133D+00 0.308D+00 0.553D+00
 Coeff-En:   0.000D+00 0.000D+00 0.000D+00 0.000D+00 0.100D+01
 Coeff:     -0.471D-02 0.108D-01 0.131D+00 0.303D+00 0.560D+00
 Gap=     0.134 Goal=   None    Shift=    0.000
 Gap=     0.072 Goal=   None    Shift=    0.000
 RMSDP=1.22D-04 MaxDP=6.50D-03 DE=-8.06D-03 OVMax= 3.31D-02

 Cycle   6  Pass 1  IDiag  1:
 RMSU=  9.86D-05    CP:  9.66D-01  1.95D+00  1.02D+00  9.16D-01  9.57D-01
 E= -881.693839855787     Delta-E=       -0.000949084704 Rises=F Damp=F
 DIIS: error= 4.95D-04 at cycle   6 NSaved=   6.
 NSaved= 6 IEnMin= 6 EnMin= -881.693839855787     IErMin= 6 ErrMin= 4.95D-04
 ErrMax= 4.95D-04  0.00D+00 EMaxC= 1.00D-01 BMatC= 4.88D-04 BMatP= 3.30D-03
 IDIUse=3 WtCom= 9.95D-01 WtEn= 4.95D-03
 Coeff-Com:  0.885D-02-0.194D-01-0.122D-01 0.118D-01 0.258D+00 0.753D+00
 Coeff-En:   0.000D+00 0.000D+00 0.000D+00 0.000D+00 0.000D+00 0.100D+01
 Coeff:      0.881D-02-0.193D-01-0.121D-01 0.117D-01 0.256D+00 0.755D+00
 Gap=     0.136 Goal=   None    Shift=    0.000
 Gap=     0.075 Goal=   None    Shift=    0.000
 RMSDP=8.09D-05 MaxDP=7.61D-03 DE=-9.49D-04 OVMax= 2.81D-02

 Cycle   7  Pass 1  IDiag  1:
 RMSU=  4.50D-05    CP:  9.66D-01  1.95D+00  1.04D+00  9.75D-01  1.15D+00
                    CP:  1.10D+00
 E= -881.694118304564     Delta-E=       -0.000278448777 Rises=F Damp=F
 DIIS: error= 2.95D-04 at cycle   7 NSaved=   7.
 NSaved= 7 IEnMin= 7 EnMin= -881.694118304564     IErMin= 7 ErrMin= 2.95D-04
 ErrMax= 2.95D-04  0.00D+00 EMaxC= 1.00D-01 BMatC= 1.15D-04 BMatP= 4.88D-04
 IDIUse=3 WtCom= 9.97D-01 WtEn= 2.95D-03
 Coeff-Com:  0.360D-02-0.749D-02-0.323D-01-0.694D-01-0.498D-01 0.321D+00
 Coeff-Com:  0.834D+00
 Coeff-En:   0.000D+00 0.000D+00 0.000D+00 0.000D+00 0.000D+00 0.000D+00
 Coeff-En:   0.100D+01
 Coeff:      0.359D-02-0.747D-02-0.322D-01-0.692D-01-0.496D-01 0.320D+00
 Coeff:      0.835D+00
 Gap=     0.136 Goal=   None    Shift=    0.000
 Gap=     0.075 Goal=   None    Shift=    0.000
 RMSDP=4.50D-05 MaxDP=2.45D-03 DE=-2.78D-04 OVMax= 1.46D-02

 Cycle   8  Pass 1  IDiag  1:
 RMSU=  1.79D-05    CP:  9.66D-01  1.94D+00  1.06D+00  9.99D-01  1.23D+00
                    CP:  1.36D+00  1.10D+00
 E= -881.694191120121     Delta-E=       -0.000072815556 Rises=F Damp=F
 DIIS: error= 1.53D-04 at cycle   8 NSaved=   8.
 NSaved= 8 IEnMin= 8 EnMin= -881.694191120121     IErMin= 8 ErrMin= 1.53D-04
 ErrMax= 1.53D-04  0.00D+00 EMaxC= 1.00D-01 BMatC= 3.43D-05 BMatP= 1.15D-04
 IDIUse=3 WtCom= 9.98D-01 WtEn= 1.53D-03
 Coeff-Com: -0.986D-03 0.237D-02-0.103D-01-0.343D-01-0.794D-01 0.156D-01
 Coeff-Com:  0.451D+00 0.656D+00
 Coeff-En:   0.000D+00 0.000D+00 0.000D+00 0.000D+00 0.000D+00 0.000D+00
 Coeff-En:   0.000D+00 0.100D+01
 Coeff:     -0.985D-03 0.237D-02-0.103D-01-0.343D-01-0.793D-01 0.156D-01
 Coeff:      0.451D+00 0.656D+00
 Gap=     0.135 Goal=   None    Shift=    0.000
 Gap=     0.075 Goal=   None    Shift=    0.000
 RMSDP=1.58D-05 MaxDP=1.09D-03 DE=-7.28D-05 OVMax= 4.15D-03

 Cycle   9  Pass 1  IDiag  1:
 RMSU=  9.33D-06    CP:  9.66D-01  1.94D+00  1.06D+00  1.01D+00  1.25D+00
                    CP:  1.43D+00  1.30D+00  9.32D-01
 E= -881.694207117352     Delta-E=       -0.000015997231 Rises=F Damp=F
 DIIS: error= 1.14D-04 at cycle   9 NSaved=   9.
 NSaved= 9 IEnMin= 9 EnMin= -881.694207117352     IErMin= 9 ErrMin= 1.14D-04
 ErrMax= 1.14D-04  0.00D+00 EMaxC= 1.00D-01 BMatC= 5.47D-06 BMatP= 3.43D-05
 IDIUse=3 WtCom= 9.99D-01 WtEn= 1.14D-03
 Coeff-Com: -0.746D-03 0.175D-02 0.335D-02 0.297D-02-0.152D-01-0.595D-01
 Coeff-Com: -0.112D-01 0.258D+00 0.821D+00
 Coeff-En:   0.000D+00 0.000D+00 0.000D+00 0.000D+00 0.000D+00 0.000D+00
 Coeff-En:   0.000D+00 0.000D+00 0.100D+01
 Coeff:     -0.745D-03 0.175D-02 0.335D-02 0.296D-02-0.151D-01-0.594D-01
 Coeff:     -0.112D-01 0.257D+00 0.821D+00
 Gap=     0.135 Goal=   None    Shift=    0.000
 Gap=     0.076 Goal=   None    Shift=    0.000
 RMSDP=7.20D-06 MaxDP=5.45D-04 DE=-1.60D-05 OVMax= 1.54D-03

 Cycle  10  Pass 1  IDiag  1:
 RMSU=  5.00D-06    CP:  9.66D-01  1.94D+00  1.06D+00  1.01D+00  1.26D+00
                    CP:  1.45D+00  1.34D+00  1.14D+00  1.11D+00
 E= -881.694210858585     Delta-E=       -0.000003741233 Rises=F Damp=F
 DIIS: error= 7.49D-05 at cycle  10 NSaved=  10.
 NSaved=10 IEnMin=10 EnMin= -881.694210858585     IErMin=10 ErrMin= 7.49D-05
 ErrMax= 7.49D-05  0.00D+00 EMaxC= 1.00D-01 BMatC= 2.40D-06 BMatP= 5.47D-06
 IDIUse=1 WtCom= 1.00D+00 WtEn= 0.00D+00
 Coeff-Com: -0.149D-04 0.658D-04 0.400D-02 0.984D-02 0.112D-01-0.404D-01
 Coeff-Com: -0.126D+00-0.101D-01 0.483D+00 0.669D+00
 Coeff:     -0.149D-04 0.658D-04 0.400D-02 0.984D-02 0.112D-01-0.404D-01
 Coeff:     -0.126D+00-0.101D-01 0.483D+00 0.669D+00
 Gap=     0.135 Goal=   None    Shift=    0.000
 Gap=     0.075 Goal=   None    Shift=    0.000
 RMSDP=4.10D-06 MaxDP=3.42D-04 DE=-3.74D-06 OVMax= 9.39D-04

 Cycle  11  Pass 1  IDiag  1:
 RMSU=  2.64D-06    CP:  9.66D-01  1.94D+00  1.06D+00  1.01D+00  1.26D+00
                    CP:  1.46D+00  1.36D+00  1.24D+00  1.37D+00  1.03D+00
 E= -881.694212428219     Delta-E=       -0.000001569634 Rises=F Damp=F
 DIIS: error= 3.35D-05 at cycle  11 NSaved=  11.
 NSaved=11 IEnMin=11 EnMin= -881.694212428219     IErMin=11 ErrMin= 3.35D-05
 ErrMax= 3.35D-05  0.00D+00 EMaxC= 1.00D-01 BMatC= 3.58D-07 BMatP= 2.40D-06
 IDIUse=1 WtCom= 1.00D+00 WtEn= 0.00D+00
 Coeff-Com:  0.949D-06-0.936D-04 0.297D-03 0.183D-02 0.547D-02-0.145D-02
 Coeff-Com: -0.329D-01-0.483D-01-0.628D-01 0.202D+00 0.936D+00
 Coeff:      0.949D-06-0.936D-04 0.297D-03 0.183D-02 0.547D-02-0.145D-02
 Coeff:     -0.329D-01-0.483D-01-0.628D-01 0.202D+00 0.936D+00
 Gap=     0.135 Goal=   None    Shift=    0.000
 Gap=     0.076 Goal=   None    Shift=    0.000
 RMSDP=2.60D-06 MaxDP=2.00D-04 DE=-1.57D-06 OVMax= 6.13D-04

 Cycle  12  Pass 1  IDiag  1:
 RMSU=  1.18D-06    CP:  9.66D-01  1.94D+00  1.06D+00  1.01D+00  1.26D+00
                    CP:  1.46D+00  1.37D+00  1.30D+00  1.50D+00  1.32D+00
                    CP:  1.27D+00
 E= -881.694212867341     Delta-E=       -0.000000439122 Rises=F Damp=F
 DIIS: error= 1.47D-05 at cycle  12 NSaved=  12.
 NSaved=12 IEnMin=12 EnMin= -881.694212867341     IErMin=12 ErrMin= 1.47D-05
 ErrMax= 1.47D-05  0.00D+00 EMaxC= 1.00D-01 BMatC= 1.39D-07 BMatP= 3.58D-07
 IDIUse=1 WtCom= 1.00D+00 WtEn= 0.00D+00
 Coeff-Com: -0.190D-04-0.341D-04-0.109D-02-0.209D-02-0.606D-03 0.108D-01
 Coeff-Com:  0.226D-01-0.215D-01-0.183D+00-0.860D-01 0.475D+00 0.785D+00
 Coeff:     -0.190D-04-0.341D-04-0.109D-02-0.209D-02-0.606D-03 0.108D-01
 Coeff:      0.226D-01-0.215D-01-0.183D+00-0.860D-01 0.475D+00 0.785D+00
 Gap=     0.135 Goal=   None    Shift=    0.000
 Gap=     0.076 Goal=   None    Shift=    0.000
 RMSDP=1.51D-06 MaxDP=1.17D-04 DE=-4.39D-07 OVMax= 2.99D-04

 Cycle  13  Pass 1  IDiag  1:
 RMSU=  6.27D-07    CP:  9.66D-01  1.94D+00  1.06D+00  1.01D+00  1.26D+00
                    CP:  1.46D+00  1.37D+00  1.32D+00  1.56D+00  1.44D+00
                    CP:  1.60D+00  1.01D+00
 E= -881.694212988224     Delta-E=       -0.000000120883 Rises=F Damp=F
 DIIS: error= 6.39D-06 at cycle  13 NSaved=  13.
 NSaved=13 IEnMin=13 EnMin= -881.694212988224     IErMin=13 ErrMin= 6.39D-06
 ErrMax= 6.39D-06  0.00D+00 EMaxC= 1.00D-01 BMatC= 4.00D-08 BMatP= 1.39D-07
 IDIUse=1 WtCom= 1.00D+00 WtEn= 0.00D+00
 Coeff-Com:  0.185D-05-0.227D-04-0.684D-03-0.160D-02-0.156D-02 0.629D-02
 Coeff-Com:  0.216D-01-0.238D-02-0.886D-01-0.901D-01 0.281D-01 0.439D+00
 Coeff-Com:  0.690D+00
 Coeff:      0.185D-05-0.227D-04-0.684D-03-0.160D-02-0.156D-02 0.629D-02
 Coeff:      0.216D-01-0.238D-02-0.886D-01-0.901D-01 0.281D-01 0.439D+00
 Coeff:      0.690D+00
 Gap=     0.135 Goal=   None    Shift=    0.000
 Gap=     0.076 Goal=   None    Shift=    0.000
 RMSDP=6.70D-07 MaxDP=5.04D-05 DE=-1.21D-07 OVMax= 1.41D-04

 Cycle  14  Pass 1  IDiag  1:
 RMSU=  2.68D-07    CP:  9.66D-01  1.94D+00  1.06D+00  1.01D+00  1.26D+00
                    CP:  1.46D+00  1.37D+00  1.33D+00  1.58D+00  1.52D+00
                    CP:  1.71D+00  1.24D+00  8.90D-01
 E= -881.694213011491     Delta-E=       -0.000000023267 Rises=F Damp=F
 DIIS: error= 1.78D-06 at cycle  14 NSaved=  14.
 NSaved=14 IEnMin=14 EnMin= -881.694213011491     IErMin=14 ErrMin= 1.78D-06
 ErrMax= 1.78D-06  0.00D+00 EMaxC= 1.00D-01 BMatC= 6.56D-09 BMatP= 4.00D-08
 IDIUse=1 WtCom= 1.00D+00 WtEn= 0.00D+00
 Coeff-Com: -0.105D-04 0.238D-04-0.672D-04-0.264D-03-0.569D-03 0.624D-03
 Coeff-Com:  0.573D-02 0.218D-02-0.459D-02-0.216D-01-0.876D-01 0.482D-01
 Coeff-Com:  0.335D+00 0.723D+00
 Coeff:     -0.105D-04 0.238D-04-0.672D-04-0.264D-03-0.569D-03 0.624D-03
 Coeff:      0.573D-02 0.218D-02-0.459D-02-0.216D-01-0.876D-01 0.482D-01
 Coeff:      0.335D+00 0.723D+00
 Gap=     0.135 Goal=   None    Shift=    0.000
 Gap=     0.076 Goal=   None    Shift=    0.000
 RMSDP=2.22D-07 MaxDP=1.47D-05 DE=-2.33D-08 OVMax= 4.38D-05

 Cycle  15  Pass 1  IDiag  1:
 RMSU=  1.11D-07    CP:  9.66D-01  1.94D+00  1.06D+00  1.00D+00  1.25D+00
                    CP:  1.46D+00  1.37D+00  1.33D+00  1.59D+00  1.53D+00
                    CP:  1.74D+00  1.30D+00  1.05D+00  9.52D-01
 E= -881.694213014568     Delta-E=       -0.000000003077 Rises=F Damp=F
 DIIS: error= 8.31D-07 at cycle  15 NSaved=  15.
 NSaved=15 IEnMin=15 EnMin= -881.694213014568     IErMin=15 ErrMin= 8.31D-07
 ErrMax= 8.31D-07  0.00D+00 EMaxC= 1.00D-01 BMatC= 9.47D-10 BMatP= 6.56D-09
 IDIUse=1 WtCom= 1.00D+00 WtEn= 0.00D+00
 Coeff-Com: -0.214D-05 0.885D-05 0.859D-04 0.167D-03 0.559D-04-0.791D-03
 Coeff-Com: -0.128D-02 0.118D-02 0.128D-01 0.580D-02-0.416D-01-0.539D-01
 Coeff-Com:  0.254D-01 0.314D+00 0.738D+00
 Coeff:     -0.214D-05 0.885D-05 0.859D-04 0.167D-03 0.559D-04-0.791D-03
 Coeff:     -0.128D-02 0.118D-02 0.128D-01 0.580D-02-0.416D-01-0.539D-01
 Coeff:      0.254D-01 0.314D+00 0.738D+00
 Gap=     0.135 Goal=   None    Shift=    0.000
 Gap=     0.076 Goal=   None    Shift=    0.000
 RMSDP=8.33D-08 MaxDP=5.24D-06 DE=-3.08D-09 OVMax= 1.80D-05

 Cycle  16  Pass 1  IDiag  1:
 RMSU=  5.05D-08    CP:  9.66D-01  1.94D+00  1.06D+00  1.00D+00  1.25D+00
                    CP:  1.46D+00  1.37D+00  1.33D+00  1.59D+00  1.53D+00
                    CP:  1.75D+00  1.32D+00  1.09D+00  1.10D+00  1.00D+00
 E= -881.694213014991     Delta-E=       -0.000000000423 Rises=F Damp=F
 DIIS: error= 3.48D-07 at cycle  16 NSaved=  16.
 NSaved=16 IEnMin=16 EnMin= -881.694213014991     IErMin=16 ErrMin= 3.48D-07
 ErrMax= 3.48D-07  0.00D+00 EMaxC= 1.00D-01 BMatC= 1.58D-10 BMatP= 9.47D-10
 IDIUse=1 WtCom= 1.00D+00 WtEn= 0.00D+00
 Coeff-Com:  0.185D-05-0.246D-05 0.385D-04 0.994D-04 0.108D-03-0.395D-03
 Coeff-Com: -0.144D-02 0.280D-03 0.544D-02 0.509D-02-0.230D-03-0.275D-01
 Coeff-Com: -0.483D-01 0.164D-02 0.303D+00 0.762D+00
 Coeff:      0.185D-05-0.246D-05 0.385D-04 0.994D-04 0.108D-03-0.395D-03
 Coeff:     -0.144D-02 0.280D-03 0.544D-02 0.509D-02-0.230D-03-0.275D-01
 Coeff:     -0.483D-01 0.164D-02 0.303D+00 0.762D+00
 Gap=     0.135 Goal=   None    Shift=    0.000
 Gap=     0.076 Goal=   None    Shift=    0.000
 RMSDP=3.97D-08 MaxDP=2.08D-06 DE=-4.23D-10 OVMax= 1.23D-05

 Cycle  17  Pass 1  IDiag  1:
 RMSU=  2.03D-08    CP:  9.66D-01  1.94D+00  1.06D+00  1.01D+00  1.25D+00
                    CP:  1.46D+00  1.37D+00  1.33D+00  1.59D+00  1.53D+00
                    CP:  1.75D+00  1.32D+00  1.10D+00  1.15D+00  1.14D+00
                    CP:  9.87D-01
 E= -881.694213015067     Delta-E=       -0.000000000076 Rises=F Damp=F
 DIIS: error= 1.48D-07 at cycle  17 NSaved=  17.
 NSaved=17 IEnMin=17 EnMin= -881.694213015067     IErMin=17 ErrMin= 1.48D-07
 ErrMax= 1.48D-07  0.00D+00 EMaxC= 1.00D-01 BMatC= 3.27D-11 BMatP= 1.58D-10
 IDIUse=1 WtCom= 1.00D+00 WtEn= 0.00D+00
 Coeff-Com:  0.680D-06-0.149D-05 0.285D-05 0.154D-04 0.290D-04-0.666D-04
 Coeff-Com: -0.455D-03-0.216D-04 0.353D-03 0.120D-02 0.691D-02-0.300D-02
 Coeff-Com: -0.263D-01-0.501D-01 0.166D-01 0.352D+00 0.703D+00
 Coeff:      0.680D-06-0.149D-05 0.285D-05 0.154D-04 0.290D-04-0.666D-04
 Coeff:     -0.455D-03-0.216D-04 0.353D-03 0.120D-02 0.691D-02-0.300D-02
 Coeff:     -0.263D-01-0.501D-01 0.166D-01 0.352D+00 0.703D+00
 Gap=     0.135 Goal=   None    Shift=    0.000
 Gap=     0.076 Goal=   None    Shift=    0.000
 RMSDP=1.78D-08 MaxDP=9.05D-07 DE=-7.62D-11 OVMax= 4.97D-06

 Cycle  18  Pass 1  IDiag  1:
 RMSU=  9.44D-09    CP:  9.66D-01  1.94D+00  1.06D+00  1.01D+00  1.26D+00
                    CP:  1.46D+00  1.37D+00  1.33D+00  1.59D+00  1.53D+00
                    CP:  1.75D+00  1.32D+00  1.10D+00  1.16D+00  1.19D+00
                    CP:  1.10D+00  9.28D-01
 E= -881.694213015080     Delta-E=       -0.000000000013 Rises=F Damp=F
 DIIS: error= 8.40D-08 at cycle  18 NSaved=  18.
 NSaved=18 IEnMin=18 EnMin= -881.694213015080     IErMin=18 ErrMin= 8.40D-08
 ErrMax= 8.40D-08  0.00D+00 EMaxC= 1.00D-01 BMatC= 5.07D-12 BMatP= 3.27D-11
 IDIUse=1 WtCom= 1.00D+00 WtEn= 0.00D+00
 Coeff-Com: -0.782D-07-0.493D-07-0.388D-05-0.834D-05-0.315D-05 0.380D-04
 Coeff-Com:  0.618D-04-0.593D-04-0.652D-03-0.354D-03 0.212D-02 0.312D-02
 Coeff-Com: -0.148D-02-0.176D-01-0.437D-01 0.851D-03 0.251D+00 0.807D+00
 Coeff:     -0.782D-07-0.493D-07-0.388D-05-0.834D-05-0.315D-05 0.380D-04
 Coeff:      0.618D-04-0.593D-04-0.652D-03-0.354D-03 0.212D-02 0.312D-02
 Coeff:     -0.148D-02-0.176D-01-0.437D-01 0.851D-03 0.251D+00 0.807D+00
 Gap=     0.135 Goal=   None    Shift=    0.000
 Gap=     0.076 Goal=   None    Shift=    0.000
 RMSDP=7.59D-09 MaxDP=4.76D-07 DE=-1.32D-11 OVMax= 1.44D-06

 Error on total polarization charges =  0.00998
 SCF Done:  E(UB3LYP) =  -881.694213015     A.U. after   18 cycles
            NFock= 18  Conv=0.76D-08     -V/T= 2.0096
 <Sx>= 0.0000 <Sy>= 0.0000 <Sz>= 0.0000 <S**2>= 1.0213 S= 0.6275
 <L.S>=  0.00000000000    
 KE= 8.733155240513D+02 PE=-5.206710194161D+03 EE= 1.873352252656D+03
 Annihilation of the first spin contaminant:
 S**2 before annihilation     1.0213,   after     0.2061
 Leave Link  502 at Fri Jun 14 12:57:58 2019, MaxMem=   104857600 cpu:            1771.5 elap:              45.5
 (Enter /project/6004141/group/g16/g16/l801.exe)
 DoSCS=F DFT=T ScalE2(SS,OS)=  1.000000  1.000000
 Range of M.O.s used for correlation:     1   400
 NBasis=   400 NAE=    73 NBE=    73 NFC=     0 NFV=     0
 NROrb=    400 NOA=    73 NOB=    73 NVA=   327 NVB=   327

 **** Warning!!: The largest alpha MO coefficient is  0.10516623D+02


 **** Warning!!: The largest beta MO coefficient is  0.10377532D+02


 **** Warning!!: The smallest beta delta epsilon is  0.75526515D-01

 Leave Link  801 at Fri Jun 14 12:57:59 2019, MaxMem=   104857600 cpu:               2.5 elap:               0.1
 (Enter /project/6004141/group/g16/g16/l1101.exe)
 Using compressed storage, NAtomX=    40.
 Will process     41 centers per pass.
 PrsmSu:  requested number of processors reduced to:  25 ShMem   1 Linda.
 PrsmSu:  requested number of processors reduced to:   8 ShMem   1 Linda.
 R6Disp: Adding Grimme-D3 dispersion energy 1st derivatives to the gradient.
 Leave Link 1101 at Fri Jun 14 12:58:00 2019, MaxMem=   104857600 cpu:              25.3 elap:               0.8
 (Enter /project/6004141/group/g16/g16/l1102.exe)
 Symmetrizing basis deriv contribution to polar:
 IMax=3 JMax=2 DiffMx= 0.00D+00
 Leave Link 1102 at Fri Jun 14 12:58:00 2019, MaxMem=   104857600 cpu:               4.3 elap:               0.2
 (Enter /project/6004141/group/g16/g16/l1110.exe)
 Forming Gx(P) for the SCF density, NAtomX=    40.
 Integral derivatives from FoFJK, PRISM(SPDF).
 Do as many integral derivatives as possible in FoFJK.
 G2DrvN: MDV=     104854584.
 G2DrvN: will do     1 centers at a time, making   41 passes.
 Estimated number of processors is:   32
 G2DrvN:  IPasSy=1 do centers    0 through    0.
 Calling FoFCou, ICntrl=  3107 FMM=F I1Cent=   0 AccDes= 0.00D+00.
 FoFJK:  IHMeth= 1 ICntrl=    3107 DoSepK=F KAlg= 0 I1Cent=           0 FoldK=F
 IRaf=         0 NMat=       1 IRICut=       1 DoRegI=T DoRafI=F ISym2E= 0 IDoP0=0 IntGTp=1.
 FoFCou: FMM=F IPFlag=           0 FMFlag=      100000 FMFlg1=           0
         NFxFlg=           0 DoJE=F BraDBF=F KetDBF=F FulRan=T
         wScrn=  0.000000 ICntrl=      3107 IOpCl=  1 I1Cent=           0 NGrid=           0
         NMat0=    1 NMatS0=      1 NMatT0=    0 NMatD0=    1 NMtDS0=    0 NMtDT0=    0
 Symmetry not used in FoFCou.
 CoulSu:  requested number of processors reduced to:  37 ShMem   1 Linda.
 G2DrvN:  IPasSy=1 do centers    1 through    1.
 Calling FoFCou, ICntrl=  3107 FMM=F I1Cent=   0 AccDes= 0.00D+00.
 CoulSu:  requested number of processors reduced to:  31 ShMem   1 Linda.
 G2DrvN:  IPasSy=1 do centers    2 through    2.
 Calling FoFCou, ICntrl=  3107 FMM=F I1Cent=   0 AccDes= 0.00D+00.
 CoulSu:  requested number of processors reduced to:  31 ShMem   1 Linda.
 G2DrvN:  IPasSy=1 do centers    3 through    3.
 Calling FoFCou, ICntrl=  3107 FMM=F I1Cent=   0 AccDes= 0.00D+00.
 CoulSu:  requested number of processors reduced to:  31 ShMem   1 Linda.
 G2DrvN:  IPasSy=1 do centers    4 through    4.
 Calling FoFCou, ICntrl=  3107 FMM=F I1Cent=   0 AccDes= 0.00D+00.
 CoulSu:  requested number of processors reduced to:  31 ShMem   1 Linda.
 G2DrvN:  IPasSy=1 do centers    5 through    5.
 Calling FoFCou, ICntrl=  3107 FMM=F I1Cent=   0 AccDes= 0.00D+00.
 CoulSu:  requested number of processors reduced to:  31 ShMem   1 Linda.
 G2DrvN:  IPasSy=1 do centers    6 through    6.
 Calling FoFCou, ICntrl=  3107 FMM=F I1Cent=   0 AccDes= 0.00D+00.
 CoulSu:  requested number of processors reduced to:  31 ShMem   1 Linda.
 G2DrvN:  IPasSy=1 do centers    7 through    7.
 Calling FoFCou, ICntrl=  3107 FMM=F I1Cent=   0 AccDes= 0.00D+00.
 CoulSu:  requested number of processors reduced to:  31 ShMem   1 Linda.
 G2DrvN:  IPasSy=1 do centers    8 through    8.
 Calling FoFCou, ICntrl=  3107 FMM=F I1Cent=   0 AccDes= 0.00D+00.
 CoulSu:  requested number of processors reduced to:  31 ShMem   1 Linda.
 G2DrvN:  IPasSy=1 do centers    9 through    9.
 Calling FoFCou, ICntrl=  3107 FMM=F I1Cent=   0 AccDes= 0.00D+00.
 CoulSu:  requested number of processors reduced to:  31 ShMem   1 Linda.
 G2DrvN:  IPasSy=1 do centers   10 through   10.
 Calling FoFCou, ICntrl=  3107 FMM=F I1Cent=   0 AccDes= 0.00D+00.
 CoulSu:  requested number of processors reduced to:  31 ShMem   1 Linda.
 G2DrvN:  IPasSy=1 do centers   11 through   11.
 Calling FoFCou, ICntrl=  3107 FMM=F I1Cent=   0 AccDes= 0.00D+00.
 CoulSu:  requested number of processors reduced to:  31 ShMem   1 Linda.
 G2DrvN:  IPasSy=1 do centers   12 through   12.
 Calling FoFCou, ICntrl=  3107 FMM=F I1Cent=   0 AccDes= 0.00D+00.
 CoulSu:  requested number of processors reduced to:  31 ShMem   1 Linda.
 G2DrvN:  IPasSy=1 do centers   13 through   13.
 Calling FoFCou, ICntrl=  3107 FMM=F I1Cent=   0 AccDes= 0.00D+00.
 CoulSu:  requested number of processors reduced to:  31 ShMem   1 Linda.
 G2DrvN:  IPasSy=1 do centers   14 through   14.
 Calling FoFCou, ICntrl=  3107 FMM=F I1Cent=   0 AccDes= 0.00D+00.
 CoulSu:  requested number of processors reduced to:  31 ShMem   1 Linda.
 G2DrvN:  IPasSy=1 do centers   15 through   15.
 Calling FoFCou, ICntrl=  3107 FMM=F I1Cent=   0 AccDes= 0.00D+00.
 CoulSu:  requested number of processors reduced to:  31 ShMem   1 Linda.
 G2DrvN:  IPasSy=1 do centers   16 through   16.
 Calling FoFCou, ICntrl=  3107 FMM=F I1Cent=   0 AccDes= 0.00D+00.
 CoulSu:  requested number of processors reduced to:  31 ShMem   1 Linda.
 G2DrvN:  IPasSy=1 do centers   17 through   17.
 Calling FoFCou, ICntrl=  3107 FMM=F I1Cent=   0 AccDes= 0.00D+00.
 CoulSu:  requested number of processors reduced to:  31 ShMem   1 Linda.
 G2DrvN:  IPasSy=1 do centers   18 through   18.
 Calling FoFCou, ICntrl=  3107 FMM=F I1Cent=   0 AccDes= 0.00D+00.
 CoulSu:  requested number of processors reduced to:  31 ShMem   1 Linda.
 G2DrvN:  IPasSy=1 do centers   19 through   19.
 Calling FoFCou, ICntrl=  3107 FMM=F I1Cent=   0 AccDes= 0.00D+00.
 CoulSu:  requested number of processors reduced to:  31 ShMem   1 Linda.
 G2DrvN:  IPasSy=1 do centers   20 through   20.
 Calling FoFCou, ICntrl=  3107 FMM=F I1Cent=   0 AccDes= 0.00D+00.
 CoulSu:  requested number of processors reduced to:  31 ShMem   1 Linda.
 G2DrvN:  IPasSy=1 do centers   21 through   21.
 Calling FoFCou, ICntrl=  3107 FMM=F I1Cent=   0 AccDes= 0.00D+00.
 CoulSu:  requested number of processors reduced to:  31 ShMem   1 Linda.
 G2DrvN:  IPasSy=1 do centers   22 through   22.
 Calling FoFCou, ICntrl=  3107 FMM=F I1Cent=   0 AccDes= 0.00D+00.
 CoulSu:  requested number of processors reduced to:  31 ShMem   1 Linda.
 G2DrvN:  IPasSy=1 do centers   23 through   23.
 Calling FoFCou, ICntrl=  3107 FMM=F I1Cent=   0 AccDes= 0.00D+00.
 CoulSu:  requested number of processors reduced to:  31 ShMem   1 Linda.
 G2DrvN:  IPasSy=1 do centers   24 through   24.
 Calling FoFCou, ICntrl=  3107 FMM=F I1Cent=   0 AccDes= 0.00D+00.
 CoulSu:  requested number of processors reduced to:  31 ShMem   1 Linda.
 G2DrvN:  IPasSy=1 do centers   25 through   25.
 Calling FoFCou, ICntrl=  3107 FMM=F I1Cent=   0 AccDes= 0.00D+00.
 CoulSu:  requested number of processors reduced to:  31 ShMem   1 Linda.
 G2DrvN:  IPasSy=1 do centers   26 through   26.
 Calling FoFCou, ICntrl=  3107 FMM=F I1Cent=   0 AccDes= 0.00D+00.
 CoulSu:  requested number of processors reduced to:  31 ShMem   1 Linda.
 G2DrvN:  IPasSy=1 do centers   27 through   27.
 Calling FoFCou, ICntrl=  3107 FMM=F I1Cent=   0 AccDes= 0.00D+00.
 CoulSu:  requested number of processors reduced to:  31 ShMem   1 Linda.
 G2DrvN:  IPasSy=1 do centers   28 through   28.
 Calling FoFCou, ICntrl=  3107 FMM=F I1Cent=   0 AccDes= 0.00D+00.
 CoulSu:  requested number of processors reduced to:  31 ShMem   1 Linda.
 G2DrvN:  IPasSy=1 do centers   29 through   29.
 Calling FoFCou, ICntrl=  3107 FMM=F I1Cent=   0 AccDes= 0.00D+00.
 CoulSu:  requested number of processors reduced to:  31 ShMem   1 Linda.
 G2DrvN:  IPasSy=1 do centers   30 through   30.
 Calling FoFCou, ICntrl=  3107 FMM=F I1Cent=   0 AccDes= 0.00D+00.
 CoulSu:  requested number of processors reduced to:  31 ShMem   1 Linda.
 G2DrvN:  IPasSy=1 do centers   31 through   31.
 Calling FoFCou, ICntrl=  3107 FMM=F I1Cent=   0 AccDes= 0.00D+00.
 CoulSu:  requested number of processors reduced to:  31 ShMem   1 Linda.
 G2DrvN:  IPasSy=1 do centers   32 through   32.
 Calling FoFCou, ICntrl=  3107 FMM=F I1Cent=   0 AccDes= 0.00D+00.
 CoulSu:  requested number of processors reduced to:  31 ShMem   1 Linda.
 G2DrvN:  IPasSy=1 do centers   33 through   33.
 Calling FoFCou, ICntrl=  3107 FMM=F I1Cent=   0 AccDes= 0.00D+00.
 CoulSu:  requested number of processors reduced to:  31 ShMem   1 Linda.
 G2DrvN:  IPasSy=1 do centers   34 through   34.
 Calling FoFCou, ICntrl=  3107 FMM=F I1Cent=   0 AccDes= 0.00D+00.
 CoulSu:  requested number of processors reduced to:  31 ShMem   1 Linda.
 G2DrvN:  IPasSy=1 do centers   35 through   35.
 Calling FoFCou, ICntrl=  3107 FMM=F I1Cent=   0 AccDes= 0.00D+00.
 CoulSu:  requested number of processors reduced to:  31 ShMem   1 Linda.
 G2DrvN:  IPasSy=1 do centers   36 through   36.
 Calling FoFCou, ICntrl=  3107 FMM=F I1Cent=   0 AccDes= 0.00D+00.
 CoulSu:  requested number of processors reduced to:  31 ShMem   1 Linda.
 G2DrvN:  IPasSy=1 do centers   37 through   37.
 Calling FoFCou, ICntrl=  3107 FMM=F I1Cent=   0 AccDes= 0.00D+00.
 CoulSu:  requested number of processors reduced to:  31 ShMem   1 Linda.
 G2DrvN:  IPasSy=1 do centers   38 through   38.
 Calling FoFCou, ICntrl=  3107 FMM=F I1Cent=   0 AccDes= 0.00D+00.
 CoulSu:  requested number of processors reduced to:  31 ShMem   1 Linda.
 G2DrvN:  IPasSy=1 do centers   39 through   39.
 Calling FoFCou, ICntrl=  3107 FMM=F I1Cent=   0 AccDes= 0.00D+00.
 CoulSu:  requested number of processors reduced to:  31 ShMem   1 Linda.
 G2DrvN:  IPasSy=1 do centers   40 through   40.
 Calling FoFCou, ICntrl=  3107 FMM=F I1Cent=   0 AccDes= 0.00D+00.
 CoulSu:  requested number of processors reduced to:  31 ShMem   1 Linda.
 NEqPCM:  Using equilibrium solvation (IEInf=0, Eps=  35.6880, EpsInf=   1.8069)
 G2PCM: DoFxE=T DoFxN=T DoGrad=T DoDP/DQ/DG/TGxP=FFFF NFrqRd=   0 IEInf=0 SqF1=F DoCFld=F IF1Alg=4.
 GePol: Maximum number of non-zero 1st derivatives   =     179
 CoulSu:  requested number of processors reduced to:  30 ShMem   1 Linda.
 CoulSu:  requested number of processors reduced to:  29 ShMem   1 Linda.
 CoulSu:  requested number of processors reduced to:  30 ShMem   1 Linda.
 CoulSu:  requested number of processors reduced to:  30 ShMem   1 Linda.
 CoulSu:  requested number of processors reduced to:  29 ShMem   1 Linda.
 CoulSu:  requested number of processors reduced to:  30 ShMem   1 Linda.
 CoulSu:  requested number of processors reduced to:  30 ShMem   1 Linda.
 CoulSu:  requested number of processors reduced to:  29 ShMem   1 Linda.
 CoulSu:  requested number of processors reduced to:  30 ShMem   1 Linda.
 CoulSu:  requested number of processors reduced to:  30 ShMem   1 Linda.
 CoulSu:  requested number of processors reduced to:  29 ShMem   1 Linda.
 CoulSu:  requested number of processors reduced to:  30 ShMem   1 Linda.
 CoulSu:  requested number of processors reduced to:  30 ShMem   1 Linda.
 CoulSu:  requested number of processors reduced to:  29 ShMem   1 Linda.
 CoulSu:  requested number of processors reduced to:  30 ShMem   1 Linda.
 CoulSu:  requested number of processors reduced to:  30 ShMem   1 Linda.
 CoulSu:  requested number of processors reduced to:  29 ShMem   1 Linda.
 CoulSu:  requested number of processors reduced to:  30 ShMem   1 Linda.
 CoulSu:  requested number of processors reduced to:  30 ShMem   1 Linda.
 CoulSu:  requested number of processors reduced to:  29 ShMem   1 Linda.
 CoulSu:  requested number of processors reduced to:  30 ShMem   1 Linda.
 CoulSu:  requested number of processors reduced to:  30 ShMem   1 Linda.
 CoulSu:  requested number of processors reduced to:  29 ShMem   1 Linda.
 CoulSu:  requested number of processors reduced to:  30 ShMem   1 Linda.
 CoulSu:  requested number of processors reduced to:  30 ShMem   1 Linda.
 CoulSu:  requested number of processors reduced to:  29 ShMem   1 Linda.
 CoulSu:  requested number of processors reduced to:  30 ShMem   1 Linda.
 CoulSu:  requested number of processors reduced to:  30 ShMem   1 Linda.
 CoulSu:  requested number of processors reduced to:  29 ShMem   1 Linda.
 CoulSu:  requested number of processors reduced to:  30 ShMem   1 Linda.
 CoulSu:  requested number of processors reduced to:  30 ShMem   1 Linda.
 CoulSu:  requested number of processors reduced to:  29 ShMem   1 Linda.
 CoulSu:  requested number of processors reduced to:  30 ShMem   1 Linda.
 CoulSu:  requested number of processors reduced to:  30 ShMem   1 Linda.
 CoulSu:  requested number of processors reduced to:  29 ShMem   1 Linda.
 CoulSu:  requested number of processors reduced to:  30 ShMem   1 Linda.
 CoulSu:  requested number of processors reduced to:  30 ShMem   1 Linda.
 CoulSu:  requested number of processors reduced to:  29 ShMem   1 Linda.
 CoulSu:  requested number of processors reduced to:  30 ShMem   1 Linda.
 CoulSu:  requested number of processors reduced to:  30 ShMem   1 Linda.
 CoulSu:  requested number of processors reduced to:  29 ShMem   1 Linda.
 CoulSu:  requested number of processors reduced to:  30 ShMem   1 Linda.
 CoulSu:  requested number of processors reduced to:  30 ShMem   1 Linda.
 CoulSu:  requested number of processors reduced to:  29 ShMem   1 Linda.
 CoulSu:  requested number of processors reduced to:  30 ShMem   1 Linda.
 CoulSu:  requested number of processors reduced to:  30 ShMem   1 Linda.
 CoulSu:  requested number of processors reduced to:  29 ShMem   1 Linda.
 CoulSu:  requested number of processors reduced to:  30 ShMem   1 Linda.
 CoulSu:  requested number of processors reduced to:  30 ShMem   1 Linda.
 CoulSu:  requested number of processors reduced to:  29 ShMem   1 Linda.
 CoulSu:  requested number of processors reduced to:  30 ShMem   1 Linda.
 CoulSu:  requested number of processors reduced to:  30 ShMem   1 Linda.
 CoulSu:  requested number of processors reduced to:  29 ShMem   1 Linda.
 CoulSu:  requested number of processors reduced to:  30 ShMem   1 Linda.
 CoulSu:  requested number of processors reduced to:  30 ShMem   1 Linda.
 CoulSu:  requested number of processors reduced to:  29 ShMem   1 Linda.
 CoulSu:  requested number of processors reduced to:  30 ShMem   1 Linda.
 CoulSu:  requested number of processors reduced to:  30 ShMem   1 Linda.
 CoulSu:  requested number of processors reduced to:  29 ShMem   1 Linda.
 CoulSu:  requested number of processors reduced to:  30 ShMem   1 Linda.
 CoulSu:  requested number of processors reduced to:  34 ShMem   1 Linda.
 CoulSu:  requested number of processors reduced to:  30 ShMem   1 Linda.
 CoulSu:  requested number of processors reduced to:  34 ShMem   1 Linda.
 CoulSu:  requested number of processors reduced to:  30 ShMem   1 Linda.
 CoulSu:  requested number of processors reduced to:  34 ShMem   1 Linda.
 CoulSu:  requested number of processors reduced to:  30 ShMem   1 Linda.
 CoulSu:  requested number of processors reduced to:  34 ShMem   1 Linda.
 CoulSu:  requested number of processors reduced to:  30 ShMem   1 Linda.
 CoulSu:  requested number of processors reduced to:  34 ShMem   1 Linda.
 CoulSu:  requested number of processors reduced to:  30 ShMem   1 Linda.
 CoulSu:  requested number of processors reduced to:  34 ShMem   1 Linda.
 CoulSu:  requested number of processors reduced to:  30 ShMem   1 Linda.
 CoulSu:  requested number of processors reduced to:  34 ShMem   1 Linda.
 CoulSu:  requested number of processors reduced to:  30 ShMem   1 Linda.
 CoulSu:  requested number of processors reduced to:  34 ShMem   1 Linda.
 CoulSu:  requested number of processors reduced to:  30 ShMem   1 Linda.
 CoulSu:  requested number of processors reduced to:  34 ShMem   1 Linda.
 CoulSu:  requested number of processors reduced to:  30 ShMem   1 Linda.
 CoulSu:  requested number of processors reduced to:  34 ShMem   1 Linda.
 CoulSu:  requested number of processors reduced to:  30 ShMem   1 Linda.
 CoulSu:  requested number of processors reduced to:  34 ShMem   1 Linda.
 CoulSu:  requested number of processors reduced to:  30 ShMem   1 Linda.
 CoulSu:  requested number of processors reduced to:  34 ShMem   1 Linda.
 CoulSu:  requested number of processors reduced to:  30 ShMem   1 Linda.
 CoulSu:  requested number of processors reduced to:  34 ShMem   1 Linda.
 CoulSu:  requested number of processors reduced to:  30 ShMem   1 Linda.
 CoulSu:  requested number of processors reduced to:  39 ShMem   1 Linda.
 CoulSu:  requested number of processors reduced to:  27 ShMem   1 Linda.
 CoulSu:  requested number of processors reduced to:  28 ShMem   1 Linda.
 CoulSu:  requested number of processors reduced to:  27 ShMem   1 Linda.
 CoulSu:  requested number of processors reduced to:  28 ShMem   1 Linda.
 End of G2Drv F.D. properties file   721 does not exist.
 End of G2Drv F.D. properties file   722 does not exist.
 End of G2Drv F.D. properties file   788 does not exist.
 Leave Link 1110 at Fri Jun 14 13:02:11 2019, MaxMem=   104857600 cpu:            9480.3 elap:             250.7
 (Enter /project/6004141/group/g16/g16/l1002.exe)
 Minotr:  UHF open shell wavefunction.
          IDoAtm=1111111111111111111111111111111111111111
 NEqPCM:  Using equilibrium solvation (IEInf=0, Eps=  35.6880, EpsInf=   1.8069)
          Direct CPHF calculation.
          Differentiating once with respect to electric field.
                with respect to dipole field.
          Differentiating once with respect to nuclear coordinates.
          Requested convergence is 1.0D-08 RMS, and 1.0D-07 maximum.
          Secondary convergence is 1.0D-12 RMS, and 1.0D-12 maximum.
          NewPWx=T KeepS1=F KeepF1=F KeepIn=T MapXYZ=F SortEE=F KeepMc=T.
        12005 words used for storage of precomputed grid.
 Two-electron integrals replicated using symmetry.
          MDV=     104857600 using IRadAn=       1.
          Solving linear equations simultaneously, MaxMat=     360.
 FoF2E skips out because all densities are zero.
 CalDSu exits because no D1Ps are significant.
 FoFJK:  IHMeth= 1 ICntrl=       0 DoSepK=F KAlg= 0 I1Cent=           0 FoldK=F
 IRaf= 770000000 NMat=       4 IRICut=       1 DoRegI=T DoRafI=F ISym2E= 2 IDoP0=0 IntGTp=1.
          There are   123 degrees of freedom in the 1st order CPHF.  IDoFFX=6 NUNeed=     3.
    123 vectors produced by pass  0 Test12= 4.77D-14 1.00D-09 XBig12= 7.89D+02 1.22D+01.
 AX will form     4 AO Fock derivatives at one time.
    121 vectors produced by pass  1 Test12= 4.77D-14 1.00D-09 XBig12= 1.33D+02 2.04D+00.
    120 vectors produced by pass  2 Test12= 4.77D-14 1.00D-09 XBig12= 1.56D+00 2.14D-01.
    120 vectors produced by pass  3 Test12= 4.77D-14 1.00D-09 XBig12= 1.22D-02 1.35D-02.
    120 vectors produced by pass  4 Test12= 4.77D-14 1.00D-09 XBig12= 4.77D-05 9.62D-04.
    120 vectors produced by pass  5 Test12= 4.77D-14 1.00D-09 XBig12= 2.56D-07 3.66D-05.
     79 vectors produced by pass  6 Test12= 4.77D-14 1.00D-09 XBig12= 8.82D-10 1.92D-06.
     20 vectors produced by pass  7 Test12= 4.77D-14 1.00D-09 XBig12= 2.75D-12 1.05D-07.
      8 vectors produced by pass  8 Test12= 4.77D-14 1.00D-09 XBig12= 1.27D-14 7.05D-09.
      1 vectors produced by pass  9 Test12= 4.77D-14 1.00D-09 XBig12= 1.99D-16 1.13D-09.
 InvSVY:  IOpt=1 It=  1 EMax= 8.52D-15
 Solved reduced A of dimension   832 with   123 vectors.
 FullF1:  Do perturbations      1 to       3.
 Isotropic polarizability for W=    0.000000      262.14 Bohr**3.
 End of Minotr F.D. properties file   721 does not exist.
 End of Minotr F.D. properties file   722 does not exist.
 End of Minotr F.D. properties file   788 does not exist.
 Leave Link 1002 at Fri Jun 14 13:12:17 2019, MaxMem=   104857600 cpu:           24151.2 elap:             607.4
 (Enter /project/6004141/group/g16/g16/l601.exe)
 Copying SCF densities to generalized density rwf, IOpCl= 1 IROHF=0.

 **********************************************************************

            Population analysis using the SCF density.

 **********************************************************************

 Orbital symmetries:
 Alpha Orbitals:
       Occupied  (A) (A) (A) (A) (A) (A) (A) (A) (A) (A) (A) (A)
                 (A) (A) (A) (A) (A) (A) (A) (A) (A) (A) (A) (A)
                 (A) (A) (A) (A) (A) (A) (A) (A) (A) (A) (A) (A)
                 (A) (A) (A) (A) (A) (A) (A) (A) (A) (A) (A) (A)
                 (A) (A) (A) (A) (A) (A) (A) (A) (A) (A) (A) (A)
                 (A) (A) (A) (A) (A) (A) (A) (A) (A) (A) (A) (A)
                 (A)
       Virtual   (A) (A) (A) (A) (A) (A) (A) (A) (A) (A) (A) (A)
                 (A) (A) (A) (A) (A) (A) (A) (A) (A) (A) (A) (A)
                 (A) (A) (A) (A) (A) (A) (A) (A) (A) (A) (A) (A)
                 (A) (A) (A) (A) (A) (A) (A) (A) (A) (A) (A) (A)
                 (A) (A) (A) (A) (A) (A) (A) (A) (A) (A) (A) (A)
                 (A) (A) (A) (A) (A) (A) (A) (A) (A) (A) (A) (A)
                 (A) (A) (A) (A) (A) (A) (A) (A) (A) (A) (A) (A)
                 (A) (A) (A) (A) (A) (A) (A) (A) (A) (A) (A) (A)
                 (A) (A) (A) (A) (A) (A) (A) (A) (A) (A) (A) (A)
                 (A) (A) (A) (A) (A) (A) (A) (A) (A) (A) (A) (A)
                 (A) (A) (A) (A) (A) (A) (A) (A) (A) (A) (A) (A)
                 (A) (A) (A) (A) (A) (A) (A) (A) (A) (A) (A) (A)
                 (A) (A) (A) (A) (A) (A) (A) (A) (A) (A) (A) (A)
                 (A) (A) (A) (A) (A) (A) (A) (A) (A) (A) (A) (A)
                 (A) (A) (A) (A) (A) (A) (A) (A) (A) (A) (A) (A)
                 (A) (A) (A) (A) (A) (A) (A) (A) (A) (A) (A) (A)
                 (A) (A) (A) (A) (A) (A) (A) (A) (A) (A) (A) (A)
                 (A) (A) (A) (A) (A) (A) (A) (A) (A) (A) (A) (A)
                 (A) (A) (A) (A) (A) (A) (A) (A) (A) (A) (A) (A)
                 (A) (A) (A) (A) (A) (A) (A) (A) (A) (A) (A) (A)
                 (A) (A) (A) (A) (A) (A) (A) (A) (A) (A) (A) (A)
                 (A) (A) (A) (A) (A) (A) (A) (A) (A) (A) (A) (A)
                 (A) (A) (A) (A) (A) (A) (A) (A) (A) (A) (A) (A)
                 (A) (A) (A) (A) (A) (A) (A) (A) (A) (A) (A) (A)
                 (A) (A) (A) (A) (A) (A) (A) (A) (A) (A) (A) (A)
                 (A) (A) (A) (A) (A) (A) (A) (A) (A) (A) (A) (A)
                 (A) (A) (A) (A) (A) (A) (A) (A) (A) (A) (A) (A)
                 (A) (A) (A)
 Beta  Orbitals:
       Occupied  (A) (A) (A) (A) (A) (A) (A) (A) (A) (A) (A) (A)
                 (A) (A) (A) (A) (A) (A) (A) (A) (A) (A) (A) (A)
                 (A) (A) (A) (A) (A) (A) (A) (A) (A) (A) (A) (A)
                 (A) (A) (A) (A) (A) (A) (A) (A) (A) (A) (A) (A)
                 (A) (A) (A) (A) (A) (A) (A) (A) (A) (A) (A) (A)
                 (A) (A) (A) (A) (A) (A) (A) (A) (A) (A) (A) (A)
                 (A)
       Virtual   (A) (A) (A) (A) (A) (A) (A) (A) (A) (A) (A) (A)
                 (A) (A) (A) (A) (A) (A) (A) (A) (A) (A) (A) (A)
                 (A) (A) (A) (A) (A) (A) (A) (A) (A) (A) (A) (A)
                 (A) (A) (A) (A) (A) (A) (A) (A) (A) (A) (A) (A)
                 (A) (A) (A) (A) (A) (A) (A) (A) (A) (A) (A) (A)
                 (A) (A) (A) (A) (A) (A) (A) (A) (A) (A) (A) (A)
                 (A) (A) (A) (A) (A) (A) (A) (A) (A) (A) (A) (A)
                 (A) (A) (A) (A) (A) (A) (A) (A) (A) (A) (A) (A)
                 (A) (A) (A) (A) (A) (A) (A) (A) (A) (A) (A) (A)
                 (A) (A) (A) (A) (A) (A) (A) (A) (A) (A) (A) (A)
                 (A) (A) (A) (A) (A) (A) (A) (A) (A) (A) (A) (A)
                 (A) (A) (A) (A) (A) (A) (A) (A) (A) (A) (A) (A)
                 (A) (A) (A) (A) (A) (A) (A) (A) (A) (A) (A) (A)
                 (A) (A) (A) (A) (A) (A) (A) (A) (A) (A) (A) (A)
                 (A) (A) (A) (A) (A) (A) (A) (A) (A) (A) (A) (A)
                 (A) (A) (A) (A) (A) (A) (A) (A) (A) (A) (A) (A)
                 (A) (A) (A) (A) (A) (A) (A) (A) (A) (A) (A) (A)
                 (A) (A) (A) (A) (A) (A) (A) (A) (A) (A) (A) (A)
                 (A) (A) (A) (A) (A) (A) (A) (A) (A) (A) (A) (A)
                 (A) (A) (A) (A) (A) (A) (A) (A) (A) (A) (A) (A)
                 (A) (A) (A) (A) (A) (A) (A) (A) (A) (A) (A) (A)
                 (A) (A) (A) (A) (A) (A) (A) (A) (A) (A) (A) (A)
                 (A) (A) (A) (A) (A) (A) (A) (A) (A) (A) (A) (A)
                 (A) (A) (A) (A) (A) (A) (A) (A) (A) (A) (A) (A)
                 (A) (A) (A) (A) (A) (A) (A) (A) (A) (A) (A) (A)
                 (A) (A) (A) (A) (A) (A) (A) (A) (A) (A) (A) (A)
                 (A) (A) (A) (A) (A) (A) (A) (A) (A) (A) (A) (A)
                 (A) (A) (A)
 The electronic state is 1-A.
 Alpha  occ. eigenvalues --  -19.16062 -19.14734 -14.38814 -14.36005 -10.28465
 Alpha  occ. eigenvalues --  -10.23236 -10.20048 -10.19869 -10.19852 -10.19656
 Alpha  occ. eigenvalues --  -10.19471 -10.19341 -10.18892 -10.18627 -10.18482
 Alpha  occ. eigenvalues --  -10.18197 -10.18129 -10.17775 -10.17550 -10.17513
 Alpha  occ. eigenvalues --   -1.04248  -1.03661  -0.99306  -0.85974  -0.84032
 Alpha  occ. eigenvalues --   -0.77383  -0.76556  -0.75038  -0.74414  -0.73346
 Alpha  occ. eigenvalues --   -0.73006  -0.71773  -0.63388  -0.63032  -0.60622
 Alpha  occ. eigenvalues --   -0.59073  -0.56445  -0.55816  -0.54606  -0.51215
[...]
 2,-0.00001820,0.00000803,0.00000006,0.00001053,0.00002224,0.00000767,0
 .00000560,0.00290010,-0.00253240,0.00685416,-0.00163901,0.00416877,0.0
 0291749,0.02800088,-0.12971176,0.13997271,-0.00034270,-0.00031713,-0.0
 0049425,0.00025311,0.00030197,0.00065905,-0.00004838,0.00095454,0.0050
 3904,-0.03171704,0.12718169,0.00016234,-0.00001560,-0.00005843,0.00003
 127,-0.00001665,0.00000502,-0.00124063,-0.00136015,-0.00213769,0.00044
 833,0.00006747,0.00043562,-0.00018004,0.00006307,0.00001816,-0.0000392
 6,-0.00003669,0.00000112,0.00001539,-0.00000024,-0.00000507,-0.0000506
 8,0.00003018,-0.00001612,0.00010252,0.00000419,-0.00001103,0.00001928,
 0.00003105,0.00000713,-0.00000244,0.00001916,-0.00003160,0.00000781,0.
 00000069,0.00000685,-0.00003223,-0.00001934,0.00002010,-0.00002680,-0.
 00000925,0.00001847,-0.00111514,0.00025751,0.00032245,-0.00117082,0.00
 014072,0.00032766,0.00009507,-0.00036039,-0.00034812,-0.00021493,-0.00
 027277,0.00038529,0.00016147,0.00017036,-0.00013235,0.00032387,0.00020
 211,0.00031243,-0.00011175,0.00004452,-0.00008185,-0.00029170,0.000186
 01,0.00024573,0.00002385,-0.00011305,0.00000064,0.00008553,-0.00005908
 ,-0.00004072,-0.00000215,-0.00000192,0.00004933,-0.00009558,-0.0000031
 0,-0.00002668,0.00001556,-0.00000149,-0.00003021,0.00002629,0.00000094
 ,0.00002780,0.00004192,0.00000908,0.00001029,-0.00460894,0.00856594,-0
 .01078219,0.00352058,0.00290585,0.00172452,-0.04046653,0.13791957,-0.2
 4311058,-0.00003699,-0.00058411,0.00026573,-0.00034560,0.00076785,-0.0
 0039724,0.00067179,0.00456023,-0.00200795,0.04572818,-0.15341114,0.253
 38477,0.00036980,0.00026906,0.00034028,0.00001591,-0.00001983,0.000008
 74,-0.00081346,-0.00129078,0.00225783,-0.00057629,0.00073781,-0.001383
 55,-0.00028329,0.00012539,-0.00020110,-0.00009753,-0.00001890,0.000035
 40,0.00002275,0.00000907,-0.00001200,-0.00000146,0.00005512,-0.0000225
 4,0.00006701,-0.00003549,-0.00002656,0.00014329,-0.00003202,-0.0000402
 3,0.00002478,-0.00006930,-0.00003539,-0.00000222,0.00001538,0.00003388
 ,0.00008205,-0.00001026,-0.00003758,-0.00000049,0.00000889,0.00001670,
 -0.00011190,-0.00014098,-0.00011626,0.00006307,0.00006355,0.00004170,0
 .00012477,-0.00014541,-0.00000168,-0.00005127,-0.00000597,0.00013749,-
 0.00049960,-0.00019350,0.00003867,0.00019067,0.00020139,-0.00015075,0.
 00012219,-0.00033673,0.00010432,-0.00018355,0.00000646,-0.00001916,0.0
 0000408,-0.00001477,0.00001323,-0.00009600,-0.00044080,0.00019892,-0.0
 0002724,0.00005033,0.00009189,0.00029108,-0.00015918,-0.00042603,0.000
 00965,-0.00000007,-0.00000246,0.00005496,0.00007297,0.00008302,0.00000
 186,0.00001978,0.00001933,-0.00555653,-0.01013725,0.01614597,-0.053734
 59,0.00101761,0.00138117,0.01190403,0.02003035,-0.03124900,-0.24359752
 ,-0.06754270,0.11718910,-0.00361382,0.00159374,-0.00206970,-0.13802835
 ,0.04038050,-0.06135650,-0.00537955,0.00101137,-0.00128013,0.73291744,
 -0.00025327,-0.00030102,-0.00028448,-0.00000996,0.00000485,0.00000028,
 -0.00114428,-0.00120677,0.00098107,-0.00071538,0.00011886,-0.00011461,
 0.00030984,-0.00011500,0.00020719,-0.00000091,0.00004375,-0.00000757,-
 0.00000753,-0.00000002,0.00000197,0.00001872,-0.00002086,0.00002127,-0
 .00009898,-0.00000337,0.00002581,0.00002309,-0.00001377,-0.00000720,0.
 00002806,0.00013234,0.00002377,-0.00001278,0.00000746,-0.00002697,0.00
 002295,-0.00011077,-0.00006602,0.00002553,-0.00000377,-0.00002425,0.00
 010077,-0.00012105,0.00036688,0.00012739,-0.00000726,-0.00013051,0.000
 13439,0.00013742,-0.00009452,0.00003118,-0.00000287,0.00005620,0.00027
 724,-0.00003966,0.00014843,0.00021747,0.00010303,-0.00005364,-0.000349
 15,-0.00019598,-0.00014204,-0.00011619,0.00019269,0.00007811,0.0000018
 1,0.00000133,-0.00000667,-0.00001134,-0.00083607,-0.00019234,-0.000045
 06,0.00009340,0.00010683,-0.00005931,0.00020514,-0.00035002,0.00000516
 ,0.00000246,0.00000197,0.00007008,0.00004610,0.00010060,0.00001017,0.0
 0000290,0.00000394,-0.00912813,-0.02084064,0.02133203,-0.02412192,0.02
 209538,-0.02349345,0.04423716,0.00144398,0.00505830,-0.03193818,-0.103
 44007,0.06924559,0.00198757,0.00545261,0.00346921,0.00434997,-0.139930
 26,0.12394309,0.00066324,0.00573073,0.00305834,-0.02518890,0.29045657,
 0.00007564,0.00021168,-0.00024493,0.00001458,-0.00000340,-0.00000321,0
 .00216939,0.00103726,-0.00258804,0.00093818,-0.00032477,0.00050643,0.0
 0035508,-0.00010763,0.00024468,0.00002954,0.00003202,-0.00000492,-0.00
 001589,-0.00000411,0.00000445,0.00001852,-0.00001660,0.00002030,-0.000
 09578,-0.00001261,0.00000808,-0.00002773,0.00000327,-0.00000554,-0.000
 07167,-0.00012516,0.00006408,0.00000143,-0.00000512,0.00000322,-0.0000
 3589,0.00016040,0.00002042,0.00001547,0.00000850,-0.00000811,-0.000067
 98,0.00073235,-0.00023215,-0.00020932,-0.00007828,0.00017528,-0.000275
 30,-0.00014573,-0.00003298,-0.00002340,-0.00002950,-0.00008179,-0.0004
 8084,0.00045791,0.00007067,-0.00022883,-0.00016792,0.00002050,-0.00003
 847,-0.00073362,-0.00015024,0.00006898,-0.00009996,-0.00024332,0.00001
 702,-0.00002762,0.00001510,0.00019704,-0.00000025,0.00008219,0.0000095
 8,0.00003212,-0.00000577,0.00020388,-0.00008762,-0.00001219,-0.0000099
 8,-0.00002944,0.00003477,0.00002636,0.00001522,0.00001230,-0.00004942,
 -0.00001620,0.00001019,0.01459737,0.02080687,-0.04337270,0.04142546,-0
 .02498996,0.04418255,-0.07216332,0.00742784,-0.00074597,0.05931932,0.0
 7093309,-0.17803124,-0.00258654,0.00365865,0.00232713,-0.00301936,0.12
 325294,-0.25295533,-0.00054978,0.00241682,0.00310660,0.01375301,-0.243
 16568,0.52153702,0.00002562,0.00001678,-0.00000601,0.00002076,-0.00001
 466,0.00000144,0.00085768,0.00091223,-0.00148417,-0.00027329,-0.000134
 02,0.00026346,-0.00000353,0.00002121,0.00002372,-0.00003671,0.00001320
 ,0.00000777,0.00000886,0.00000376,-0.00000446,-0.00001224,0.00001370,0
 .00000658,0.00000874,-0.00001925,-0.00000653,0.00006952,-0.00002017,-0
 .00002787,-0.00001069,-0.00002191,0.00000317,0.00000506,0.00000569,0.0
 0000405,0.00001086,0.00000972,-0.00002397,-0.00000103,0.00000795,0.000
 00334,-0.00051870,-0.00000099,-0.00001257,0.00002126,-0.00001767,-0.00
 000288,-0.00000294,-0.00001109,-0.00000381,-0.00007547,0.00008523,-0.0
 0012984,-0.00004160,0.00000316,0.00000184,0.00000355,0.00000937,0.0000
 0602,0.00001839,0.00000391,0.00000064,-0.00000954,-0.00000246,-0.00000
 517,-0.00000062,-0.00000388,0.00000090,-0.00001133,-0.00000163,0.00001
 471,-0.00000257,-0.00000337,-0.00000388,0.00001979,-0.00000513,-0.0000
 1450,0.00000164,0.00000111,-0.00000212,0.00000277,0.00000072,0.0000013
 7,0.00000406,0.00000134,0.00000002,-0.00526863,0.00054901,-0.00018672,
 -0.00165230,0.01646386,-0.02618583,-0.00114941,-0.00016472,0.00032001,
 -0.07007778,0.02918378,-0.04478363,0.00100048,-0.00033327,0.00024871,-
 0.00352707,-0.00125003,0.00241666,0.00019850,0.00000287,-0.00009455,0.
 00885061,-0.01322938,0.02087895,0.07037535,-0.00007686,-0.00001562,-0.
 00003142,-0.00001373,0.00000929,-0.00000207,-0.00061120,0.00026960,0.0
 0039903,0.00032144,0.00012523,-0.00001241,0.00006375,-0.00003081,0.000
 01752,0.00003277,-0.00000607,-0.00000693,-0.00000879,-0.00000279,0.000
 00419,0.00001322,-0.00001378,-0.00000178,-0.00002336,0.00001078,0.0000
 0748,-0.00005512,0.00001630,0.00001722,0.00000981,0.00001931,0.0000091
 6,-0.00000523,-0.00000325,-0.00000504,-0.00001142,0.00000100,0.0000133
 4,0.00000448,-0.00000489,-0.00000619,0.00013528,-0.00027070,-0.0001160
 6,-0.00002503,0.00002249,-0.00003750,0.00003311,-0.00001484,0.00006632
 ,0.00003366,-0.00004423,-0.00000052,0.00002235,0.00000753,-0.00001702,
 -0.00000761,-0.00001323,-0.00002276,-0.00003714,-0.00002610,0.00002359
 ,-0.00000143,0.00000623,-0.00001425,0.00000239,0.00000311,0.00000057,0
 .00003352,-0.00001381,0.00000504,0.00000969,-0.00000563,-0.00000617,0.
 00000203,-0.00001514,-0.00002275,-0.00000319,-0.00000277,0.00000606,-0
 .00000500,0.00000501,-0.00000063,-0.00000396,0.00000309,0.00000328,0.0
 0127018,0.00592002,0.00286623,-0.00027430,0.00001672,0.00419955,-0.000
 20738,-0.00017663,-0.00046738,0.02912115,-0.12017470,0.13223739,-0.000
 04326,-0.00289666,-0.00229937,-0.00168792,0.00494901,0.00338413,0.0000
 2844,-0.00085792,-0.00052974,0.00350778,-0.00208586,0.00748823,-0.0315
 3069,0.11785088,0.00008294,0.00002706,0.00004823,0.00001833,-0.0000139
 2,0.00000363,0.00092248,0.00034407,-0.00011836,-0.00043817,0.00000764,
 0.00016718,-0.00007481,0.00004154,-0.00002153,-0.00004887,0.00000745,0
 .00000962,0.00001338,0.00000395,-0.00000613,-0.00001803,0.00001946,0.0
 0000129,0.00003146,-0.00001841,-0.00000834,0.00008193,-0.00002112,-0.0
 0002352,-0.00001238,-0.00002319,-0.00000835,0.00000608,0.00000686,0.00
 000515,0.00001373,0.00000507,-0.00002149,-0.00000724,0.00000959,0.0000
 0760,-0.00017906,-0.00013555,-0.00008559,0.00000042,0.00001317,-0.0000
 1980,0.00001341,-0.00004043,0.00002319,-0.00003503,0.00001866,-0.00006
 737,-0.00003537,-0.00003121,0.00000803,0.00002780,0.00001732,0.0000004
 4,0.00003449,0.00005954,-0.00000125,-0.00001252,0.00001256,0.00003062,
 -0.00000317,-0.00000246,-0.00000086,-0.00003400,0.00001269,-0.00000902
 ,-0.00000188,-0.00001698,-0.00001100,-0.00000305,0.00001291,0.00000359
 ,0.00000390,0.00000319,-0.00000867,0.00000347,-0.00000481,0.00000212,0
 .00000221,-0.00000260,-0.00000252,-0.00154918,0.00277540,0.00332950,0.
 00036099,0.00341481,-0.00284475,0.00046581,-0.00050145,0.00024550,-0.0
 4470164,0.13214811,-0.24593035,-0.00019743,-0.00229500,-0.00065799,0.0
 0336259,0.00326059,0.00158661,-0.00008067,-0.00047478,-0.00041238,-0.0
 0593052,0.00849190,-0.01052580,0.04810096,-0.14554628,0.25638811,-0.00
 002015,0.00005773,-0.00000941,0.00002057,-0.00001840,0.00000449,0.0007
 2440,-0.00081830,0.00127095,-0.00129823,0.00000812,0.00013218,0.000063
 74,0.00001271,0.00004854,-0.00006028,0.00003762,0.00001462,0.00000957,
 0.00000664,-0.00000557,-0.00000275,0.00001996,0.00001182,-0.00001861,-
 0.00003341,-0.00000417,0.00012401,-0.00005237,-0.00004551,-0.00000664,
 -0.00003227,0.00000916,0.00000234,0.00000586,0.00000563,0.00002619,0.0
 0001755,-0.00004083,0.00000462,0.00001094,-0.00000081,-0.00010005,0.00
 005696,-0.00004277,0.00002232,-0.00000528,0.00001126,0.00000187,-0.000
 04222,-0.00001782,-0.00005445,0.00002802,-0.00003890,-0.00003091,0.000
 00244,0.00001151,-0.00004403,0.00002389,0.00000322,-0.00004057,0.00002
 824,0.00002249,-0.00010510,-0.00012916,-0.00020775,0.00000952,-0.00001
 393,0.00000238,-0.00003405,-0.00020520,0.00008398,0.00000970,-0.000006
 72,-0.00002290,0.00021351,-0.00028102,-0.00019542,0.00000473,0.0000067
 5,0.00000977,-0.00000258,0.00001143,0.00000017,0.00000748,0.00003365,0
 .00000963,-0.00395263,0.00210921,-0.00322339,-0.00007364,0.00045377,-0
 .00073499,-0.01781157,-0.01153864,0.01815520,0.00064382,0.00091045,-0.
 00155774,0.00000926,-0.00007886,0.00011418,-0.21844187,-0.07510542,0.1
 1893830,0.00087357,0.00002374,-0.00014814,0.00869452,0.00350372,-0.005
 68441,0.00033131,0.00018661,-0.00032522,0.22956867,0.00003574,-0.00000
 506,0.00010846,0.00000664,-0.00000333,0.00000055,0.00035611,0.00049143
 ,-0.00002057,0.00006949,-0.00023362,-0.00012954,-0.00013641,0.00004110
 ,-0.00008159,-0.00000817,-0.00001606,0.00000226,0.00000680,0.00000016,
 -0.00000250,-0.00002125,0.00000516,-0.00000553,0.00005346,0.00000516,-
 0.00000553,0.00000220,0.00000818,0.00000216,0.00000133,-0.00000458,-0.
 00002197,0.00000459,0.00000051,0.00000361,-0.00001141,-0.00000323,0.00
 000859,-0.00001266,0.00000258,0.00000973,-0.00002687,0.00001535,-0.000
 03502,0.00000609,0.00000810,0.00001906,-0.00000276,0.00000074,0.000003
 51,-0.00001076,0.00000557,0.00000923,0.00010007,-0.00008406,0.00004107
 ,0.00006192,-0.00000332,-0.00003203,-0.00013615,0.00008976,0.00004055,
 0.00005773,0.00004516,0.00019829,-0.00001485,0.00001106,-0.00000253,0.
 00004807,-0.00000546,-0.00017150,-0.00000956,-0.00000317,0.00000926,-0
 .00020505,0.00009693,0.00003364,-0.00000117,0.00000692,-0.00002273,0.0
 0000774,-0.00000029,0.00002189,-0.00000566,-0.00005357,-0.00002537,0.0
 0156582,0.00507730,0.00322203,0.00054073,-0.00057216,0.00006204,0.0055
 7084,0.00518623,-0.00383786,0.00152181,0.00364920,0.00520131,-0.000092
 71,-0.00076839,-0.00052926,-0.07607496,-0.07927229,0.06796740,-0.00019
 618,-0.00255777,-0.00229177,-0.01342003,-0.00226115,0.00793976,-0.0006
 6932,-0.00003802,0.00052487,0.08100289,0.07361097,0.00005132,-0.000047
 74,0.00007849,0.,0.00000042,-0.00000032,-0.00051814,0.00012481,0.00043
 920,-0.00010528,-0.00014039,-0.00011665,-0.00013233,0.00003153,-0.0000
 8090,-0.00000186,-0.00001127,0.00000043,0.00000322,0.00000093,-0.00000
 046,-0.00001589,0.00000023,-0.00000455,0.00004802,0.00001014,-0.000004
 28,-0.00001277,0.00000442,0.00000382,0.00000505,0.00001096,-0.00002106
 ,0.00000295,0.00000014,0.00000258,-0.00002245,-0.00001289,0.00001508,-
 0.00001283,-0.00000270,0.00000944,0.00002501,-0.00003746,0.00004291,0.
 00001182,-0.00000512,-0.00000723,0.00000913,0.00002469,0.00001480,0.00
 000218,0.00000464,0.00000111,0.00002321,-0.00003028,-0.00004820,-0.000
 03902,-0.00005820,0.00000278,0.00004253,0.00002153,-0.00002241,0.00022
 888,0.00000977,0.00023447,-0.00001752,0.00001108,-0.00000095,0.0000090
 7,0.00021245,-0.00015132,-0.00001960,0.00000529,0.00002987,-0.00029973
 ,0.00036655,0.00012740,0.00000084,0.00000690,-0.00001937,0.00000214,-0
 .00000862,0.00000856,-0.00003717,-0.00008231,-0.00003260,-0.00163386,0
 .00339929,0.00232078,-0.00081278,-0.00002254,-0.00042916,-0.00836487,-
 0.00321134,0.00825272,-0.00238900,0.00541520,-0.00124095,0.00010201,-0
 .00056887,-0.00026228,0.11869718,0.06656113,-0.14079485,0.00016005,-0.
 00228522,-0.00071722,0.02105986,0.00809161,-0.01017514,0.00108196,0.00
 046648,-0.00059640,-0.12685625,-0.07601871,0.14366595,0.00008088,0.000
 01476,0.00003482,0.00001625,-0.00001125,0.00000432,0.00043040,-0.00009
 803,0.00008228,-0.00041177,0.00007792,-0.00006734,-0.00006011,0.000032
 97,-0.00001422,-0.00004013,0.00001272,0.00000478,0.00001025,0.00000386
 ,-0.00000390,-0.00001378,0.00001213,0.00000395,0.00002662,-0.00001746,
 -0.00000659,0.00006969,-0.00002081,-0.00002230,-0.00001504,-0.00002324
 ,-0.00000826,0.00000551,0.00000406,0.00000366,0.00001929,0.00000600,-0
 .00001782,-0.00000712,0.00001090,0.00000544,-0.00009103,0.00003712,-0.
 00004615,0.00001729,0.00000483,0.00001640,0.00000044,-0.00002671,-0.00
 000810,-0.00003496,0.00001305,-0.00001633,-0.00002435,-0.00002067,0.00
 000857,0.00004071,0.00002124,0.00002402,0.00001160,0.00004353,-0.00000
 907,-0.00002783,0.00001397,0.00001266,-0.00000166,-0.00000546,-0.00000
 134,-0.00004223,-0.00003807,-0.00002556,-0.00000298,-0.00001401,-0.000
 01350,-0.00000332,0.00000479,0.00000254,0.00000266,0.00000319,-0.00000
 323,0.00003019,0.00000305,0.00003332,0.00001677,0.00000335,-0.00000373
 ,0.00033024,-0.00026839,0.00037349,-0.00146628,-0.00203194,0.00361889,
 0.00164283,0.00052783,-0.00064506,-0.01685254,0.00590437,-0.00859922,-
 0.00083944,0.00030705,-0.00046065,-0.00161843,-0.00038303,0.00073727,-
 0.00021504,-0.00003824,0.00007397,-0.31129988,0.05028512,-0.06848089,0
 .00084065,-0.00019903,0.00014185,0.00073240,0.00003586,-0.00027505,0.3
 2874323,-0.00002639,0.00000176,0.00000814,-0.00000499,0.00000292,-0.00
 000119,-0.00015529,-0.00098953,-0.00063189,0.00008417,0.00023967,0.000
 02462,0.00000368,-0.00000489,-0.00000867,0.00000507,-0.00000243,-0.000
 00133,-0.00000094,-0.00000079,0.00000041,0.00000399,-0.00000143,-0.000
 00149,-0.00000524,0.00000376,0.00000165,-0.00000584,0.00000074,0.00000
 494,0.00000409,0.00001111,-0.00000038,-0.00000096,-0.00000044,-0.00000
 135,-0.00000037,-0.00001192,0.00000430,0.00000155,-0.00000147,-0.00000
 201,0.00002157,0.00013721,0.00014153,0.00008036,-0.00003057,-0.0000475
 9,-0.00003940,-0.00000285,-0.00004118,0.00001894,-0.00001956,-0.000007
 63,0.00000227,0.00000599,-0.00001331,-0.00003805,-0.00001645,-0.000013
 67,-0.00001121,0.00003168,0.00001513,0.00001367,-0.00001863,-0.0000187
 3,-0.00000031,0.00000607,0.00000060,0.00001579,0.00007515,0.00002820,-
 0.00000227,0.00000490,0.00000472,-0.00000537,0.00001908,0.00002027,-0.
 00000119,0.00000187,0.00000005,-0.00002484,-0.00000841,-0.00003435,-0.
 00000411,0.00000360,0.00000113,-0.00038153,-0.00072293,0.00032933,-0.0
 0156428,0.00458213,0.00422353,0.00027490,0.00357979,0.00588241,-0.0105
 1759,0.00594039,-0.00288648,-0.00051201,0.00004346,-0.00020907,0.01620
 631,0.00136853,0.00348889,0.00079953,-0.00017428,0.00008166,0.05002632
 ,-0.05473478,0.02355627,0.00012501,-0.00252213,-0.00211024,-0.00019770
 ,-0.00247200,-0.00223656,-0.05418736,0.04567568,0.00003241,0.00001164,
 0.00001320,0.00000692,-0.00000403,0.00000100,0.00023508,-0.00064035,-0
 .00039557,-0.00011475,0.00002046,0.00024152,-0.00003329,0.00001556,-0.
 00000663,-0.00001316,-0.00000031,0.00000082,0.00000404,0.00000067,-0.0
 0000150,-0.00000695,0.00000677,-0.00000100,0.00001499,-0.00000437,-0.0
 0000379,0.00001907,-0.00000446,-0.00000276,0.00000053,-0.00000135,-0.0
 0000588,0.00000153,0.00000059,0.00000163,-0.00000004,-0.00000291,-0.00
 000040,-0.00000426,0.00000028,0.00000219,-0.00004034,0.00007709,0.0000
 3158,0.00005357,0.00001445,0.00003776,-0.00000926,-0.00004186,-0.00003
 750,-0.00002527,-0.00001569,0.00002982,0.00000426,0.00000249,0.0000020
 7,0.00000011,-0.00000588,0.00002077,-0.00000460,0.00004506,-0.00000759
 ,-0.00000064,-0.00000986,0.00000371,0.00000053,-0.00000407,0.00000036,
 -0.00000415,0.00002029,-0.00000939,-0.00000180,-0.00000286,0.00000158,
 -0.00000741,0.00000390,0.00002147,0.00000091,0.00000349,-0.00000295,-0
 .00000050,-0.00000842,-0.00000430,0.00000665,0.00000285,-0.00000161,0.
 00032928,0.00023398,-0.00096904,0.00287881,0.00435420,0.00007118,0.000
 06648,0.00589232,-0.00181195,0.01805711,-0.00362979,0.00882504,0.00084
 698,-0.00025573,0.00024090,-0.02582774,0.00429699,-0.00182203,-0.00131
 657,0.00009781,-0.00032827,-0.06858939,0.02334556,-0.07302659,-0.00040
 779,-0.00206855,-0.00047892,0.00030253,-0.00219527,-0.00052405,0.07354
 608,-0.02955065,0.06989516\\-0.00003041,0.00001402,-0.00003077,0.00001
 655,0.00000703,-0.00000132,0.00000337,-0.00000539,0.00000566,-0.000013
 63,0.00002009,0.00002230,0.00002855,-0.00000447,0.00004821,0.00001307,
 0.00000218,0.00000621,0.00000296,0.00000046,0.00000373,-0.00000659,0.0
 0000690,0.00001864,-0.00001530,-0.00000920,-0.00002574,-0.00002142,-0.
 00002428,-0.00002798,-0.00000231,0.00000690,0.00000572,-0.00000315,-0.
 00000982,0.00000105,0.00000514,-0.00000383,-0.00000139,-0.00000001,-0.
 00000422,0.00000233,0.00000931,0.00001352,-0.00001319,-0.00000063,0.00
 000642,-0.00000206,-0.00000331,0.00000212,-0.00000079,-0.00000444,0.00
 000633,-0.00000284,0.00001588,-0.00000687,0.00000227,-0.00000805,0.000
 00283,0.00000451,0.00000327,-0.00000043,-0.00000089,0.00000971,0.00000
 387,0.00000711,0.00000467,0.00000447,0.00000505,-0.00000049,-0.0000033
 8,0.00001248,0.00000145,-0.00000358,0.00000402,-0.00000255,0.00000401,
 0.00000040,0.00000020,0.00000242,0.00000711,-0.00000019,-0.00000536,0.
 00000116,0.00000017,-0.00000060,0.00000576,0.00000271,-0.00000845,-0.0
 0001820,-0.00000429,0.00000104,-0.00000336,0.00000098,0.00000911,0.000
 00099,-0.00000021,-0.00000467,-0.00000392,-0.00000254,-0.00000560,-0.0
 0000651,0.00000374,-0.00000510,-0.00000400,0.00000102,0.00000190,-0.00
 000232,0.00000098,-0.00000511,-0.00000915,-0.00000219,-0.00000542,-0.0
 0000598,-0.00000189,0.00000080,-0.00000152,-0.00000011,-0.00000064,-0.
 00000280\\\@


 PENOTUS DIED A HUNDRED YEARS OLD WANTING BUT TWO...
 AND HE USED TO SAY BEFORE HE DIED, HAVING SPENT HIS
 WHOLE LIFE IN VAINLY SEARCHING AFTER THE PHILOSOPHER'S
 STONE, THAT IF HE HAD A MORTAL ENEMY HE DID NOT DARE
 TO ENCOUNTER OPENLY, HE WOULD ADVISE HIM ABOVE ALL
 THINGS TO GIVE HIMSELF UP TO THE STUDY AND PRACTICE
 OF ALCHEMY.  --  NICOLAS LEMERY, M.D.
 "A COURSE OF CHYMISTRY", WALTER KETTILBY, LONDON, 1686
 Job cpu time:       0 days 11 hours  1 minutes 16.8 seconds.
 Elapsed time:       0 days  0 hours 17 minutes  1.6 seconds.
 File lengths (MBytes):  RWF=   1391 Int=      0 D2E=      0 Chk=     25 Scr=      2
 Normal termination of Gaussian 16 at Fri Jun 14 13:14:15 2019.
