 Entering Gaussian System, Link 0=g16
 Initial command:
 /project/6004141/group/g16/g16/l1.exe "/scratch/rzk/Gau-152367.inp" -scrdir="/scratch/rzk/"
 Entering Link 1 = /project/6004141/group/g16/g16/l1.exe PID=    152368.
  
 Copyright (c) 1988,1990,1992,1993,1995,1998,2003,2009,2016,
            Gaussian, Inc.  All Rights Reserved.
  
 This is part of the Gaussian(R) 16 program.  It is based on
 the Gaussian(R) 09 system (copyright 2009, Gaussian, Inc.),
 the Gaussian(R) 03 system (copyright 2003, Gaussian, Inc.),
 the Gaussian(R) 98 system (copyright 1998, Gaussian, Inc.),
 the Gaussian(R) 94 system (copyright 1995, Gaussian, Inc.),
 the Gaussian 92(TM) system (copyright 1992, Gaussian, Inc.),
 the Gaussian 90(TM) system (copyright 1990, Gaussian, Inc.),
 the Gaussian 88(TM) system (copyright 1988, Gaussian, Inc.),
 the Gaussian 86(TM) system (copyright 1986, Carnegie Mellon
 University), and the Gaussian 82(TM) system (copyright 1983,
 Carnegie Mellon University). Gaussian is a federally registered
 trademark of Gaussian, Inc.
  
 This software contains proprietary and confidential information,
 including trade secrets, belonging to Gaussian, Inc.
  
 This software is provided under written license and may be
 used, copied, transmitted, or stored only in accord with that
 written license.
  
 The following legend is applicable only to US Government
 contracts under FAR:
  
                    RESTRICTED RIGHTS LEGEND
  
 Use, reproduction and disclosure by the US Government is
 subject to restrictions as set forth in subparagraphs (a)
 and (c) of the Commercial Computer Software - Restricted
 Rights clause in FAR 52.227-19.
  
 Gaussian, Inc.
 340 Quinnipiac St., Bldg. 40, Wallingford CT 06492
  
  
 ---------------------------------------------------------------
 Warning -- This program may not be used in any manner that
 competes with the business of Gaussian, Inc. or will provide
 assistance to any competitor of Gaussian, Inc.  The licensee
 of this program is prohibited from giving any competitor of
 Gaussian, Inc. access to this program.  By using this program,
 the user acknowledges that Gaussian, Inc. is engaged in the
 business of creating and licensing software in the field of
 computational chemistry and represents and warrants to the
 licensee that it is not a competitor of Gaussian, Inc. and that
 it will not use this program in any manner prohibited above.
 ---------------------------------------------------------------
  

 Cite this work as:
 Gaussian 16, Revision A.03,
 M. J. Frisch, G. W. Trucks, H. B. Schlegel, G. E. Scuseria, 
 M. A. Robb, J. R. Cheeseman, G. Scalmani, V. Barone, 
 G. A. Petersson, H. Nakatsuji, X. Li, M. Caricato, A. V. Marenich, 
 J. Bloino, B. G. Janesko, R. Gomperts, B. Mennucci, H. P. Hratchian, 
 J. V. Ortiz, A. F. Izmaylov, J. L. Sonnenberg, D. Williams-Young, 
 F. Ding, F. Lipparini, F. Egidi, J. Goings, B. Peng, A. Petrone, 
 T. Henderson, D. Ranasinghe, V. G. Zakrzewski, J. Gao, N. Rega, 
 G. Zheng, W. Liang, M. Hada, M. Ehara, K. Toyota, R. Fukuda, 
 J. Hasegawa, M. Ishida, T. Nakajima, Y. Honda, O. Kitao, H. Nakai, 
 T. Vreven, K. Throssell, J. A. Montgomery, Jr., J. E. Peralta, 
 F. Ogliaro, M. J. Bearpark, J. J. Heyd, E. N. Brothers, K. N. Kudin, 
 V. N. Staroverov, T. A. Keith, R. Kobayashi, J. Normand, 
 K. Raghavachari, A. P. Rendell, J. C. Burant, S. S. Iyengar, 
 J. Tomasi, M. Cossi, J. M. Millam, M. Klene, C. Adamo, R. Cammi, 
 J. W. Ochterski, R. L. Martin, K. Morokuma, O. Farkas, 
 J. B. Foresman, and D. J. Fox, Gaussian, Inc., Wallingford CT, 2016.
 
 ******************************************
 Gaussian 16:  ES64L-G16RevA.03 25-Dec-2016
                 2-Jun-2019 
 ******************************************
 %NProcShared=40
 Will use up to   40 processors via shared memory.
 %chk=AABH_11.chk
 ----------------------------------------------------------------------
 #p opt=modredundant ub3lyp/6-31g(d,p) scrf=(iefpcm,solvent=acetonitril
 e) guess=(mix,always) empiricaldispersion=gd3
 ----------------------------------------------------------------------
 1/18=120,19=15,26=3,38=1/1,3;
 2/9=110,12=2,17=6,18=5,40=1/2;
 3/5=1,6=6,7=101,11=2,25=1,30=1,70=2201,71=1,72=2,74=-5,116=2,124=31/1,2,3;
 4/13=-1/1;
 5/5=2,38=5,53=2/2;
 6/7=2,8=2,9=2,10=2,28=1/1;
 7//1,2,3,16;
 1/18=20,19=15,26=3/3(2);
 2/9=110/2;
 99//99;
 2/9=110/2;
 3/5=1,6=6,7=101,11=2,25=1,30=1,70=2205,71=1,72=2,74=-5,116=2,124=31/1,2,3;
 4/13=-1/1;
 5/5=2,38=5,53=2/2;
 7//1,2,3,16;
 1/18=20,19=15,26=3/3(-5);
 2/9=110/2;
 6/7=2,8=2,9=2,10=2,19=2,28=1/1;
 99/9=1/99;
 Leave Link    1 at Sun Jun  2 23:24:03 2019, MaxMem=           0 cpu:               8.7 elap:               0.2
 (Enter /project/6004141/group/g16/g16/l101.exe)
 -------------------
 Title Card Required
 -------------------
 Symbolic Z-matrix:
 Charge =  0 Multiplicity = 1
 C                     1.06434  -1.41763  -0.65518 
 H                     4.13465  -0.35806   1.30058 
 C                     1.06477   1.41046   0.67728 
 O                     1.93105   1.86872  -0.1838 
 O                     1.92153  -1.87368   0.24446 
 N                     4.09504   0.60763  -0.34443 
 H                     4.11958   0.37891  -1.34533 
 N                     4.1533   -0.58789   0.29849 
 H                     2.84161  -1.49888   0.13058 
 H                     2.85207   1.475    -0.10817 
 C                     1.58849  -0.81971  -1.9247 
 H                     0.96088  -1.08914  -2.77648 
 H                     1.62845   0.27554  -1.87214 
 H                     2.60011  -1.18281  -2.11653 
 C                     1.55227   0.78106   1.94455 
 H                     0.97504   1.13543   2.80164 
 H                     1.45605  -0.31074   1.90336 
 H                     2.60169   1.02651   2.11016 
 C                    -0.33005  -1.62315  -0.39023 
 C                    -0.74672  -2.24131   0.81856 
 C                    -1.33112  -1.19936  -1.30167 
 C                    -2.09399  -2.45364   1.07895 
 H                     0.00521  -2.56103   1.5306 
 C                    -2.67552  -1.41586  -1.02751 
 H                    -1.05497  -0.68615  -2.21501 
 C                    -3.06786  -2.0517    0.15536 
 H                    -2.39141  -2.93475   2.00593 
 H                    -3.42514  -1.07749  -1.73599 
 H                    -4.11984  -2.22175   0.36186 
 C                    -0.32501   1.62083   0.391 
 C                    -0.72128   2.24834  -0.8175 
 C                    -1.33383   1.19815   1.29247 
 C                    -2.06371   2.47007  -1.0903 
 H                     0.03976   2.56421  -1.52129 
 C                    -2.67322   1.42357   1.00617 
 H                    -1.06848   0.68388   2.20788 
 C                    -3.04699   2.06827  -0.17738 
 H                    -2.34939   2.95886  -2.01673 
 H                    -3.43232   1.08803   1.70527 
 H                    -4.09593   2.24554  -0.39315 
 
 Add virtual bond connecting atoms H10        and N6         Dist= 2.90D+00.
 Add virtual bond connecting atoms H9         and N8         Dist= 3.03D+00.
 The following ModRedundant input section has been read:
 B       4      10 F                                                           
 B       1       3 S  10 -0.200                                                
 B       5       9 F                                                           
 
 ITRead=  0  0  0  0  0  0  0  0  0  0  0  0  0  0  0  0  0  0  0  0
 ITRead=  0  0  0  0  0  0  0  0  0  0  0  0  0  0  0  0  0  0  0  0
 MicOpt= -1 -1 -1 -1 -1 -1 -1 -1 -1 -1 -1 -1 -1 -1 -1 -1 -1 -1 -1 -1
 MicOpt= -1 -1 -1 -1 -1 -1 -1 -1 -1 -1 -1 -1 -1 -1 -1 -1 -1 -1 -1 -1
 NAtoms=     40 NQM=       40 NQMF=       0 NMMI=      0 NMMIF=      0
                NMic=       0 NMicF=      0.
                    Isotopes and Nuclear Properties:
 (Nuclear quadrupole moments (NQMom) in fm**2, nuclear magnetic moments (NMagM)
  in nuclear magnetons)

  Atom         1           2           3           4           5           6           7           8           9          10
 IAtWgt=          12           1          12          16          16          14           1          14           1           1
 AtmWgt=  12.0000000   1.0078250  12.0000000  15.9949146  15.9949146  14.0030740   1.0078250  14.0030740   1.0078250   1.0078250
 NucSpn=           0           1           0           0           0           2           1           2           1           1
 AtZEff=  -0.0000000  -0.0000000  -0.0000000  -0.0000000  -0.0000000  -0.0000000  -0.0000000  -0.0000000  -0.0000000  -0.0000000
 NQMom=    0.0000000   0.0000000   0.0000000   0.0000000   0.0000000   2.0440000   0.0000000   2.0440000   0.0000000   0.0000000
 NMagM=    0.0000000   2.7928460   0.0000000   0.0000000   0.0000000   0.4037610   2.7928460   0.4037610   2.7928460   2.7928460
 AtZNuc=   6.0000000   1.0000000   6.0000000   8.0000000   8.0000000   7.0000000   1.0000000   7.0000000   1.0000000   1.0000000

  Atom        11          12          13          14          15          16          17          18          19          20
 IAtWgt=          12           1           1           1          12           1           1           1          12          12
 AtmWgt=  12.0000000   1.0078250   1.0078250   1.0078250  12.0000000   1.0078250   1.0078250   1.0078250  12.0000000  12.0000000
 NucSpn=           0           1           1           1           0           1           1           1           0           0
 AtZEff=  -0.0000000  -0.0000000  -0.0000000  -0.0000000  -0.0000000  -0.0000000  -0.0000000  -0.0000000  -0.0000000  -0.0000000
 NQMom=    0.0000000   0.0000000   0.0000000   0.0000000   0.0000000   0.0000000   0.0000000   0.0000000   0.0000000   0.0000000
 NMagM=    0.0000000   2.7928460   2.7928460   2.7928460   0.0000000   2.7928460   2.7928460   2.7928460   0.0000000   0.0000000
 AtZNuc=   6.0000000   1.0000000   1.0000000   1.0000000   6.0000000   1.0000000   1.0000000   1.0000000   6.0000000   6.0000000

  Atom        21          22          23          24          25          26          27          28          29          30
 IAtWgt=          12          12           1          12           1          12           1           1           1          12
 AtmWgt=  12.0000000  12.0000000   1.0078250  12.0000000   1.0078250  12.0000000   1.0078250   1.0078250   1.0078250  12.0000000
 NucSpn=           0           0           1           0           1           0           1           1           1           0
 AtZEff=  -0.0000000  -0.0000000  -0.0000000  -0.0000000  -0.0000000  -0.0000000  -0.0000000  -0.0000000  -0.0000000  -0.0000000
 NQMom=    0.0000000   0.0000000   0.0000000   0.0000000   0.0000000   0.0000000   0.0000000   0.0000000   0.0000000   0.0000000
 NMagM=    0.0000000   0.0000000   2.7928460   0.0000000   2.7928460   0.0000000   2.7928460   2.7928460   2.7928460   0.0000000
 AtZNuc=   6.0000000   6.0000000   1.0000000   6.0000000   1.0000000   6.0000000   1.0000000   1.0000000   1.0000000   6.0000000

  Atom        31          32          33          34          35          36          37          38          39          40
 IAtWgt=          12          12          12           1          12           1          12           1           1           1
 AtmWgt=  12.0000000  12.0000000  12.0000000   1.0078250  12.0000000   1.0078250  12.0000000   1.0078250   1.0078250   1.0078250
 NucSpn=           0           0           0           1           0           1           0           1           1           1
 AtZEff=  -0.0000000  -0.0000000  -0.0000000  -0.0000000  -0.0000000  -0.0000000  -0.0000000  -0.0000000  -0.0000000  -0.0000000
 NQMom=    0.0000000   0.0000000   0.0000000   0.0000000   0.0000000   0.0000000   0.0000000   0.0000000   0.0000000   0.0000000
 NMagM=    0.0000000   0.0000000   0.0000000   2.7928460   0.0000000   2.7928460   0.0000000   2.7928460   2.7928460   2.7928460
 AtZNuc=   6.0000000   6.0000000   6.0000000   1.0000000   6.0000000   1.0000000   6.0000000   1.0000000   1.0000000   1.0000000
 Leave Link  101 at Sun Jun  2 23:24:04 2019, MaxMem=   104857600 cpu:               8.4 elap:               0.2
 (Enter /project/6004141/group/g16/g16/l103.exe)

 GradGradGradGradGradGradGradGradGradGradGradGradGradGradGradGradGradGrad
 Berny optimization.
 Initialization pass.
                           ----------------------------
                           !    Initial Parameters    !
                           ! (Angstroms and Degrees)  !
 --------------------------                            --------------------------
 ! Name  Definition              Value          Derivative Info.                !
 --------------------------------------------------------------------------------
 ! R1    R(1,3)                  3.1263         Scan                            !
 ! R2    R(1,5)                  1.3237         estimate D2E/DX2                !
 ! R3    R(1,11)                 1.498          estimate D2E/DX2                !
 ! R4    R(1,19)                 1.4341         estimate D2E/DX2                !
 ! R5    R(2,8)                  1.0283         estimate D2E/DX2                !
 ! R6    R(3,4)                  1.3046         estimate D2E/DX2                !
 ! R7    R(3,15)                 1.4966         estimate D2E/DX2                !
 ! R8    R(3,30)                 1.4345         estimate D2E/DX2                !
 ! R9    R(4,10)                 1.0045         Frozen                          !
 ! R10   R(5,9)                  1.0            Frozen                          !
 ! R11   R(6,7)                  1.027          estimate D2E/DX2                !
 ! R12   R(6,8)                  1.3587         estimate D2E/DX2                !
 ! R13   R(6,10)                 1.534          estimate D2E/DX2                !
 ! R14   R(8,9)                  1.6058         estimate D2E/DX2                !
 ! R15   R(11,12)                1.0918         estimate D2E/DX2                !
 ! R16   R(11,13)                1.0972         estimate D2E/DX2                !
 ! R17   R(11,14)                1.0918         estimate D2E/DX2                !
 ! R18   R(15,16)                1.0924         estimate D2E/DX2                !
 ! R19   R(15,17)                1.0968         estimate D2E/DX2                !
 ! R20   R(15,18)                1.0904         estimate D2E/DX2                !
 ! R21   R(19,20)                1.4202         estimate D2E/DX2                !
 ! R22   R(19,21)                1.4186         estimate D2E/DX2                !
 ! R23   R(20,22)                1.3885         estimate D2E/DX2                !
 ! R24   R(20,23)                1.0838         estimate D2E/DX2                !
 ! R25   R(21,24)                1.389          estimate D2E/DX2                !
 ! R26   R(21,25)                1.0834         estimate D2E/DX2                !
 ! R27   R(22,26)                1.4011         estimate D2E/DX2                !
 ! R28   R(22,27)                1.0859         estimate D2E/DX2                !
 ! R29   R(24,26)                1.3991         estimate D2E/DX2                !
 ! R30   R(24,28)                1.0855         estimate D2E/DX2                !
 ! R31   R(26,29)                1.0855         estimate D2E/DX2                !
 ! R32   R(30,31)                1.4182         estimate D2E/DX2                !
 ! R33   R(30,32)                1.4174         estimate D2E/DX2                !
 ! R34   R(31,33)                1.3877         estimate D2E/DX2                !
 ! R35   R(31,34)                1.0836         estimate D2E/DX2                !
 ! R36   R(32,35)                1.3881         estimate D2E/DX2                !
 ! R37   R(32,36)                1.083          estimate D2E/DX2                !
 ! R38   R(33,37)                1.4006         estimate D2E/DX2                !
 ! R39   R(33,38)                1.0857         estimate D2E/DX2                !
 ! R40   R(35,37)                1.3986         estimate D2E/DX2                !
 ! R41   R(35,39)                1.0852         estimate D2E/DX2                !
 ! R42   R(37,40)                1.0855         estimate D2E/DX2                !
 ! A1    A(5,1,11)             119.1392         estimate D2E/DX2                !
 ! A2    A(5,1,19)             117.0452         estimate D2E/DX2                !
 ! A3    A(11,1,19)            123.6404         estimate D2E/DX2                !
 ! A4    A(4,3,15)             119.363          estimate D2E/DX2                !
 ! A5    A(4,3,30)             117.3943         estimate D2E/DX2                !
 ! A6    A(15,3,30)            123.1104         estimate D2E/DX2                !
 ! A7    A(3,4,10)             114.9275         estimate D2E/DX2                !
 ! A8    A(1,5,9)              112.911          estimate D2E/DX2                !
 ! A9    A(7,6,8)              105.319          estimate D2E/DX2                !
 ! A10   A(7,6,10)             107.1813         estimate D2E/DX2                !
 ! A11   A(8,6,10)             117.3482         estimate D2E/DX2                !
 ! A12   A(2,8,6)              105.2898         estimate D2E/DX2                !
 ! A13   A(2,8,9)              102.3507         estimate D2E/DX2                !
 ! A14   A(6,8,9)              114.4991         estimate D2E/DX2                !
 ! A15   A(5,9,8)              162.2281         estimate D2E/DX2                !
 ! A16   A(4,10,6)             162.3596         estimate D2E/DX2                !
 ! A17   A(1,11,12)            111.1949         estimate D2E/DX2                !
 ! A18   A(1,11,13)            111.7505         estimate D2E/DX2                !
 ! A19   A(1,11,14)            109.8993         estimate D2E/DX2                !
 ! A20   A(12,11,13)           107.7367         estimate D2E/DX2                !
 ! A21   A(12,11,14)           108.2692         estimate D2E/DX2                !
 ! A22   A(13,11,14)           107.8572         estimate D2E/DX2                !
 ! A23   A(3,15,16)            110.8435         estimate D2E/DX2                !
 ! A24   A(3,15,17)            110.9942         estimate D2E/DX2                !
 ! A25   A(3,15,18)            110.331          estimate D2E/DX2                !
 ! A26   A(16,15,17)           107.8192         estimate D2E/DX2                !
 ! A27   A(16,15,18)           108.4424         estimate D2E/DX2                !
 ! A28   A(17,15,18)           108.313          estimate D2E/DX2                !
 ! A29   A(1,19,20)            120.3239         estimate D2E/DX2                !
 ! A30   A(1,19,21)            121.6411         estimate D2E/DX2                !
 ! A31   A(20,19,21)           118.0245         estimate D2E/DX2                !
 ! A32   A(19,20,22)           120.7204         estimate D2E/DX2                !
 ! A33   A(19,20,23)           118.9497         estimate D2E/DX2                !
 ! A34   A(22,20,23)           120.3224         estimate D2E/DX2                !
 ! A35   A(19,21,24)           120.6377         estimate D2E/DX2                !
 ! A36   A(19,21,25)           120.2164         estimate D2E/DX2                !
 ! A37   A(24,21,25)           119.1377         estimate D2E/DX2                !
 ! A38   A(20,22,26)           120.4609         estimate D2E/DX2                !
 ! A39   A(20,22,27)           119.5761         estimate D2E/DX2                !
 ! A40   A(26,22,27)           119.963          estimate D2E/DX2                !
 ! A41   A(21,24,26)           120.6059         estimate D2E/DX2                !
 ! A42   A(21,24,28)           119.4034         estimate D2E/DX2                !
 ! A43   A(26,24,28)           119.9876         estimate D2E/DX2                !
 ! A44   A(22,26,24)           119.524          estimate D2E/DX2                !
 ! A45   A(22,26,29)           120.2189         estimate D2E/DX2                !
 ! A46   A(24,26,29)           120.253          estimate D2E/DX2                !
 ! A47   A(3,30,31)            120.375          estimate D2E/DX2                !
 ! A48   A(3,30,32)            121.2591         estimate D2E/DX2                !
 ! A49   A(31,30,32)           118.3622         estimate D2E/DX2                !
 ! A50   A(30,31,33)           120.5653         estimate D2E/DX2                !
 ! A51   A(30,31,34)           119.0899         estimate D2E/DX2                !
 ! A52   A(33,31,34)           120.3406         estimate D2E/DX2                !
 ! A53   A(30,32,35)           120.475          estimate D2E/DX2                !
 ! A54   A(30,32,36)           120.3189         estimate D2E/DX2                !
 ! A55   A(35,32,36)           119.2017         estimate D2E/DX2                !
 ! A56   A(31,33,37)           120.3423         estimate D2E/DX2                !
 ! A57   A(31,33,38)           119.6185         estimate D2E/DX2                !
 ! A58   A(37,33,38)           120.0392         estimate D2E/DX2                !
 ! A59   A(32,35,37)           120.4825         estimate D2E/DX2                !
 ! A60   A(32,35,39)           119.4654         estimate D2E/DX2                !
 ! A61   A(37,35,39)           120.0503         estimate D2E/DX2                !
 ! A62   A(33,37,35)           119.7483         estimate D2E/DX2                !
 ! A63   A(33,37,40)           120.1316         estimate D2E/DX2                !
 ! A64   A(35,37,40)           120.1158         estimate D2E/DX2                !
 ! D1    D(11,1,5,9)            19.6631         estimate D2E/DX2                !
 ! D2    D(19,1,5,9)          -164.9704         estimate D2E/DX2                !
 ! D3    D(5,1,11,12)          141.9668         estimate D2E/DX2                !
 ! D4    D(5,1,11,13)          -97.6022         estimate D2E/DX2                !
 ! D5    D(5,1,11,14)           22.1028         estimate D2E/DX2                !
 ! D6    D(19,1,11,12)         -33.0755         estimate D2E/DX2                !
 ! D7    D(19,1,11,13)          87.3556         estimate D2E/DX2                !
 ! D8    D(19,1,11,14)        -152.9395         estimate D2E/DX2                !
 ! D9    D(5,1,19,20)            2.558          estimate D2E/DX2                !
 ! D10   D(5,1,19,21)         -178.6486         estimate D2E/DX2                !
 ! D11   D(11,1,19,20)         177.6963         estimate D2E/DX2                !
 ! D12   D(11,1,19,21)          -3.5103         estimate D2E/DX2                !
 ! D13   D(15,3,4,10)           21.7781         estimate D2E/DX2                !
 ! D14   D(30,3,4,10)         -162.2725         estimate D2E/DX2                !
 ! D15   D(4,3,15,16)          135.4375         estimate D2E/DX2                !
 ! D16   D(4,3,15,17)         -104.7719         estimate D2E/DX2                !
 ! D17   D(4,3,15,18)           15.3008         estimate D2E/DX2                !
 ! D18   D(30,3,15,16)         -40.2685         estimate D2E/DX2                !
 ! D19   D(30,3,15,17)          79.5221         estimate D2E/DX2                !
 ! D20   D(30,3,15,18)        -160.4053         estimate D2E/DX2                !
 ! D21   D(4,3,30,31)            2.9078         estimate D2E/DX2                !
 ! D22   D(4,3,30,32)         -177.7978         estimate D2E/DX2                !
 ! D23   D(15,3,30,31)         178.693          estimate D2E/DX2                !
 ! D24   D(15,3,30,32)          -2.0126         estimate D2E/DX2                !
 ! D25   D(3,4,10,6)            98.2516         estimate D2E/DX2                !
 ! D26   D(1,5,9,8)             96.9163         estimate D2E/DX2                !
 ! D27   D(7,6,8,2)            179.6551         estimate D2E/DX2                !
 ! D28   D(7,6,8,9)            -68.7364         estimate D2E/DX2                !
 ! D29   D(10,6,8,2)           -61.2345         estimate D2E/DX2                !
 ! D30   D(10,6,8,9)            50.374          estimate D2E/DX2                !
 ! D31   D(7,6,10,4)            31.942          estimate D2E/DX2                !
 ! D32   D(8,6,10,4)           -86.1732         estimate D2E/DX2                !
 ! D33   D(2,8,9,5)             33.8663         estimate D2E/DX2                !
 ! D34   D(6,8,9,5)            -79.4895         estimate D2E/DX2                !
 ! D35   D(1,19,20,22)        -179.5021         estimate D2E/DX2                !
 ! D36   D(1,19,20,23)          -0.4977         estimate D2E/DX2                !
 ! D37   D(21,19,20,22)          1.6615         estimate D2E/DX2                !
 ! D38   D(21,19,20,23)       -179.334          estimate D2E/DX2                !
 ! D39   D(1,19,21,24)         179.6327         estimate D2E/DX2                !
 ! D40   D(1,19,21,25)          -1.4133         estimate D2E/DX2                !
 ! D41   D(20,19,21,24)         -1.5472         estimate D2E/DX2                !
 ! D42   D(20,19,21,25)        177.4069         estimate D2E/DX2                !
 ! D43   D(19,20,22,26)         -0.4673         estimate D2E/DX2                !
 ! D44   D(19,20,22,27)        179.5401         estimate D2E/DX2                !
 ! D45   D(23,20,22,26)       -179.4581         estimate D2E/DX2                !
 ! D46   D(23,20,22,27)          0.5493         estimate D2E/DX2                !
 ! D47   D(19,21,24,26)          0.2392         estimate D2E/DX2                !
 ! D48   D(19,21,24,28)        179.6029         estimate D2E/DX2                !
 ! D49   D(25,21,24,26)       -178.7259         estimate D2E/DX2                !
 ! D50   D(25,21,24,28)          0.6377         estimate D2E/DX2                !
 ! D51   D(20,22,26,24)         -0.8812         estimate D2E/DX2                !
 ! D52   D(20,22,26,29)        179.8539         estimate D2E/DX2                !
 ! D53   D(27,22,26,24)        179.1114         estimate D2E/DX2                !
 ! D54   D(27,22,26,29)         -0.1535         estimate D2E/DX2                !
 ! D55   D(21,24,26,22)          0.996          estimate D2E/DX2                !
 ! D56   D(21,24,26,29)       -179.7393         estimate D2E/DX2                !
 ! D57   D(28,24,26,22)       -178.3639         estimate D2E/DX2                !
 ! D58   D(28,24,26,29)          0.9008         estimate D2E/DX2                !
 ! D59   D(3,30,31,33)        -179.1271         estimate D2E/DX2                !
 ! D60   D(3,30,31,34)           0.1261         estimate D2E/DX2                !
 ! D61   D(32,30,31,33)          1.5584         estimate D2E/DX2                !
 ! D62   D(32,30,31,34)       -179.1885         estimate D2E/DX2                !
 ! D63   D(3,30,32,35)         179.2656         estimate D2E/DX2                !
 ! D64   D(3,30,32,36)          -1.5019         estimate D2E/DX2                !
 ! D65   D(31,30,32,35)         -1.4262         estimate D2E/DX2                !
 ! D66   D(31,30,32,36)        177.8063         estimate D2E/DX2                !
 ! D67   D(30,31,33,37)         -0.412          estimate D2E/DX2                !
 ! D68   D(30,31,33,38)        179.5167         estimate D2E/DX2                !
 ! D69   D(34,31,33,37)       -179.6557         estimate D2E/DX2                !
 ! D70   D(34,31,33,38)          0.2729         estimate D2E/DX2                !
 ! D71   D(30,32,35,37)          0.1483         estimate D2E/DX2                !
 ! D72   D(30,32,35,39)        179.6537         estimate D2E/DX2                !
 ! D73   D(36,32,35,37)       -179.0927         estimate D2E/DX2                !
 ! D74   D(36,32,35,39)          0.4127         estimate D2E/DX2                !
 ! D75   D(31,33,37,35)         -0.8987         estimate D2E/DX2                !
 ! D76   D(31,33,37,40)        179.8538         estimate D2E/DX2                !
 ! D77   D(38,33,37,35)        179.1729         estimate D2E/DX2                !
 ! D78   D(38,33,37,40)         -0.0746         estimate D2E/DX2                !
 ! D79   D(32,35,37,33)          1.0314         estimate D2E/DX2                !
 ! D80   D(32,35,37,40)       -179.7209         estimate D2E/DX2                !
 ! D81   D(39,35,37,33)       -178.4711         estimate D2E/DX2                !
 ! D82   D(39,35,37,40)          0.7766         estimate D2E/DX2                !
 --------------------------------------------------------------------------------
 Trust Radius=3.00D-01 FncErr=1.00D-07 GrdErr=1.00D-06 EigMax=2.50D+02 EigMin=1.00D-04
 Number of optimizations in scan=  11
 Number of steps in this run=    198 maximum allowed number of steps=    240.
 GradGradGradGradGradGradGradGradGradGradGradGradGradGradGradGradGradGrad

 Leave Link  103 at Sun Jun  2 23:24:04 2019, MaxMem=   104857600 cpu:               4.6 elap:               0.2
 (Enter /project/6004141/group/g16/g16/l202.exe)
                          Input orientation:                          
 ---------------------------------------------------------------------
 Center     Atomic      Atomic             Coordinates (Angstroms)
 Number     Number       Type             X           Y           Z
 ---------------------------------------------------------------------
      1          6           0        1.064341   -1.417625   -0.655177
      2          1           0        4.134654   -0.358055    1.300576
      3          6           0        1.064772    1.410464    0.677275
      4          8           0        1.931045    1.868720   -0.183800
      5          8           0        1.921527   -1.873676    0.244462
      6          7           0        4.095037    0.607628   -0.344430
      7          1           0        4.119583    0.378912   -1.345332
      8          7           0        4.153296   -0.587885    0.298494
      9          1           0        2.841613   -1.498879    0.130581
     10          1           0        2.852068    1.475002   -0.108168
     11          6           0        1.588489   -0.819707   -1.924704
     12          1           0        0.960881   -1.089137   -2.776478
     13          1           0        1.628448    0.275544   -1.872135
     14          1           0        2.600114   -1.182811   -2.116535
     15          6           0        1.552270    0.781056    1.944545
     16          1           0        0.975039    1.135427    2.801641
     17          1           0        1.456052   -0.310744    1.903364
     18          1           0        2.601687    1.026506    2.110161
     19          6           0       -0.330048   -1.623154   -0.390226
     20          6           0       -0.746720   -2.241313    0.818563
     21          6           0       -1.331121   -1.199358   -1.301673
     22          6           0       -2.093986   -2.453637    1.078950
     23          1           0        0.005210   -2.561027    1.530600
     24          6           0       -2.675518   -1.415864   -1.027506
     25          1           0       -1.054975   -0.686150   -2.215011
     26          6           0       -3.067859   -2.051695    0.155364
     27          1           0       -2.391409   -2.934745    2.005932
     28          1           0       -3.425144   -1.077487   -1.735989
     29          1           0       -4.119840   -2.221748    0.361858
     30          6           0       -0.325014    1.620828    0.391003
     31          6           0       -0.721279    2.248339   -0.817500
     32          6           0       -1.333827    1.198145    1.292470
     33          6           0       -2.063708    2.470065   -1.090304
     34          1           0        0.039757    2.564207   -1.521285
     35          6           0       -2.673219    1.423570    1.006166
     36          1           0       -1.068479    0.683881    2.207876
     37          6           0       -3.046993    2.068273   -0.177376
     38          1           0       -2.349393    2.958859   -2.016725
     39          1           0       -3.432316    1.088025    1.705265
     40          1           0       -4.095925    2.245540   -0.393154
 ---------------------------------------------------------------------
                    Distance matrix (angstroms):
                    1          2          3          4          5
     1  C    0.000000
     2  H    3.791369   0.000000
     3  C    3.126262   3.597268   0.000000
     4  O    3.431244   3.466669   1.304560   0.000000
     5  O    1.323669   2.882779   3.421539   3.766832   0.000000
     6  N    3.658324   1.907920   3.297110   2.509784   3.350792
     7  H    3.610867   2.746666   3.806167   2.891087   3.526053
     8  N    3.337604   1.028269   3.698088   3.347524   2.576232
     9  H    1.944920   2.083824   3.452581   3.502669   1.000000
    10  H    3.444195   2.643801   1.953334   1.004499   3.493408
    11  C    1.497977   4.135034   3.466733   3.221138   2.434553
    12  H    2.149076   5.218207   4.264646   4.051187   3.265642
    13  H    2.160098   4.092507   2.846975   2.340993   3.030681
    14  H    2.132910   3.835581   4.109468   3.673549   2.551878
    15  C    3.439597   2.894992   1.496590   2.419987   3.173994
    16  H    4.298330   3.803531   2.143975   3.219398   4.060752
    17  H    2.815094   2.745997   2.149175   3.054822   2.326237
    18  H    3.998037   2.218654   2.136046   2.534037   3.514898
    19  C    1.434142   4.938912   3.505413   4.165134   2.352696
    20  C    2.475947   5.254218   4.078841   5.006748   2.753959
    21  C    2.490750   6.111807   4.058043   4.615677   3.664008
    22  C    3.749073   6.575450   5.007032   6.039717   4.142109
    23  H    2.684539   4.685969   4.198044   5.125492   2.408085
    24  C    3.758348   7.274433   4.988404   5.720206   4.791693
    25  H    2.731234   6.276882   4.153846   4.423742   4.039652
    26  C    4.258415   7.487064   5.416417   6.361897   4.993356
    27  H    4.617939   7.051692   5.708884   6.822889   4.778081
    28  H    4.630262   8.178561   5.672133   6.306995   5.756995
    29  H    5.343848   8.514177   6.338190   7.324130   6.052524
    30  C    3.500999   4.963057   1.434472   2.341293   4.156919
    31  C    4.080941   5.904204   2.475149   2.753272   5.010309
    32  C    4.048060   5.685605   2.485321   3.645330   4.596927
    33  C    5.008808   7.220406   3.746262   4.140219   6.044153
    34  H    4.201774   5.768076   2.686158   2.418582   5.133588
    35  C    4.980141   7.043295   3.752455   4.776340   5.706463
    36  H    4.142743   5.383439   2.724229   4.015109   4.397298
    37  C    5.411363   7.723177   4.250853   4.982040   6.356343
    38  H    5.714981   8.003079   4.616458   4.782276   6.834261
    39  H    5.663029   7.714529   4.624341   5.739660   6.290410
    40  H    6.333702   8.797151   5.336287   6.042366   7.320125
                    6          7          8          9         10
     6  N    0.000000
     7  H    1.026995   0.000000
     8  N    1.358675   1.907353   0.000000
     9  H    2.496814   2.708805   1.605807   0.000000
    10  H    1.533991   2.082926   2.472665   2.983468   0.000000
    11  C    3.288972   2.859859   3.402144   2.501158   3.187809
    12  H    4.314719   3.765733   4.460742   3.486550   4.155872
    13  H    2.920312   2.548325   3.439767   2.937893   2.459172
    14  H    2.929304   2.311389   2.932350   2.282050   3.340807
    15  C    3.425660   4.192387   3.368801   3.186059   2.526790
    16  H    4.462143   5.259074   4.397370   4.190254   3.479301
    17  H    3.586116   4.257235   3.150800   2.544446   3.030513
    18  H    2.903544   3.829337   2.880258   3.217743   2.277021
    19  C    4.955791   4.971892   4.652579   3.216538   4.450167
    20  C    5.736866   5.935396   5.197543   3.728359   5.255578
    21  C    5.798681   5.674770   5.745717   4.421852   5.106440
    22  C    7.049919   7.246304   6.566481   5.115770   6.427045
    23  H    5.502981   5.817413   4.755838   3.336674   5.203815
    24  C    7.099403   7.035313   7.005464   5.637978   6.305275
    25  H    5.629881   5.354134   5.783896   4.620144   4.937039
    26  C    7.656949   7.734291   7.369417   5.935325   6.895838
    27  H    7.755423   8.037681   7.159348   5.741356   7.170031
    28  H    7.831294   7.693934   7.862034   6.552396   6.969103
    29  H    8.717133   8.807157   8.433167   7.002704   7.905339
    30  C    4.593940   4.930685   4.994220   4.452855   3.219361
    31  C    5.110052   5.216063   5.749008   5.256872   3.724246
    32  C    5.700940   6.113004   5.855460   5.104726   4.422686
    33  C    6.477279   6.532308   7.066184   6.426916   5.110733
    34  H    4.653868   4.631571   5.492584   5.204587   3.330520
    35  C    6.949760   7.263815   7.151787   6.302438   5.636771
    36  H    5.760380   6.295576   5.703513   4.936437   4.621755
    37  C    7.291775   7.455057   7.689330   6.891668   5.929223
    38  H    7.060845   6.996753   7.760451   7.171394   5.735819
    39  H    7.816206   8.175583   7.894884   6.966627   6.552234
    40  H    8.353262   8.478533   8.749647   7.900912   6.996396
                   11         12         13         14         15
    11  C    0.000000
    12  H    1.091789   0.000000
    13  H    1.097240   1.768003   0.000000
    14  H    1.091801   1.769572   1.769369   0.000000
    15  C    4.187462   5.112281   3.850765   4.631104   0.000000
    16  H    5.151428   6.005356   4.796929   5.674817   1.092423
    17  H    3.864025   4.769907   3.824637   4.269539   1.096805
    18  H    4.551396   5.572022   4.167712   4.769281   1.090390
    19  C    2.584750   2.765117   3.104322   3.429270   3.843761
    20  C    3.872942   4.143396   4.383588   4.575645   3.960796
    21  C    3.009389   2.727723   3.355564   4.014833   4.772202
    22  C    5.025165   5.104743   5.478489   5.818995   4.950523
    23  H    4.180681   4.650880   4.718013   4.683439   3.705977
    24  C    4.397968   4.048339   4.700892   5.391900   5.615491
    25  H    2.662709   2.131037   2.871094   3.689993   5.123702
    26  C    5.246528   5.074738   5.619795   6.167852   5.707122
    27  H    5.980207   6.124995   6.442407   6.706662   5.418814
    28  H    5.023801   4.507768   5.233357   6.038182   6.463371
    29  H    6.307068   6.078296   6.653571   7.237375   6.610186
    30  C    3.870427   4.362381   3.278353   4.764925   2.577383
    31  C    3.996728   4.219716   3.244286   4.948933   3.866631
    32  C    4.791854   5.201315   4.431816   5.724173   2.988097
    33  C    4.985716   4.965807   4.365684   6.012311   5.013817
    34  H    3.743286   3.971259   2.808027   4.577105   4.180825
    35  C    5.637770   5.816251   5.301596   6.659769   4.375858
    36  H    5.137944   5.666187   4.907815   5.970230   2.635737
    37  C    5.734220   5.726048   5.286382   6.798507   5.226155
    38  H    5.458291   5.284071   4.800448   6.454534   5.971387
    39  H    6.482638   6.642758   6.250540   7.493535   4.999758
    40  H    6.637315   6.509346   6.231911   7.717550   6.285830
                   16         17         18         19         20
    16  H    0.000000
    17  H    1.769092   0.000000
    18  H    1.770873   1.772987   0.000000
    19  C    4.415998   3.189534   4.676292   0.000000
    20  C    4.277783   3.123475   4.853730   1.420178   0.000000
    21  C    5.254216   4.339381   5.662337   1.418621   2.433638
    22  C    5.026724   4.227815   5.934993   2.441241   1.388527
    23  H    4.027392   2.703270   4.466316   2.163695   1.083795
    24  C    5.873501   5.184704   6.607497   2.439329   2.794566
    25  H    5.710157   4.838099   5.917050   2.175623   3.422882
    26  C    5.788398   5.152881   6.740942   2.824345   2.421461
    27  H    5.341575   4.658203   6.374432   3.422142   2.143757
    28  H    6.696916   6.136681   7.452674   3.418837   3.879972
    29  H    6.571222   6.092516   7.667245   3.909791   3.403954
    30  C    2.781533   3.031568   3.445911   3.336729   3.908552
    31  C    4.149006   4.323514   4.594146   3.914599   4.778527
    32  C    2.759057   3.230072   4.023226   3.434933   3.521243
    33  C    5.114927   5.392927   5.838900   4.500014   5.251220
    34  H    4.647995   4.690358   4.702702   4.353165   5.402449
    35  C    4.076339   4.567679   5.403804   4.089363   4.144630
    36  H    2.175412   2.730433   3.687419   3.552158   3.254302
    37  C    5.091315   5.501510   6.182693   4.588434   4.985547
    38  H    6.131346   6.367010   6.728920   5.264798   6.135895
    39  H    4.541923   5.088412   6.047885   4.622298   4.368427
    40  H    6.095387   6.529397   7.253319   5.398947   5.728637
                   21         22         23         24         25
    21  C    0.000000
    22  C    2.796881   0.000000
    23  H    3.414922   2.149917   0.000000
    24  C    1.389045   2.419155   3.878351   0.000000
    25  H    1.083432   3.879914   4.320736   2.137478   0.000000
    26  C    2.421919   1.401070   3.405062   1.399069   3.396335
    27  H    3.882786   1.085919   2.471718   3.404330   4.965742
    28  H    2.142059   3.404358   4.963751   1.085535   2.449553
    29  H    3.404346   2.161499   4.300826   2.160057   4.288556
    30  C    3.439601   4.494864   4.346912   4.093719   3.556164
    31  C    3.534536   5.252564   5.401052   4.158069   3.267356
    32  C    3.532365   3.736167   3.997637   3.743724   3.991334
    33  C    3.747803   5.380467   6.038331   3.934298   3.499172
    34  H    4.011478   6.040930   5.965167   4.843294   3.499216
    35  C    3.742606   3.920911   4.829702   3.492594   4.176795
    36  H    3.991554   3.488575   3.484385   4.178421   4.630237
    37  C    3.858196   4.788971   5.802029   3.605541   3.963198
    38  H    4.340385   6.240477   6.971141   4.497012   3.873103
    39  H    4.323057   3.837547   5.016241   3.782888   4.916097
    40  H    4.509642   5.315742   6.604788   3.978170   4.600146
                   26         27         28         29         30
    26  C    0.000000
    27  H    2.159158   0.000000
    28  H    2.157302   4.303486   0.000000
    29  H    1.085459   2.489743   2.488553   0.000000
    30  C    4.589788   5.256542   4.627721   5.400643   0.000000
    31  C    4.994316   6.133960   4.383563   5.737838   1.418194
    32  C    3.855040   4.325308   4.327086   4.508168   1.417395
    33  C    4.796491   6.237470   3.854289   5.324431   2.436910
    34  H    5.811625   6.970674   5.031259   6.614669   2.163300
    35  C    3.599593   4.480386   3.786831   3.974442   2.435447
    36  H    3.961528   3.858157   4.920402   4.600138   2.175233
    37  C    4.133435   5.497892   3.531017   4.454891   2.816457
    38  H    5.508159   7.135692   4.186662   5.969156   3.418419
    39  H    3.520350   4.166121   4.065922   3.637586   3.415624
    40  H    4.452417   5.957881   3.646322   4.530704   3.901915
                   31         32         33         34         35
    31  C    0.000000
    32  C    2.435179   0.000000
    33  C    1.387696   2.797878   0.000000
    34  H    1.083634   3.416149   2.149226   0.000000
    35  C    2.795724   1.388077   2.421124   3.879343   0.000000
    36  H    3.423591   1.082980   3.880583   4.320932   2.136922
    37  C    2.418911   2.419196   1.400615   3.402950   1.398614
    38  H    2.143300   3.883589   1.085722   2.471689   3.405855
    39  H    3.880772   2.141537   3.405632   4.964376   1.085153
    40  H    3.401222   3.401110   2.160170   4.298615   2.158199
                   36         37         38         39         40
    36  H    0.000000
    37  C    3.394184   0.000000
    38  H    4.966238   2.159397   0.000000
    39  H    2.450240   2.157243   4.304178   0.000000
    40  H    4.285973   1.085469   2.489012   2.486681   0.000000
 Stoichiometry    C16H20N2O2
 Framework group  C1[X(C16H20N2O2)]
 Deg. of freedom   114
 Full point group                 C1      NOp   1
 Largest Abelian subgroup         C1      NOp   1
 Largest concise Abelian subgroup C1      NOp   1
                         Standard orientation:                         
 ---------------------------------------------------------------------
 Center     Atomic      Atomic             Coordinates (Angstroms)
 Number     Number       Type             X           Y           Z
 ---------------------------------------------------------------------
      1          6           0        1.064341   -1.417625   -0.655177
      2          1           0        4.134654   -0.358055    1.300576
      3          6           0        1.064772    1.410464    0.677275
      4          8           0        1.931045    1.868720   -0.183800
      5          8           0        1.921527   -1.873676    0.244462
      6          7           0        4.095037    0.607628   -0.344430
      7          1           0        4.119583    0.378912   -1.345332
      8          7           0        4.153296   -0.587885    0.298494
      9          1           0        2.841613   -1.498879    0.130581
     10          1           0        2.852068    1.475002   -0.108168
     11          6           0        1.588489   -0.819707   -1.924704
     12          1           0        0.960881   -1.089137   -2.776478
     13          1           0        1.628448    0.275544   -1.872135
     14          1           0        2.600114   -1.182811   -2.116535
     15          6           0        1.552270    0.781056    1.944545
     16          1           0        0.975039    1.135427    2.801641
     17          1           0        1.456052   -0.310744    1.903364
     18          1           0        2.601687    1.026506    2.110161
     19          6           0       -0.330048   -1.623154   -0.390226
     20          6           0       -0.746720   -2.241313    0.818563
     21          6           0       -1.331121   -1.199358   -1.301673
     22          6           0       -2.093986   -2.453637    1.078950
     23          1           0        0.005210   -2.561027    1.530600
     24          6           0       -2.675518   -1.415864   -1.027506
     25          1           0       -1.054975   -0.686150   -2.215011
     26          6           0       -3.067859   -2.051695    0.155364
     27          1           0       -2.391409   -2.934745    2.005932
     28          1           0       -3.425144   -1.077487   -1.735989
     29          1           0       -4.119840   -2.221748    0.361858
     30          6           0       -0.325014    1.620828    0.391003
     31          6           0       -0.721279    2.248339   -0.817500
     32          6           0       -1.333827    1.198145    1.292470
     33          6           0       -2.063708    2.470065   -1.090304
     34          1           0        0.039757    2.564207   -1.521285
     35          6           0       -2.673219    1.423570    1.006166
     36          1           0       -1.068479    0.683881    2.207876
     37          6           0       -3.046993    2.068273   -0.177376
     38          1           0       -2.349393    2.958859   -2.016725
     39          1           0       -3.432316    1.088025    1.705265
     40          1           0       -4.095925    2.245540   -0.393154
 ---------------------------------------------------------------------
 Rotational constants (GHZ):           0.4874825           0.3035993           0.2366772
 Leave Link  202 at Sun Jun  2 23:24:04 2019, MaxMem=   104857600 cpu:               5.5 elap:               0.2
 (Enter /project/6004141/group/g16/g16/l301.exe)
 Standard basis: 6-31G(d,p) (6D, 7F)
 Ernie: Thresh=  0.10000D-02 Tol=  0.10000D-05 Strict=F.
 There are   400 symmetry adapted cartesian basis functions of A   symmetry.
 There are   400 symmetry adapted basis functions of A   symmetry.
   400 basis functions,   700 primitive gaussians,   400 cartesian basis functions
    73 alpha electrons       73 beta electrons
       nuclear repulsion energy      1611.7680227747 Hartrees.
 IExCor=  402 DFT=T Ex+Corr=B3LYP ExCW=0 ScaHFX=  0.200000
 ScaDFX=  0.800000  0.720000  1.000000  0.810000 ScalE2=  1.000000  1.000000
 IRadAn=      5 IRanWt=     -1 IRanGd=            0 ICorTp=0 IEmpDi=131
 NAtoms=   40 NActive=   40 NUniq=   40 SFac= 1.00D+00 NAtFMM=   60 NAOKFM=F Big=F
 Integral buffers will be    131072 words long.
 Raffenetti 2 integral format.
 Two-electron integral symmetry is turned on.
 R6Disp:  Grimme-D3 Dispersion energy=       -0.0526298823 Hartrees.
 Nuclear repulsion after empirical dispersion term =     1611.7153928924 Hartrees.
 ------------------------------------------------------------------------------
 Polarizable Continuum Model (PCM)
 =================================
 Model                : PCM.
 Atomic radii         : UFF (Universal Force Field).
 Polarization charges : Total charges.
 Charge compensation  : None.
 Solution method      : On-the-fly selection.
 Cavity type          : Scaled VdW (van der Waals Surface) (Alpha=1.100).
 Cavity algorithm     : GePol (No added spheres)
                        Default sphere list used, NSphG=   40.
                        Lebedev-Laikov grids with approx.  5.0 points / Ang**2.
                        Smoothing algorithm: York/Karplus (Gamma=1.0000).
                        Polarization charges: spherical gaussians, with
                                              point-specific exponents (IZeta= 3).
                        Self-potential: point-specific (ISelfS= 7).
                        Self-field    : sphere-specific E.n sum rule (ISelfD= 2).
 1st derivatives      : Analytical E(r).r(x)/FMM algorithm (CHGder, D1EAlg=3).
                        Cavity 1st derivative terms included.
 Solvent              : Acetonitrile, Eps=  35.688000 Eps(inf)=   1.806874
 ------------------------------------------------------------------------------
 GePol: Number of generator spheres                  =      40
 GePol: Total number of spheres                      =      40
 GePol: Number of exposed spheres                    =      40 (100.00%)
 GePol: Number of points                             =    2580
 GePol: Average weight of points                     =       0.13
 GePol: Minimum weight of points                     =   0.39D-10
 GePol: Maximum weight of points                     =    0.20577
 GePol: Number of points with low weight             =     180
 GePol: Fraction of low-weight points (<1% of avg)   =       6.98%
 GePol: Cavity surface area                          =    326.871 Ang**2
 GePol: Cavity volume                                =    397.363 Ang**3
 Leave Link  301 at Sun Jun  2 23:24:05 2019, MaxMem=   104857600 cpu:              15.0 elap:               0.4
 (Enter /project/6004141/group/g16/g16/l302.exe)
 NPDir=0 NMtPBC=     1 NCelOv=     1 NCel=       1 NClECP=     1 NCelD=      1
         NCelK=      1 NCelE2=     1 NClLst=     1 CellRange=     0.0.
 One-electron integrals computed using PRISM.
 One-electron integral symmetry used in STVInt
 PrsmSu:  requested number of processors reduced to:  27 ShMem   1 Linda.
 NBasis=   400 RedAO= T EigKep=  4.66D-04  NBF=   400
 NBsUse=   400 1.00D-06 EigRej= -1.00D+00 NBFU=   400
 Precomputing XC quadrature grid using
 IXCGrd= 4 IRadAn=           5 IRanWt=          -1 IRanGd=           0 AccXCQ= 0.00D+00.
 Generated NRdTot=       0 NPtTot=           0 NUsed=           0 NTot=          32
 NSgBfM=   398   398   398   398   398 MxSgAt=    40 MxSgA2=    40.
 Leave Link  302 at Sun Jun  2 23:24:05 2019, MaxMem=   104857600 cpu:              23.3 elap:               0.6
 (Enter /project/6004141/group/g16/g16/l303.exe)
 DipDrv:  MaxL=1.
 Leave Link  303 at Sun Jun  2 23:24:06 2019, MaxMem=   104857600 cpu:               4.4 elap:               0.2
 (Enter /project/6004141/group/g16/g16/l401.exe)
 ExpMin= 1.61D-01 ExpMax= 5.48D+03 ExpMxC= 8.25D+02 IAcc=3 IRadAn=         5 AccDes= 0.00D+00
 Harris functional with IExCor=  402 and IRadAn=       5 diagonalized for initial guess.
 HarFok:  IExCor=  402 AccDes= 0.00D+00 IRadAn=         5 IDoV= 1 UseB2=F ITyADJ=14
 ICtDFT=  3500011 ScaDFX=  1.000000  1.000000  1.000000  1.000000
 FoFCou: FMM=F IPFlag=           0 FMFlag=      100000 FMFlg1=           0
         NFxFlg=           0 DoJE=T BraDBF=F KetDBF=T FulRan=T
         wScrn=  0.000000 ICntrl=       500 IOpCl=  0 I1Cent=   200000004 NGrid=           0
         NMat0=    1 NMatS0=      1 NMatT0=    0 NMatD0=    1 NMtDS0=    0 NMtDT0=    0
 Petite list used in FoFCou.
 Harris En= -881.683203784291    
 JPrj=0 DoOrth=F DoCkMO=T.
 Mixing orbitals, IMix= 1 IMixAn=  0 NRI=1 NE=   73 Coef=  7.07106781D-01  7.07106781D-01
 Mixing orbitals, IMix= 1 IMixAn=  0 NRI=1 NE=   73 Coef= -7.07106781D-01  7.07106781D-01
 Initial guess <Sx>= 0.0000 <Sy>= 0.0000 <Sz>= 0.0000 <S**2>= 1.0000 S= 0.6180
 Leave Link  401 at Sun Jun  2 23:24:07 2019, MaxMem=   104857600 cpu:              38.0 elap:               1.0
 (Enter /project/6004141/group/g16/g16/l502.exe)
 Integral symmetry usage will be decided dynamically.
 UHF open shell SCF:
 Using DIIS extrapolation, IDIIS=  1040.
 NGot=   104857600 LenX=   104517248 LenY=   104356807
 Requested convergence on RMS density matrix=1.00D-08 within 128 cycles.
 Requested convergence on MAX density matrix=1.00D-06.
 Requested convergence on             energy=1.00D-06.
 No special actions if energy rises.
 Fock matrices will be formed incrementally for  20 cycles.

 Cycle   1  Pass 1  IDiag  1:
 FoFJK:  IHMeth= 1 ICntrl=       0 DoSepK=F KAlg= 0 I1Cent=           0 FoldK=F
 IRaf= 820000000 NMat=       1 IRICut=       1 DoRegI=T DoRafI=F ISym2E= 0 IDoP0=0 IntGTp=1.
 FoFCou: FMM=F IPFlag=           0 FMFlag=      100000 FMFlg1=           0
         NFxFlg=           0 DoJE=F BraDBF=F KetDBF=F FulRan=T
         wScrn=  0.000000 ICntrl=         0 IOpCl=  1 I1Cent=           0 NGrid=           0
         NMat0=    1 NMatS0=      1 NMatT0=    0 NMatD0=    1 NMtDS0=    0 NMtDT0=    0
 Symmetry not used in FoFCou.
 Inv3:  Mode=1 IEnd=    19969200.
 Iteration    1 A*A^-1 deviation from unit magnitude is 3.11D-15 for   1528.
 Iteration    1 A*A^-1 deviation from orthogonality  is 2.26D-15 for   2381   1095.
 Iteration    1 A^-1*A deviation from unit magnitude is 3.33D-15 for   1731.
 Iteration    1 A^-1*A deviation from orthogonality  is 2.20D-15 for   2046    244.
 E= -881.123848496741    
 DIIS: error= 2.45D-02 at cycle   1 NSaved=   1.
 NSaved= 1 IEnMin= 1 EnMin= -881.123848496741     IErMin= 1 ErrMin= 2.45D-02
 ErrMax= 2.45D-02  0.00D+00 EMaxC= 1.00D-01 BMatC= 1.94D+00 BMatP= 1.94D+00
 IDIUse=3 WtCom= 7.55D-01 WtEn= 2.45D-01
 Coeff-Com:  0.100D+01
 Coeff-En:   0.100D+01
 Coeff:      0.100D+01
 Gap=     0.061 Goal=   None    Shift=    0.000
 Gap=     0.066 Goal=   None    Shift=    0.000
 GapD=    0.061 DampG=0.500 DampE=0.500 DampFc=0.2500 IDamp=-1.
 Damping current iteration by 2.50D-01
 RMSDP=4.56D-03 MaxDP=2.06D-01              OVMax= 5.53D-01

 Cycle   2  Pass 1  IDiag  1:
 RMSU=  1.12D-03    CP:  9.86D-01
 E= -881.298800300161     Delta-E=       -0.174951803420 Rises=F Damp=T
 DIIS: error= 1.39D-02 at cycle   2 NSaved=   2.
 NSaved= 2 IEnMin= 2 EnMin= -881.298800300161     IErMin= 2 ErrMin= 1.39D-02
 ErrMax= 1.39D-02  0.00D+00 EMaxC= 1.00D-01 BMatC= 5.28D-01 BMatP= 1.94D+00
 IDIUse=3 WtCom= 8.61D-01 WtEn= 1.39D-01
 Coeff-Com: -0.699D+00 0.170D+01
 Coeff-En:   0.000D+00 0.100D+01
 Coeff:     -0.602D+00 0.160D+01
 Gap=     0.104 Goal=   None    Shift=    0.000
 Gap=     0.124 Goal=   None    Shift=    0.000
 RMSDP=2.17D-03 MaxDP=1.18D-01 DE=-1.75D-01 OVMax= 9.27D-01

 Cycle   3  Pass 1  IDiag  1:
 RMSU=  2.14D-03    CP:  9.64D-01  1.02D+00
 E= -881.443183426536     Delta-E=       -0.144383126375 Rises=F Damp=F
 DIIS: error= 2.96D-02 at cycle   3 NSaved=   3.
 NSaved= 3 IEnMin= 3 EnMin= -881.443183426536     IErMin= 2 ErrMin= 1.39D-02
 ErrMax= 2.96D-02  0.00D+00 EMaxC= 1.00D-01 BMatC= 6.86D-01 BMatP= 5.28D-01
 IDIUse=2 WtCom= 0.00D+00 WtEn= 1.00D+00
 Coeff-En:   0.000D+00 0.220D+00 0.780D+00
 Coeff:      0.000D+00 0.220D+00 0.780D+00
 Gap=     0.075 Goal=   None    Shift=    0.000
 Gap=     0.077 Goal=   None    Shift=    0.000
 RMSDP=3.68D-03 MaxDP=3.46D-01 DE=-1.44D-01 OVMax= 9.35D-01

 Cycle   4  Pass 1  IDiag  1:
 RMSU=  1.56D-03    CP:  9.55D-01  2.80D+00 -2.45D-01
 E= -880.786581805534     Delta-E=        0.656601621002 Rises=F Damp=F
 DIIS: error= 5.46D-02 at cycle   4 NSaved=   4.
 NSaved= 4 IEnMin= 3 EnMin= -881.443183426536     IErMin= 2 ErrMin= 1.39D-02
 ErrMax= 5.46D-02  0.00D+00 EMaxC= 1.00D-01 BMatC= 2.92D+00 BMatP= 5.28D-01
 IDIUse=2 WtCom= 0.00D+00 WtEn= 1.00D+00
 Coeff-En:   0.000D+00 0.000D+00 0.722D+00 0.278D+00
 Coeff:      0.000D+00 0.000D+00 0.722D+00 0.278D+00
 Gap=     0.109 Goal=   None    Shift=    0.000
 Gap=     0.112 Goal=   None    Shift=    0.000
 RMSDP=2.17D-03 MaxDP=1.88D-01 DE= 6.57D-01 OVMax= 6.23D-01

 Cycle   5  Pass 1  IDiag  1:
 RMSU=  1.24D-03    CP:  9.66D-01  1.84D+00  4.89D-02  1.97D-01
 E= -881.548847988660     Delta-E=       -0.762266183126 Rises=F Damp=F
 DIIS: error= 1.63D-02 at cycle   5 NSaved=   5.
 NSaved= 5 IEnMin= 5 EnMin= -881.548847988660     IErMin= 2 ErrMin= 1.39D-02
 ErrMax= 1.63D-02  0.00D+00 EMaxC= 1.00D-01 BMatC= 2.70D-01 BMatP= 5.28D-01
 IDIUse=3 WtCom= 8.37D-01 WtEn= 1.63D-01
 Coeff-Com: -0.125D+00 0.290D+00 0.382D+00 0.234D-01 0.429D+00
 Coeff-En:   0.000D+00 0.000D+00 0.373D+00 0.000D+00 0.627D+00
 Coeff:     -0.104D+00 0.243D+00 0.380D+00 0.196D-01 0.461D+00
 Gap=     0.014 Goal=   None    Shift=    0.000
 Gap=     0.014 Goal=   None    Shift=    0.000
 RMSDP=1.84D-03 MaxDP=1.30D-01 DE=-7.62D-01 OVMax= 5.77D-01

 Cycle   6  Pass 1  IDiag  1:
 RMSU=  5.89D-04    CP:  9.68D-01  1.11D+00  6.54D-01 -4.48D-03  3.86D-01
 E= -881.612548186903     Delta-E=       -0.063700198244 Rises=F Damp=F
 DIIS: error= 8.52D-03 at cycle   6 NSaved=   6.
 NSaved= 6 IEnMin= 6 EnMin= -881.612548186903     IErMin= 6 ErrMin= 8.52D-03
 ErrMax= 8.52D-03  0.00D+00 EMaxC= 1.00D-01 BMatC= 7.17D-02 BMatP= 2.70D-01
 IDIUse=3 WtCom= 9.15D-01 WtEn= 8.52D-02
 Coeff-Com: -0.517D-01 0.673D-01-0.114D-01 0.117D-01 0.274D+00 0.710D+00
 Coeff-En:   0.000D+00 0.000D+00 0.000D+00 0.000D+00 0.313D+00 0.687D+00
 Coeff:     -0.473D-01 0.616D-01-0.105D-01 0.107D-01 0.277D+00 0.708D+00
 Gap=     0.029 Goal=   None    Shift=    0.000
 Gap=     0.026 Goal=   None    Shift=    0.000
 RMSDP=8.50D-04 MaxDP=6.28D-02 DE=-6.37D-02 OVMax= 3.08D-01

 Cycle   7  Pass 1  IDiag  1:
 RMSU=  3.33D-04    CP:  9.68D-01  1.37D+00  4.00D-01  1.58D-02  7.67D-01
                    CP:  8.60D-01
 E= -881.636256682153     Delta-E=       -0.023708495249 Rises=F Damp=F
 DIIS: error= 1.43D-03 at cycle   7 NSaved=   7.
 NSaved= 7 IEnMin= 7 EnMin= -881.636256682153     IErMin= 7 ErrMin= 1.43D-03
 ErrMax= 1.43D-03  0.00D+00 EMaxC= 1.00D-01 BMatC= 9.53D-03 BMatP= 7.17D-02
 IDIUse=3 WtCom= 9.86D-01 WtEn= 1.43D-02
 Coeff-Com: -0.480D-01 0.604D-01-0.928D-01-0.127D-01 0.919D-01 0.504D+00
 Coeff-Com:  0.497D+00
 Coeff-En:   0.000D+00 0.000D+00 0.000D+00 0.000D+00 0.000D+00 0.800D-01
 Coeff-En:   0.920D+00
 Coeff:     -0.473D-01 0.595D-01-0.914D-01-0.125D-01 0.906D-01 0.498D+00
 Coeff:      0.503D+00
 Gap=     0.036 Goal=   None    Shift=    0.000
 Gap=     0.035 Goal=   None    Shift=    0.000
 RMSDP=2.17D-04 MaxDP=1.37D-02 DE=-2.37D-02 OVMax= 6.58D-02

 Cycle   8  Pass 1  IDiag  1:
 RMSU=  2.04D-04    CP:  9.68D-01  1.38D+00  4.06D-01  1.35D-02  7.40D-01
                    CP:  9.67D-01  9.94D-01
 E= -881.639555001519     Delta-E=       -0.003298319366 Rises=F Damp=F
 DIIS: error= 9.11D-04 at cycle   8 NSaved=   8.
 NSaved= 8 IEnMin= 8 EnMin= -881.639555001519     IErMin= 8 ErrMin= 9.11D-04
 ErrMax= 9.11D-04  0.00D+00 EMaxC= 1.00D-01 BMatC= 1.23D-03 BMatP= 9.53D-03
 IDIUse=3 WtCom= 9.91D-01 WtEn= 9.11D-03
 Coeff-Com: -0.137D-01 0.197D-01-0.260D-01-0.125D-02 0.333D-02 0.189D+00
 Coeff-Com:  0.144D+00 0.685D+00
 Coeff-En:   0.000D+00 0.000D+00 0.000D+00 0.000D+00 0.000D+00 0.000D+00
 Coeff-En:   0.000D+00 0.100D+01
 Coeff:     -0.135D-01 0.196D-01-0.258D-01-0.124D-02 0.330D-02 0.187D+00
 Coeff:      0.142D+00 0.688D+00
 Gap=     0.043 Goal=   None    Shift=    0.000
 Gap=     0.036 Goal=   None    Shift=    0.000
 RMSDP=2.62D-04 MaxDP=1.82D-02 DE=-3.30D-03 OVMax= 8.26D-02

 Cycle   9  Pass 1  IDiag  1:
 RMSU=  9.34D-05    CP:  9.67D-01  1.40D+00  4.07D-01  4.49D-02  7.01D-01
                    CP:  9.59D-01  1.44D+00  1.88D+00
 E= -881.641249379767     Delta-E=       -0.001694378248 Rises=F Damp=F
 DIIS: error= 1.14D-03 at cycle   9 NSaved=   9.
 NSaved= 9 IEnMin= 9 EnMin= -881.641249379767     IErMin= 8 ErrMin= 9.11D-04
 ErrMax= 1.14D-03  0.00D+00 EMaxC= 1.00D-01 BMatC= 1.97D-03 BMatP= 1.23D-03
 IDIUse=3 WtCom= 9.91D-01 WtEn= 9.11D-03
 Coeff-Com: -0.135D-01 0.195D-01-0.256D-01-0.120D-02 0.301D-02 0.188D+00
 Coeff-Com:  0.141D+00 0.681D+00 0.863D-02
 Coeff-En:   0.000D+00 0.000D+00 0.000D+00 0.000D+00 0.000D+00 0.000D+00
 Coeff-En:   0.000D+00 0.000D+00 0.100D+01
 Coeff:     -0.133D-01 0.193D-01-0.254D-01-0.119D-02 0.299D-02 0.186D+00
 Coeff:      0.139D+00 0.675D+00 0.177D-01
 Gap=     0.043 Goal=   None    Shift=    0.000
 Gap=     0.036 Goal=   None    Shift=    0.000
 RMSDP=7.24D-06 MaxDP=4.20D-04 DE=-1.69D-03 OVMax= 2.46D-03

 Cycle  10  Pass 1  IDiag  1:
 RMSU=  1.43D-06    CP:  9.67D-01  1.41D+00  4.07D-01  4.58D-02  6.99D-01
                    CP:  9.59D-01  1.45D+00  1.91D+00  1.02D+00
 E= -881.641310251083     Delta-E=       -0.000060871315 Rises=F Damp=F
 DIIS: error= 1.14D-03 at cycle  10 NSaved=  10.
 NSaved=10 IEnMin=10 EnMin= -881.641310251083     IErMin= 8 ErrMin= 9.11D-04
 ErrMax= 1.14D-03  0.00D+00 EMaxC= 1.00D-01 BMatC= 1.95D-03 BMatP= 1.23D-03
 IDIUse=3 WtCom= 9.91D-01 WtEn= 9.11D-03
 Coeff-Com: -0.118D-01 0.179D-01-0.239D-01-0.396D-03-0.507D-02 0.171D+00
 Coeff-Com:  0.126D+00 0.870D+00 0.817D+01-0.832D+01
 Coeff-En:   0.000D+00 0.000D+00 0.000D+00 0.000D+00 0.000D+00 0.000D+00
 Coeff-En:   0.000D+00 0.000D+00 0.000D+00 0.100D+01
 Coeff:     -0.117D-01 0.177D-01-0.237D-01-0.393D-03-0.502D-02 0.170D+00
 Coeff:      0.125D+00 0.862D+00 0.810D+01-0.823D+01
 Gap=     0.041 Goal=   None    Shift=    0.000
 Gap=     0.037 Goal=   None    Shift=    0.000
 RMSDP=1.28D-04 MaxDP=8.23D-03 DE=-6.09D-05 OVMax= 4.15D-02

 Cycle  11  Pass 1  IDiag  1:
 RMSU=  1.39D-05    CP:  9.68D-01  1.39D+00  4.05D-01  2.91D-02  7.21D-01
                    CP:  9.67D-01  1.26D+00  1.47D+00  5.21D-01 -3.00D+00
 E= -881.640450575571     Delta-E=        0.000859675512 Rises=F Damp=F
 DIIS: error= 1.07D-03 at cycle  11 NSaved=  11.
 NSaved=11 IEnMin=10 EnMin= -881.641310251083     IErMin= 8 ErrMin= 9.11D-04
 ErrMax= 1.07D-03  0.00D+00 EMaxC= 1.00D-01 BMatC= 1.62D-03 BMatP= 1.23D-03
 IDIUse=3 WtCom= 9.91D-01 WtEn= 9.11D-03
 Large coefficients: NSaved= 11 BigCof=   17.70 CofMax=   10.00 Det=-4.98D-08
 Inversion failed.  Reducing to 10 matrices.
 Large coefficients: NSaved= 10 BigCof=   13.56 CofMax=   10.00 Det=-5.42D-08
 Inversion failed.  Reducing to  9 matrices.
 Large coefficients: NSaved=  9 BigCof=   12.63 CofMax=   10.00 Det=-5.57D-08
 Inversion failed.  Reducing to  8 matrices.
 Large coefficients: NSaved=  8 BigCof=   11.93 CofMax=   10.00 Det=-5.83D-08
 Inversion failed.  Reducing to  7 matrices.
 Rare condition: small coef for last iteration:  0.000D+00
 Coeff-Com: -0.223D-01 0.472D-01-0.334D-01 0.381D+00 0.652D+01-0.981D+01
 Coeff-Com:  0.392D+01
 Coeff-En:   0.000D+00 0.000D+00 0.000D+00 0.000D+00 0.000D+00 0.000D+00
 Coeff-En:   0.100D+01
 Coeff:     -0.223D-01 0.472D-01-0.334D-01 0.381D+00 0.652D+01-0.981D+01
 Coeff:      0.392D+01
 Gap=     0.039 Goal=   None    Shift=    0.000
 Gap=     0.038 Goal=   None    Shift=    0.000
 RMSDP=3.18D-04 MaxDP=1.90D-02 DE= 8.60D-04 OVMax= 1.12D-01

 Cycle  12  Pass 1  IDiag  1:
 RMSU=  5.06D-05    CP:  9.68D-01  1.38D+00  3.88D-01  3.75D-03  7.70D-01
                    CP:  9.39D-01  7.73D-01  3.92D-01 -7.58D-01 -3.00D+00
                    CP:  3.00D+00
 E= -881.638371654314     Delta-E=        0.002078921256 Rises=F Damp=F
 DIIS: error= 1.28D-03 at cycle  12 NSaved=   8.
 NSaved= 8 IEnMin= 6 EnMin= -881.641310251083     IErMin= 4 ErrMin= 9.11D-04
 ErrMax= 1.28D-03  0.00D+00 EMaxC= 1.00D-01 BMatC= 2.25D-03 BMatP= 1.23D-03
 IDIUse=3 WtCom= 9.91D-01 WtEn= 9.11D-03
 Rare condition: small coef for last iteration:  0.000D+00
 Coeff-Com: -0.374D-01 0.529D-01-0.800D-01-0.167D+00-0.310D+01-0.728D+00
 Coeff-Com:  0.418D+01 0.880D+00
 Coeff-En:   0.000D+00 0.000D+00 0.000D+00 0.000D+00 0.000D+00 0.000D+00
 Coeff-En:   0.000D+00 0.100D+01
 Coeff:     -0.374D-01 0.529D-01-0.800D-01-0.167D+00-0.310D+01-0.728D+00
 Coeff:      0.418D+01 0.880D+00
 Gap=     0.038 Goal=   None    Shift=    0.000
 Gap=     0.040 Goal=   None    Shift=    0.000
 RMSDP=2.89D-04 MaxDP=1.98D-02 DE= 2.08D-03 OVMax= 9.60D-02

 Cycle  13  Pass 1  IDiag  1:
 RMSU=  4.80D-05    CP:  9.68D-01  1.38D+00  3.81D-01 -4.93D-03  7.85D-01
                    CP:  8.86D-01  2.65D-01 -5.69D-01 -1.83D+00 -3.00D+00
                    CP:  3.00D+00  2.00D+00
 E= -881.637327381674     Delta-E=        0.001044272640 Rises=F Damp=F
 DIIS: error= 1.53D-03 at cycle  13 NSaved=   9.
 NSaved= 9 IEnMin= 6 EnMin= -881.641310251083     IErMin= 4 ErrMin= 9.11D-04
 ErrMax= 1.53D-03  0.00D+00 EMaxC= 1.00D-01 BMatC= 2.48D-03 BMatP= 1.23D-03
 IDIUse=3 WtCom= 9.91D-01 WtEn= 9.11D-03
 Rare condition: small coef for last iteration:  0.000D+00
 Coeff-Com: -0.380D-01 0.105D+00-0.741D-01-0.126D+00-0.347D+01 0.297D+01
 Coeff-Com:  0.394D+00 0.397D+00 0.840D+00
 Coeff-En:   0.000D+00 0.336D-01 0.000D+00 0.000D+00 0.000D+00 0.000D+00
 Coeff-En:   0.000D+00 0.000D+00 0.966D+00
 Coeff:     -0.380D-01 0.105D+00-0.741D-01-0.126D+00-0.347D+01 0.297D+01
 Coeff:      0.394D+00 0.397D+00 0.840D+00
 Gap=     0.037 Goal=   None    Shift=    0.000
 Gap=     0.040 Goal=   None    Shift=    0.000
 RMSDP=9.61D-05 MaxDP=7.21D-03 DE= 1.04D-03 OVMax= 3.63D-02

 Cycle  14  Pass 1  IDiag  1:
 RMSU=  1.57D-05    CP:  9.68D-01  1.35D+00  4.10D-01 -1.16D-02  7.49D-01
                    CP:  9.30D-01  2.88D-01 -4.67D-01 -1.67D+00 -3.00D+00
                    CP:  3.00D+00  2.06D+00  7.41D-01
 E= -881.638129316054     Delta-E=       -0.000801934379 Rises=F Damp=F
 DIIS: error= 3.86D-04 at cycle  14 NSaved=  10.
 NSaved=10 IEnMin= 6 EnMin= -881.641310251083     IErMin=10 ErrMin= 3.86D-04
 ErrMax= 3.86D-04  0.00D+00 EMaxC= 1.00D-01 BMatC= 2.60D-04 BMatP= 1.23D-03
 IDIUse=3 WtCom= 9.96D-01 WtEn= 3.86D-03
 Coeff-Com: -0.247D-01 0.528D-01-0.430D-01 0.120D-01 0.308D+01-0.348D+01
 Coeff-Com:  0.132D+00 0.447D-01 0.542D+00 0.686D+00
 Coeff-En:   0.000D+00 0.000D+00 0.000D+00 0.000D+00 0.000D+00 0.000D+00
 Coeff-En:   0.000D+00 0.000D+00 0.000D+00 0.100D+01
 Coeff:     -0.246D-01 0.526D-01-0.429D-01 0.119D-01 0.307D+01-0.347D+01
 Coeff:      0.132D+00 0.445D-01 0.540D+00 0.687D+00
 Gap=     0.036 Goal=   None    Shift=    0.000
 Gap=     0.042 Goal=   None    Shift=    0.000
 RMSDP=2.48D-04 MaxDP=1.84D-02 DE=-8.02D-04 OVMax= 8.87D-02

 Cycle  15  Pass 1  IDiag  1:
 RMSU=  2.18D-05    CP:  9.68D-01  1.37D+00  3.98D-01 -4.05D-03  7.55D-01
                    CP:  8.49D-01 -1.55D-01 -1.29D+00 -2.44D+00 -3.00D+00
                    CP:  3.00D+00  2.68D+00  1.42D+00  2.94D-01
 E= -881.637691815497     Delta-E=        0.000437500557 Rises=F Damp=F
 DIIS: error= 8.82D-04 at cycle  15 NSaved=  11.
 NSaved=11 IEnMin= 6 EnMin= -881.641310251083     IErMin=10 ErrMin= 3.86D-04
 ErrMax= 8.82D-04  0.00D+00 EMaxC= 1.00D-01 BMatC= 9.27D-04 BMatP= 2.60D-04
 IDIUse=3 WtCom= 9.96D-01 WtEn= 3.86D-03
 Rare condition: small coef for last iteration:  0.000D+00
 Coeff-Com: -0.785D-02 0.342D-01-0.355D-02 0.272D+00 0.782D+01-0.700D+01
 Coeff-Com: -0.103D+01-0.425D+00 0.574D-01 0.733D+00 0.555D+00
 Coeff-En:   0.000D+00 0.000D+00 0.000D+00 0.000D+00 0.000D+00 0.000D+00
 Coeff-En:   0.000D+00 0.000D+00 0.000D+00 0.000D+00 0.100D+01
 Coeff:     -0.785D-02 0.342D-01-0.355D-02 0.272D+00 0.782D+01-0.700D+01
 Coeff:     -0.103D+01-0.425D+00 0.574D-01 0.733D+00 0.555D+00
 Gap=     0.035 Goal=   None    Shift=    0.000
 Gap=     0.041 Goal=   None    Shift=    0.000
 RMSDP=7.46D-05 MaxDP=6.14D-03 DE= 4.38D-04 OVMax= 2.97D-02

 Cycle  16  Pass 1  IDiag  1:
 RMSU=  1.42D-05    CP:  9.68D-01  1.34D+00  4.20D-01 -9.32D-03  7.33D-01
                    CP:  8.81D-01 -1.23D-01 -1.19D+00 -2.25D+00 -3.00D+00
                    CP:  3.00D+00  2.44D+00  1.12D+00  9.17D-01  8.64D-01
 E= -881.637991992983     Delta-E=       -0.000300177486 Rises=F Damp=F
 DIIS: error= 1.10D-04 at cycle  16 NSaved=  12.
 NSaved=12 IEnMin= 6 EnMin= -881.641310251083     IErMin=12 ErrMin= 1.10D-04
 ErrMax= 1.10D-04  0.00D+00 EMaxC= 1.00D-01 BMatC= 1.65D-05 BMatP= 2.60D-04
 IDIUse=3 WtCom= 9.99D-01 WtEn= 1.10D-03
 Coeff-Com: -0.168D-02 0.105D-01 0.266D-02 0.153D+00 0.398D+01-0.371D+01
 Coeff-Com: -0.327D+00-0.237D+00-0.113D+00 0.344D+00 0.326D+00 0.569D+00
 Coeff-En:   0.000D+00 0.000D+00 0.000D+00 0.000D+00 0.000D+00 0.000D+00
 Coeff-En:   0.000D+00 0.000D+00 0.000D+00 0.000D+00 0.000D+00 0.100D+01
 Coeff:     -0.168D-02 0.105D-01 0.266D-02 0.153D+00 0.398D+01-0.370D+01
 Coeff:     -0.327D+00-0.237D+00-0.113D+00 0.343D+00 0.326D+00 0.569D+00
 Gap=     0.035 Goal=   None    Shift=    0.000
 Gap=     0.041 Goal=   None    Shift=    0.000
 RMSDP=1.68D-05 MaxDP=1.21D-03 DE=-3.00D-04 OVMax= 5.66D-03

 Cycle  17  Pass 1  IDiag  1:
 RMSU=  3.78D-06    CP:  9.68D-01  1.34D+00  4.21D-01 -8.55D-03  7.31D-01
                    CP:  8.76D-01 -1.54D-01 -1.24D+00 -2.28D+00 -3.00D+00
                    CP:  3.00D+00  2.42D+00  1.14D+00  8.91D-01  1.02D+00
                    CP:  1.05D+00
 E= -881.637998450750     Delta-E=       -0.000006457767 Rises=F Damp=F
 DIIS: error= 6.95D-05 at cycle  17 NSaved=  13.
 NSaved=13 IEnMin= 6 EnMin= -881.641310251083     IErMin=13 ErrMin= 6.95D-05
 ErrMax= 6.95D-05  0.00D+00 EMaxC= 1.00D-01 BMatC= 6.55D-06 BMatP= 1.65D-05
 IDIUse=1 WtCom= 1.00D+00 WtEn= 0.00D+00
 Coeff-Com: -0.100D-02 0.572D-02-0.250D-03 0.455D-01 0.708D+00-0.663D+00
 Coeff-Com: -0.294D-01-0.643D-01-0.622D-01 0.860D-01 0.860D-01 0.332D+00
 Coeff-Com:  0.557D+00
 Coeff:     -0.100D-02 0.572D-02-0.250D-03 0.455D-01 0.708D+00-0.663D+00
 Coeff:     -0.294D-01-0.643D-01-0.622D-01 0.860D-01 0.860D-01 0.332D+00
 Coeff:      0.557D+00
 Gap=     0.036 Goal=   None    Shift=    0.000
 Gap=     0.041 Goal=   None    Shift=    0.000
 RMSDP=2.12D-05 MaxDP=1.81D-03 DE=-6.46D-06 OVMax= 8.36D-03

 Cycle  18  Pass 1  IDiag  1:
 RMSU=  1.67D-06    CP:  9.68D-01  1.34D+00  4.23D-01 -9.58D-03  7.30D-01
                    CP:  8.85D-01 -1.19D-01 -1.17D+00 -2.21D+00 -3.00D+00
                    CP:  3.00D+00  2.34D+00  1.08D+00  9.31D-01  9.79D-01
                    CP:  1.07D+00  8.90D-01
 E= -881.637996404254     Delta-E=        0.000002046496 Rises=F Damp=F
 DIIS: error= 3.00D-05 at cycle  18 NSaved=  14.
 NSaved=14 IEnMin= 6 EnMin= -881.641310251083     IErMin=14 ErrMin= 3.00D-05
 ErrMax= 3.00D-05  0.00D+00 EMaxC= 1.00D-01 BMatC= 1.08D-06 BMatP= 6.55D-06
 IDIUse=1 WtCom= 1.00D+00 WtEn= 0.00D+00
 Coeff-Com: -0.784D-03 0.226D-02-0.159D-02-0.528D-02-0.470D+00 0.428D+00
 Coeff-Com:  0.621D-01 0.137D-01-0.969D-02-0.233D-02-0.198D-02 0.916D-01
 Coeff-Com:  0.373D+00 0.522D+00
 Coeff:     -0.784D-03 0.226D-02-0.159D-02-0.528D-02-0.470D+00 0.428D+00
 Coeff:      0.621D-01 0.137D-01-0.969D-02-0.233D-02-0.198D-02 0.916D-01
 Coeff:      0.373D+00 0.522D+00
 Gap=     0.036 Goal=   None    Shift=    0.000
 Gap=     0.041 Goal=   None    Shift=    0.000
 RMSDP=4.14D-06 MaxDP=3.85D-04 DE= 2.05D-06 OVMax= 1.45D-03

 Cycle  19  Pass 1  IDiag  1:
 RMSU=  8.69D-07    CP:  9.68D-01  1.34D+00  4.23D-01 -9.65D-03  7.31D-01
                    CP:  8.86D-01 -1.12D-01 -1.16D+00 -2.21D+00 -3.00D+00
                    CP:  3.00D+00  2.33D+00  1.07D+00  9.23D-01  9.75D-01
                    CP:  1.06D+00  9.39D-01  1.06D+00
 E= -881.637996402668     Delta-E=        0.000000001587 Rises=F Damp=F
 DIIS: error= 1.62D-05 at cycle  19 NSaved=  15.
 NSaved=15 IEnMin= 6 EnMin= -881.641310251083     IErMin=15 ErrMin= 1.62D-05
 ErrMax= 1.62D-05  0.00D+00 EMaxC= 1.00D-01 BMatC= 3.74D-07 BMatP= 1.08D-06
 IDIUse=1 WtCom= 1.00D+00 WtEn= 0.00D+00
 Coeff-Com:  0.775D-04 0.177D-03-0.124D-03-0.114D-01-0.396D+00 0.401D+00
 Coeff-Com: -0.164D-02 0.122D-01 0.116D-01-0.257D-02-0.138D-02-0.451D-01
 Coeff-Com: -0.340D-02 0.178D+00 0.859D+00
 Coeff:      0.775D-04 0.177D-03-0.124D-03-0.114D-01-0.396D+00 0.401D+00
 Coeff:     -0.164D-02 0.122D-01 0.116D-01-0.257D-02-0.138D-02-0.451D-01
 Coeff:     -0.340D-02 0.178D+00 0.859D+00
 Gap=     0.036 Goal=   None    Shift=    0.000
 Gap=     0.041 Goal=   None    Shift=    0.000
 RMSDP=6.84D-06 MaxDP=5.21D-04 DE= 1.59D-09 OVMax= 2.17D-03

 Cycle  20  Pass 1  IDiag  1:
 RMSU=  5.20D-07    CP:  9.68D-01  1.34D+00  4.23D-01 -9.87D-03  7.31D-01
                    CP:  8.88D-01 -9.87D-02 -1.14D+00 -2.19D+00 -3.00D+00
                    CP:  3.00D+00  2.32D+00  1.06D+00  9.41D-01  9.59D-01
                    CP:  1.04D+00  9.70D-01  1.31D+00  1.30D+00
 E= -881.637996341942     Delta-E=        0.000000060726 Rises=F Damp=F
 DIIS: error= 2.13D-05 at cycle  20 NSaved=  16.
 NSaved=16 IEnMin= 6 EnMin= -881.641310251083     IErMin=15 ErrMin= 1.62D-05
 ErrMax= 2.13D-05  0.00D+00 EMaxC= 1.00D-01 BMatC= 5.15D-07 BMatP= 3.74D-07
 IDIUse=1 WtCom= 1.00D+00 WtEn= 0.00D+00
 Coeff-Com:  0.426D-03-0.164D-02 0.644D-03-0.249D-02 0.355D-01-0.224D-01
 Coeff-Com: -0.207D-01-0.242D-02 0.737D-02 0.480D-02 0.169D-01-0.559D-01
 Coeff-Com: -0.130D+00-0.114D+00 0.370D+00 0.914D+00
 Coeff:      0.426D-03-0.164D-02 0.644D-03-0.249D-02 0.355D-01-0.224D-01
 Coeff:     -0.207D-01-0.242D-02 0.737D-02 0.480D-02 0.169D-01-0.559D-01
 Coeff:     -0.130D+00-0.114D+00 0.370D+00 0.914D+00
 Gap=     0.036 Goal=   None    Shift=    0.000
 Gap=     0.041 Goal=   None    Shift=    0.000
 RMSDP=3.22D-06 MaxDP=3.57D-04 DE= 6.07D-08 OVMax= 1.33D-03

 Cycle  21  Pass 1  IDiag  1:
 Restarting incremental Fock formation.
 E= -881.637996483360     Delta-E=       -0.000000141419 Rises=F Damp=F
 DIIS: error= 8.71D-06 at cycle  21 NSaved=  17.
 NSaved=17 IEnMin= 6 EnMin= -881.641310251083     IErMin=17 ErrMin= 8.71D-06
 ErrMax= 8.71D-06  0.00D+00 EMaxC= 1.00D-01 BMatC= 9.53D-08 BMatP= 3.74D-07
 IDIUse=1 WtCom= 1.00D+00 WtEn= 0.00D+00
 Coeff-Com:  0.280D-03-0.816D-03 0.385D-03 0.375D-02 0.165D+00-0.152D+00
 Coeff-Com: -0.166D-01-0.792D-02-0.286D-02-0.581D-03 0.653D-02-0.747D-02
 Coeff-Com: -0.568D-01-0.991D-01-0.154D+00 0.499D+00 0.824D+00
 Coeff:      0.280D-03-0.816D-03 0.385D-03 0.375D-02 0.165D+00-0.152D+00
 Coeff:     -0.166D-01-0.792D-02-0.286D-02-0.581D-03 0.653D-02-0.747D-02
 Coeff:     -0.568D-01-0.991D-01-0.154D+00 0.499D+00 0.824D+00
 Gap=     0.036 Goal=   None    Shift=    0.000
 Gap=     0.041 Goal=   None    Shift=    0.000
 RMSDP=7.97D-07 MaxDP=9.60D-05 DE=-1.41D-07 OVMax= 2.60D-04

 Cycle  22  Pass 1  IDiag  1:
 RMSU=  7.97D-07    CP:  1.00D+00
 E= -881.637996505096     Delta-E=       -0.000000021736 Rises=F Damp=F
 DIIS: error= 6.22D-06 at cycle  22 NSaved=  18.
 NSaved=18 IEnMin= 6 EnMin= -881.641310251083     IErMin=18 ErrMin= 6.22D-06
 ErrMax= 6.22D-06  0.00D+00 EMaxC= 1.00D-01 BMatC= 4.28D-08 BMatP= 9.53D-08
 IDIUse=1 WtCom= 1.00D+00 WtEn= 0.00D+00
 Coeff-Com:  0.346D-04 0.125D-03-0.779D-04 0.413D-03 0.657D-02-0.557D-02
 Coeff-Com: -0.221D-03-0.199D-03-0.180D-02-0.640D-02-0.677D-02 0.487D-02
 Coeff-Com:  0.577D-02 0.638D-02-0.110D+00-0.255D-01 0.298D+00 0.834D+00
 Coeff:      0.346D-04 0.125D-03-0.779D-04 0.413D-03 0.657D-02-0.557D-02
 Coeff:     -0.221D-03-0.199D-03-0.180D-02-0.640D-02-0.677D-02 0.487D-02
 Coeff:      0.577D-02 0.638D-02-0.110D+00-0.255D-01 0.298D+00 0.834D+00
 Gap=     0.036 Goal=   None    Shift=    0.000
 Gap=     0.041 Goal=   None    Shift=    0.000
 RMSDP=7.19D-07 MaxDP=5.68D-05 DE=-2.17D-08 OVMax= 2.34D-04

 Cycle  23  Pass 1  IDiag  1:
 RMSU=  6.36D-07    CP:  1.00D+00  1.42D+00
 E= -881.637996519564     Delta-E=       -0.000000014468 Rises=F Damp=F
 DIIS: error= 2.01D-06 at cycle  23 NSaved=  19.
 NSaved=19 IEnMin= 6 EnMin= -881.641310251083     IErMin=19 ErrMin= 2.01D-06
 ErrMax= 2.01D-06  0.00D+00 EMaxC= 1.00D-01 BMatC= 4.34D-09 BMatP= 4.28D-08
 IDIUse=1 WtCom= 1.00D+00 WtEn= 0.00D+00
 Coeff-Com: -0.344D-04 0.129D-03-0.933D-04-0.127D-03-0.127D-01 0.112D-01
 Coeff-Com:  0.222D-02 0.742D-03-0.184D-03-0.212D-02-0.235D-02 0.296D-02
 Coeff-Com:  0.942D-02 0.135D-01-0.242D-01-0.803D-01 0.732D-02 0.337D+00
 Coeff-Com:  0.738D+00
 Coeff:     -0.344D-04 0.129D-03-0.933D-04-0.127D-03-0.127D-01 0.112D-01
 Coeff:      0.222D-02 0.742D-03-0.184D-03-0.212D-02-0.235D-02 0.296D-02
 Coeff:      0.942D-02 0.135D-01-0.242D-01-0.803D-01 0.732D-02 0.337D+00
 Coeff:      0.738D+00
 Gap=     0.036 Goal=   None    Shift=    0.000
 Gap=     0.041 Goal=   None    Shift=    0.000
 RMSDP=1.26D-07 MaxDP=1.54D-05 DE=-1.45D-08 OVMax= 4.58D-05

 Cycle  24  Pass 1  IDiag  1:
 RMSU=  6.36D-08    CP:  1.00D+00  1.50D+00  8.66D-01
 E= -881.637996520751     Delta-E=       -0.000000001187 Rises=F Damp=F
 DIIS: error= 1.04D-06 at cycle  24 NSaved=  20.
 NSaved=20 IEnMin= 6 EnMin= -881.641310251083     IErMin=20 ErrMin= 1.04D-06
 ErrMax= 1.04D-06  0.00D+00 EMaxC= 1.00D-01 BMatC= 1.33D-09 BMatP= 4.34D-09
 IDIUse=1 WtCom= 1.00D+00 WtEn= 0.00D+00
 Coeff-Com: -0.254D-04-0.234D-04 0.105D-04-0.110D-03-0.335D-02 0.235D-02
 Coeff-Com:  0.849D-03 0.307D-03 0.707D-03 0.191D-02 0.232D-02-0.715D-03
 Coeff-Com:  0.175D-02 0.123D-02 0.325D-01-0.228D-01-0.108D+00-0.199D+00
 Coeff-Com:  0.192D+00 0.110D+01
 Coeff:     -0.254D-04-0.234D-04 0.105D-04-0.110D-03-0.335D-02 0.235D-02
 Coeff:      0.849D-03 0.307D-03 0.707D-03 0.191D-02 0.232D-02-0.715D-03
 Coeff:      0.175D-02 0.123D-02 0.325D-01-0.228D-01-0.108D+00-0.199D+00
 Coeff:      0.192D+00 0.110D+01
 Gap=     0.036 Goal=   None    Shift=    0.000
 Gap=     0.041 Goal=   None    Shift=    0.000
 RMSDP=1.92D-07 MaxDP=2.01D-05 DE=-1.19D-09 OVMax= 7.64D-05

 Cycle  25  Pass 1  IDiag  1:
 RMSU=  4.36D-08    CP:  1.00D+00  1.58D+00  6.12D-01  2.13D+00
 E= -881.637996521189     Delta-E=       -0.000000000438 Rises=F Damp=F
 DIIS: error= 6.35D-07 at cycle  25 NSaved=  20.
 NSaved=20 IEnMin= 5 EnMin= -881.641310251083     IErMin=20 ErrMin= 6.35D-07
 ErrMax= 6.35D-07  0.00D+00 EMaxC= 1.00D-01 BMatC= 5.13D-10 BMatP= 1.33D-09
 IDIUse=1 WtCom= 1.00D+00 WtEn= 0.00D+00
 Coeff-Com: -0.321D-04 0.380D-04-0.528D-04 0.798D-03-0.769D-03-0.300D-03
 Coeff-Com: -0.247D-05 0.351D-03 0.145D-02 0.136D-02-0.969D-03-0.173D-02
 Coeff-Com: -0.276D-02 0.211D-01 0.110D-01-0.557D-01-0.177D+00-0.649D-01
 Coeff-Com:  0.545D+00 0.723D+00
 Coeff:     -0.321D-04 0.380D-04-0.528D-04 0.798D-03-0.769D-03-0.300D-03
 Coeff:     -0.247D-05 0.351D-03 0.145D-02 0.136D-02-0.969D-03-0.173D-02
 Coeff:     -0.276D-02 0.211D-01 0.110D-01-0.557D-01-0.177D+00-0.649D-01
 Coeff:      0.545D+00 0.723D+00
 Gap=     0.036 Goal=   None    Shift=    0.000
 Gap=     0.041 Goal=   None    Shift=    0.000
 RMSDP=4.05D-08 MaxDP=4.25D-06 DE=-4.38D-10 OVMax= 1.30D-05

 Cycle  26  Pass 1  IDiag  1:
 RMSU=  2.66D-08    CP:  1.00D+00  1.57D+00  6.49D-01  2.37D+00  8.73D-01
 E= -881.637996521299     Delta-E=       -0.000000000111 Rises=F Damp=F
 DIIS: error= 4.30D-07 at cycle  26 NSaved=  20.
 NSaved=20 IEnMin= 4 EnMin= -881.641310251083     IErMin=20 ErrMin= 4.30D-07
 ErrMax= 4.30D-07  0.00D+00 EMaxC= 1.00D-01 BMatC= 2.19D-10 BMatP= 5.13D-10
 IDIUse=1 WtCom= 1.00D+00 WtEn= 0.00D+00
 Coeff-Com:  0.688D-05-0.241D-04 0.271D-03-0.185D-03-0.159D-03-0.463D-05
 Coeff-Com:  0.162D-04 0.290D-03-0.627D-04-0.132D-03-0.104D-02-0.111D-02
 Coeff-Com:  0.284D-02 0.117D-01-0.586D-02-0.467D-01-0.660D-01-0.872D-02
 Coeff-Com:  0.329D+00 0.786D+00
 Coeff:      0.688D-05-0.241D-04 0.271D-03-0.185D-03-0.159D-03-0.463D-05
 Coeff:      0.162D-04 0.290D-03-0.627D-04-0.132D-03-0.104D-02-0.111D-02
 Coeff:      0.284D-02 0.117D-01-0.586D-02-0.467D-01-0.660D-01-0.872D-02
 Coeff:      0.329D+00 0.786D+00
 Gap=     0.036 Goal=   None    Shift=    0.000
 Gap=     0.041 Goal=   None    Shift=    0.000
 RMSDP=3.95D-08 MaxDP=3.73D-06 DE=-1.11D-10 OVMax= 1.57D-05

 Cycle  27  Pass 1  IDiag  1:
 RMSU=  8.77D-09    CP:  1.00D+00  1.56D+00  7.02D-01  2.45D+00  8.13D-01
                    CP:  1.58D+00
 E= -881.637996521375     Delta-E=       -0.000000000076 Rises=F Damp=F
 DIIS: error= 1.14D-07 at cycle  27 NSaved=  20.
[...]
 ErrMax= 1.92D-04  0.00D+00 EMaxC= 1.00D-01 BMatC= 6.63D-05 BMatP= 2.01D-07
 IDIUse=1 WtCom= 1.00D+00 WtEn= 0.00D+00
 Coeff-Com: -0.460D-02-0.340D-03 0.117D-01 0.287D-01 0.607D-02-0.146D+00
 Coeff-Com: -0.381D+00 0.584D+00-0.149D+00 0.117D-01 0.200D-01 0.563D+00
 Coeff-Com: -0.127D+00-0.150D+01 0.286D+01 0.193D+00 0.842D-01-0.155D+01
 Coeff-Com:  0.612D+00-0.107D+00
 Coeff:     -0.460D-02-0.340D-03 0.117D-01 0.287D-01 0.607D-02-0.146D+00
 Coeff:     -0.381D+00 0.584D+00-0.149D+00 0.117D-01 0.200D-01 0.563D+00
 Coeff:     -0.127D+00-0.150D+01 0.286D+01 0.193D+00 0.842D-01-0.155D+01
 Coeff:      0.612D+00-0.107D+00
 Gap=     0.049 Goal=   None    Shift=    0.000
 Gap=     0.038 Goal=   None    Shift=    0.000
 RMSDP=1.34D-04 MaxDP=7.87D-03 DE= 3.62D-05 OVMax= 4.54D-02

 Cycle 114  Pass 1  IDiag  1:
 RMSU=  1.25D-08    CP:  1.00D+00  1.11D+00  3.00D-01  3.00D+00  3.00D+00
                    CP: -3.00D+00 -3.00D+00  3.00D+00 -3.00D+00 -3.00D+00
                    CP:  2.26D+00 -2.80D+00 -2.83D+00
 E= -881.648136634316     Delta-E=       -0.000034428202 Rises=F Damp=F
 DIIS: error= 3.97D-05 at cycle 114 NSaved=  20.
 NSaved=20 IEnMin= 8 EnMin= -881.648238179839     IErMin=16 ErrMin= 9.29D-06
 ErrMax= 3.97D-05  0.00D+00 EMaxC= 1.00D-01 BMatC= 2.81D-06 BMatP= 2.01D-07
 IDIUse=1 WtCom= 1.00D+00 WtEn= 0.00D+00
 Coeff-Com: -0.395D-02-0.561D-03 0.119D-01 0.300D-01 0.975D-02-0.166D+00
 Coeff-Com: -0.511D+00 0.819D+00-0.243D+00-0.938D-02 0.570D-01 0.527D+00
 Coeff-Com:  0.316D-01-0.140D+01 0.289D+01 0.136D+00 0.529D-01-0.170D+01
 Coeff-Com: -0.190D+00 0.652D+00
 Coeff:     -0.395D-02-0.561D-03 0.119D-01 0.300D-01 0.975D-02-0.166D+00
 Coeff:     -0.511D+00 0.819D+00-0.243D+00-0.938D-02 0.570D-01 0.527D+00
 Coeff:      0.316D-01-0.140D+01 0.289D+01 0.136D+00 0.529D-01-0.170D+01
 Coeff:     -0.190D+00 0.652D+00
 Gap=     0.049 Goal=   None    Shift=    0.000
 Gap=     0.039 Goal=   None    Shift=    0.000
 RMSDP=1.85D-05 MaxDP=1.05D-03 DE=-3.44D-05 OVMax= 6.29D-03

 Cycle 115  Pass 1  IDiag  1:
 RMSU=  1.20D-10    CP:  1.00D+00  1.27D+00  9.49D-01  3.00D+00  3.00D+00
                    CP: -8.14D-03 -3.00D+00  1.59D+00 -1.96D+00 -2.10D+00
                    CP:  2.40D-03  3.00D+00  6.98D-01  3.24D-04
 E= -881.648138332189     Delta-E=       -0.000001697874 Rises=F Damp=F
 DIIS: error= 1.75D-05 at cycle 115 NSaved=  20.
 NSaved=20 IEnMin= 8 EnMin= -881.648238179839     IErMin=16 ErrMin= 9.29D-06
 ErrMax= 1.75D-05  0.00D+00 EMaxC= 1.00D-01 BMatC= 5.63D-07 BMatP= 2.01D-07
 IDIUse=1 WtCom= 1.00D+00 WtEn= 0.00D+00
 Coeff-Com: -0.156D-02 0.558D-03 0.120D-03-0.486D-02-0.165D-01 0.149D-01
 Coeff-Com:  0.332D+00-0.635D+00 0.249D+00 0.832D-01-0.720D-01-0.261D+01
 Coeff-Com:  0.308D+01-0.644D+00-0.302D+01 0.843D+00 0.649D+00 0.106D+01
 Coeff-Com:  0.431D+00 0.126D+01
 Coeff:     -0.156D-02 0.558D-03 0.120D-03-0.486D-02-0.165D-01 0.149D-01
 Coeff:      0.332D+00-0.635D+00 0.249D+00 0.832D-01-0.720D-01-0.261D+01
 Coeff:      0.308D+01-0.644D+00-0.302D+01 0.843D+00 0.649D+00 0.106D+01
 Coeff:      0.431D+00 0.126D+01
 Gap=     0.052 Goal=   None    Shift=    0.000
 Gap=     0.038 Goal=   None    Shift=    0.000
 RMSDP=1.54D-04 MaxDP=9.00D-03 DE=-1.70D-06 OVMax= 5.21D-02

 Cycle 116  Pass 1  IDiag  1:
 RMSU=  3.44D-11    CP:  1.00D+00 -9.75D-02  2.80D-01  3.00D+00  2.93D+00
                    CP: -1.89D+00 -5.65D-02  1.31D+00  2.14D+00  3.00D+00
                    CP:  5.59D-04  6.49D-01  2.94D+00 -1.97D-04  2.30D-02
 E= -881.648101563817     Delta-E=        0.000036768372 Rises=F Damp=F
 DIIS: error= 1.93D-04 at cycle 116 NSaved=  20.
 NSaved=20 IEnMin= 8 EnMin= -881.648238179839     IErMin=16 ErrMin= 9.29D-06
 ErrMax= 1.93D-04  0.00D+00 EMaxC= 1.00D-01 BMatC= 6.76D-05 BMatP= 2.01D-07
 IDIUse=1 WtCom= 1.00D+00 WtEn= 0.00D+00
 Coeff-Com: -0.461D-02-0.333D-03 0.119D-01 0.290D-01 0.625D-02-0.147D+00
 Coeff-Com: -0.389D+00 0.599D+00-0.154D+00 0.103D-01 0.208D-01 0.566D+00
 Coeff-Com: -0.140D+00-0.151D+01 0.290D+01 0.190D+00 0.807D-01-0.156D+01
 Coeff-Com:  0.598D+00-0.108D+00
 Coeff:     -0.461D-02-0.333D-03 0.119D-01 0.290D-01 0.625D-02-0.147D+00
 Coeff:     -0.389D+00 0.599D+00-0.154D+00 0.103D-01 0.208D-01 0.566D+00
 Coeff:     -0.140D+00-0.151D+01 0.290D+01 0.190D+00 0.807D-01-0.156D+01
 Coeff:      0.598D+00-0.108D+00
 Gap=     0.049 Goal=   None    Shift=    0.000
 Gap=     0.038 Goal=   None    Shift=    0.000
 RMSDP=1.37D-04 MaxDP=8.04D-03 DE= 3.68D-05 OVMax= 4.64D-02

 Cycle 117  Pass 1  IDiag  1:
 RMSU=  8.31D-09    CP:  1.00D+00  1.12D+00  3.42D-01  3.00D+00  3.00D+00
                    CP: -3.00D+00 -3.00D+00  3.00D+00 -3.00D+00 -3.00D+00
                    CP:  3.00D+00 -3.00D+00 -3.00D+00  2.56D+00 -3.00D+00
                    CP:  3.00D+00
 E= -881.648136782173     Delta-E=       -0.000035218356 Rises=F Damp=F
 DIIS: error= 3.83D-05 at cycle 117 NSaved=  20.
 NSaved=20 IEnMin= 8 EnMin= -881.648238179839     IErMin=16 ErrMin= 9.29D-06
 ErrMax= 3.83D-05  0.00D+00 EMaxC= 1.00D-01 BMatC= 2.61D-06 BMatP= 2.01D-07
 IDIUse=1 WtCom= 1.00D+00 WtEn= 0.00D+00
 Coeff-Com: -0.394D-02-0.570D-03 0.118D-01 0.299D-01 0.970D-02-0.165D+00
 Coeff-Com: -0.508D+00 0.814D+00-0.242D+00-0.874D-02 0.571D-01 0.538D+00
 Coeff-Com:  0.303D-01-0.139D+01 0.288D+01 0.135D+00 0.531D-01-0.170D+01
 Coeff-Com: -0.184D+00 0.653D+00
 Coeff:     -0.394D-02-0.570D-03 0.118D-01 0.299D-01 0.970D-02-0.165D+00
 Coeff:     -0.508D+00 0.814D+00-0.242D+00-0.874D-02 0.571D-01 0.538D+00
 Coeff:      0.303D-01-0.139D+01 0.288D+01 0.135D+00 0.531D-01-0.170D+01
 Coeff:     -0.184D+00 0.653D+00
 Gap=     0.049 Goal=   None    Shift=    0.000
 Gap=     0.039 Goal=   None    Shift=    0.000
 RMSDP=1.67D-05 MaxDP=9.51D-04 DE=-3.52D-05 OVMax= 5.69D-03

 Cycle 118  Pass 1  IDiag  1:
 RMSU=  8.62D-10    CP:  1.00D+00  1.27D+00  9.37D-01  3.00D+00  3.00D+00
                    CP: -9.20D-02 -3.00D+00  1.94D+00 -3.00D+00 -3.00D+00
                    CP:  1.43D-01  3.00D+00 -2.28D-01 -1.18D-02  3.00D+00
                    CP: -3.00D+00  2.72D-02
 E= -881.648138309759     Delta-E=       -0.000001527585 Rises=F Damp=F
 DIIS: error= 1.79D-05 at cycle 118 NSaved=  20.
 NSaved=20 IEnMin= 8 EnMin= -881.648238179839     IErMin=16 ErrMin= 9.29D-06
 ErrMax= 1.79D-05  0.00D+00 EMaxC= 1.00D-01 BMatC= 5.90D-07 BMatP= 2.01D-07
 IDIUse=1 WtCom= 1.00D+00 WtEn= 0.00D+00
 Coeff-Com: -0.150D-02 0.573D-03-0.102D-04-0.524D-02-0.168D-01 0.164D-01
 Coeff-Com:  0.338D+00-0.643D+00 0.252D+00 0.832D-01-0.724D-01-0.266D+01
 Coeff-Com:  0.313D+01-0.631D+00-0.310D+01 0.851D+00 0.655D+00 0.109D+01
 Coeff-Com:  0.458D+00 0.125D+01
 Coeff:     -0.150D-02 0.573D-03-0.102D-04-0.524D-02-0.168D-01 0.164D-01
 Coeff:      0.338D+00-0.643D+00 0.252D+00 0.832D-01-0.724D-01-0.266D+01
 Coeff:      0.313D+01-0.631D+00-0.310D+01 0.851D+00 0.655D+00 0.109D+01
 Coeff:      0.458D+00 0.125D+01
 Gap=     0.052 Goal=   None    Shift=    0.000
 Gap=     0.038 Goal=   None    Shift=    0.000
 RMSDP=1.54D-04 MaxDP=9.04D-03 DE=-1.53D-06 OVMax= 5.23D-02

 Cycle 119  Pass 1  IDiag  1:
 RMSU=  2.93D-10    CP:  1.00D+00 -1.05D-01  3.06D-01  3.00D+00  3.00D+00
                    CP: -2.20D+00 -2.22D-01  1.69D+00  7.12D-01  2.84D+00
                    CP:  1.86D-03  2.32D+00  3.00D+00 -4.95D-05  1.60D-01
                    CP:  9.29D-01 -4.86D-04 -1.83D-02
 E= -881.648101133989     Delta-E=        0.000037175769 Rises=F Damp=F
 DIIS: error= 1.95D-04 at cycle 119 NSaved=  20.
 NSaved=20 IEnMin= 8 EnMin= -881.648238179839     IErMin=16 ErrMin= 9.29D-06
 ErrMax= 1.95D-04  0.00D+00 EMaxC= 1.00D-01 BMatC= 6.84D-05 BMatP= 2.01D-07
 IDIUse=1 WtCom= 1.00D+00 WtEn= 0.00D+00
 Coeff-Com: -0.462D-02-0.328D-03 0.120D-01 0.292D-01 0.638D-02-0.148D+00
 Coeff-Com: -0.395D+00 0.609D+00-0.157D+00 0.925D-02 0.213D-01 0.568D+00
 Coeff-Com: -0.149D+00-0.151D+01 0.294D+01 0.187D+00 0.781D-01-0.157D+01
 Coeff-Com:  0.588D+00-0.108D+00
 Coeff:     -0.462D-02-0.328D-03 0.120D-01 0.292D-01 0.638D-02-0.148D+00
 Coeff:     -0.395D+00 0.609D+00-0.157D+00 0.925D-02 0.213D-01 0.568D+00
 Coeff:     -0.149D+00-0.151D+01 0.294D+01 0.187D+00 0.781D-01-0.157D+01
 Coeff:      0.588D+00-0.108D+00
 Gap=     0.049 Goal=   None    Shift=    0.000
 Gap=     0.038 Goal=   None    Shift=    0.000
 RMSDP=1.39D-04 MaxDP=8.15D-03 DE= 3.72D-05 OVMax= 4.70D-02

 Cycle 120  Pass 1  IDiag  1:
 RMSU=  1.43D-08    CP:  1.00D+00  1.13D+00  3.72D-01  3.00D+00  3.00D+00
                    CP: -3.00D+00 -3.00D+00  3.00D+00 -3.00D+00 -3.00D+00
                    CP:  3.00D+00 -3.00D+00 -3.00D+00  3.00D+00 -3.00D+00
                    CP:  3.00D+00  2.92D+00 -3.00D+00  8.51D-04
 E= -881.648136885308     Delta-E=       -0.000035751319 Rises=F Damp=F
 DIIS: error= 3.72D-05 at cycle 120 NSaved=  20.
 NSaved=20 IEnMin= 8 EnMin= -881.648238179839     IErMin=16 ErrMin= 9.29D-06
 ErrMax= 3.72D-05  0.00D+00 EMaxC= 1.00D-01 BMatC= 2.47D-06 BMatP= 2.01D-07
 IDIUse=1 WtCom= 1.00D+00 WtEn= 0.00D+00
 Coeff-Com: -0.393D-02-0.577D-03 0.117D-01 0.298D-01 0.966D-02-0.165D+00
 Coeff-Com: -0.506D+00 0.810D+00-0.241D+00-0.828D-02 0.571D-01 0.546D+00
 Coeff-Com:  0.292D-01-0.139D+01 0.286D+01 0.135D+00 0.532D-01-0.170D+01
 Coeff-Com: -0.179D+00 0.654D+00
 Coeff:     -0.393D-02-0.577D-03 0.117D-01 0.298D-01 0.966D-02-0.165D+00
 Coeff:     -0.506D+00 0.810D+00-0.241D+00-0.828D-02 0.571D-01 0.546D+00
 Coeff:      0.292D-01-0.139D+01 0.286D+01 0.135D+00 0.532D-01-0.170D+01
 Coeff:     -0.179D+00 0.654D+00
 Gap=     0.049 Goal=   None    Shift=    0.000
 Gap=     0.039 Goal=   None    Shift=    0.000
 RMSDP=1.54D-05 MaxDP=8.79D-04 DE=-3.58D-05 OVMax= 5.26D-03

 Cycle 121  Pass 1  IDiag  1:
 Restarting incremental Fock formation.
 E= -881.648138292919     Delta-E=       -0.000001407611 Rises=F Damp=F
 DIIS: error= 1.83D-05 at cycle 121 NSaved=  20.
 NSaved=20 IEnMin= 8 EnMin= -881.648238179839     IErMin=16 ErrMin= 9.29D-06
 ErrMax= 1.83D-05  0.00D+00 EMaxC= 1.00D-01 BMatC= 6.11D-07 BMatP= 2.01D-07
 IDIUse=1 WtCom= 1.00D+00 WtEn= 0.00D+00
 Coeff-Com: -0.146D-02 0.582D-03-0.102D-03-0.551D-02-0.169D-01 0.175D-01
 Coeff-Com:  0.341D+00-0.649D+00 0.253D+00 0.832D-01-0.727D-01-0.269D+01
 Coeff-Com:  0.316D+01-0.621D+00-0.315D+01 0.856D+00 0.660D+00 0.111D+01
 Coeff-Com:  0.478D+00 0.124D+01
 Coeff:     -0.146D-02 0.582D-03-0.102D-03-0.551D-02-0.169D-01 0.175D-01
 Coeff:      0.341D+00-0.649D+00 0.253D+00 0.832D-01-0.727D-01-0.269D+01
 Coeff:      0.316D+01-0.621D+00-0.315D+01 0.856D+00 0.660D+00 0.111D+01
 Coeff:      0.478D+00 0.124D+01
 Gap=     0.052 Goal=   None    Shift=    0.000
 Gap=     0.038 Goal=   None    Shift=    0.000
 RMSDP=1.55D-04 MaxDP=9.07D-03 DE=-1.41D-06 OVMax= 5.25D-02

 Cycle 122  Pass 1  IDiag  1:
 RMSU=  1.55D-04    CP:  1.00D+00
 E= -881.648100854634     Delta-E=        0.000037438285 Rises=F Damp=F
 DIIS: error= 1.95D-04 at cycle 122 NSaved=  20.
 NSaved=20 IEnMin= 8 EnMin= -881.648238179839     IErMin=16 ErrMin= 9.29D-06
 ErrMax= 1.95D-04  0.00D+00 EMaxC= 1.00D-01 BMatC= 6.89D-05 BMatP= 2.01D-07
 IDIUse=1 WtCom= 1.00D+00 WtEn= 0.00D+00
 Coeff-Com: -0.463D-02-0.325D-03 0.120D-01 0.294D-01 0.648D-02-0.149D+00
 Coeff-Com: -0.399D+00 0.617D+00-0.160D+00 0.857D-02 0.217D-01 0.569D+00
 Coeff-Com: -0.155D+00-0.152D+01 0.296D+01 0.186D+00 0.764D-01-0.158D+01
 Coeff-Com:  0.581D+00-0.109D+00
 Coeff:     -0.463D-02-0.325D-03 0.120D-01 0.294D-01 0.648D-02-0.149D+00
 Coeff:     -0.399D+00 0.617D+00-0.160D+00 0.857D-02 0.217D-01 0.569D+00
 Coeff:     -0.155D+00-0.152D+01 0.296D+01 0.186D+00 0.764D-01-0.158D+01
 Coeff:      0.581D+00-0.109D+00
 Gap=     0.049 Goal=   None    Shift=    0.000
 Gap=     0.038 Goal=   None    Shift=    0.000
 RMSDP=1.40D-04 MaxDP=8.23D-03 DE= 3.74D-05 OVMax= 4.75D-02

 Cycle 123  Pass 1  IDiag  1:
 RMSU=  7.85D-07    CP:  1.00D+00  9.46D-02
 E= -881.648136956298     Delta-E=       -0.000036101664 Rises=F Damp=F
 DIIS: error= 3.65D-05 at cycle 123 NSaved=  20.
 NSaved=20 IEnMin= 8 EnMin= -881.648238179839     IErMin=16 ErrMin= 9.29D-06
 ErrMax= 3.65D-05  0.00D+00 EMaxC= 1.00D-01 BMatC= 2.38D-06 BMatP= 2.01D-07
 IDIUse=1 WtCom= 1.00D+00 WtEn= 0.00D+00
 Coeff-Com: -0.393D-02-0.581D-03 0.117D-01 0.297D-01 0.963D-02-0.164D+00
 Coeff-Com: -0.505D+00 0.807D+00-0.240D+00-0.795D-02 0.571D-01 0.552D+00
 Coeff-Com:  0.282D-01-0.139D+01 0.286D+01 0.134D+00 0.532D-01-0.170D+01
 Coeff-Com: -0.177D+00 0.655D+00
 Coeff:     -0.393D-02-0.581D-03 0.117D-01 0.297D-01 0.963D-02-0.164D+00
 Coeff:     -0.505D+00 0.807D+00-0.240D+00-0.795D-02 0.571D-01 0.552D+00
 Coeff:      0.282D-01-0.139D+01 0.286D+01 0.134D+00 0.532D-01-0.170D+01
 Coeff:     -0.177D+00 0.655D+00
 Gap=     0.049 Goal=   None    Shift=    0.000
 Gap=     0.039 Goal=   None    Shift=    0.000
 RMSDP=1.45D-05 MaxDP=8.29D-04 DE=-3.61D-05 OVMax= 4.96D-03

 Cycle 124  Pass 1  IDiag  1:
 RMSU=  7.11D-09    CP:  1.00D+00  8.98D-04  1.37D-02
 E= -881.648138280990     Delta-E=       -0.000001324693 Rises=F Damp=F
 DIIS: error= 1.85D-05 at cycle 124 NSaved=  20.
 NSaved=20 IEnMin= 8 EnMin= -881.648238179839     IErMin=16 ErrMin= 9.29D-06
 ErrMax= 1.85D-05  0.00D+00 EMaxC= 1.00D-01 BMatC= 6.26D-07 BMatP= 2.01D-07
 IDIUse=1 WtCom= 1.00D+00 WtEn= 0.00D+00
 Coeff-Com: -0.143D-02 0.587D-03-0.168D-03-0.569D-02-0.170D-01 0.182D-01
 Coeff-Com:  0.344D+00-0.653D+00 0.255D+00 0.832D-01-0.728D-01-0.271D+01
 Coeff-Com:  0.318D+01-0.614D+00-0.318D+01 0.859D+00 0.663D+00 0.113D+01
 Coeff-Com:  0.492D+00 0.123D+01
 Coeff:     -0.143D-02 0.587D-03-0.168D-03-0.569D-02-0.170D-01 0.182D-01
 Coeff:      0.344D+00-0.653D+00 0.255D+00 0.832D-01-0.728D-01-0.271D+01
 Coeff:      0.318D+01-0.614D+00-0.318D+01 0.859D+00 0.663D+00 0.113D+01
 Coeff:      0.492D+00 0.123D+01
 Gap=     0.052 Goal=   None    Shift=    0.000
 Gap=     0.038 Goal=   None    Shift=    0.000
 RMSDP=1.55D-04 MaxDP=9.08D-03 DE=-1.32D-06 OVMax= 5.26D-02

 Cycle 125  Pass 1  IDiag  1:
 RMSU=  2.77D-09    CP:  1.00D+00  1.00D+00 -2.21D-02  1.56D+00
 E= -881.648100675427     Delta-E=        0.000037605563 Rises=F Damp=F
 DIIS: error= 1.96D-04 at cycle 125 NSaved=  20.
 NSaved=20 IEnMin= 8 EnMin= -881.648238179839     IErMin=16 ErrMin= 9.29D-06
 ErrMax= 1.96D-04  0.00D+00 EMaxC= 1.00D-01 BMatC= 6.93D-05 BMatP= 2.01D-07
 IDIUse=1 WtCom= 1.00D+00 WtEn= 0.00D+00
 Coeff-Com: -0.463D-02-0.324D-03 0.121D-01 0.295D-01 0.655D-02-0.150D+00
 Coeff-Com: -0.402D+00 0.622D+00-0.161D+00 0.810D-02 0.220D-01 0.569D+00
 Coeff-Com: -0.159D+00-0.152D+01 0.298D+01 0.184D+00 0.752D-01-0.158D+01
 Coeff-Com:  0.577D+00-0.109D+00
 Coeff:     -0.463D-02-0.324D-03 0.121D-01 0.295D-01 0.655D-02-0.150D+00
 Coeff:     -0.402D+00 0.622D+00-0.161D+00 0.810D-02 0.220D-01 0.569D+00
 Coeff:     -0.159D+00-0.152D+01 0.298D+01 0.184D+00 0.752D-01-0.158D+01
 Coeff:      0.577D+00-0.109D+00
 Gap=     0.049 Goal=   None    Shift=    0.000
 Gap=     0.038 Goal=   None    Shift=    0.000
 RMSDP=1.41D-04 MaxDP=8.28D-03 DE= 3.76D-05 OVMax= 4.78D-02

 Cycle 126  Pass 1  IDiag  1:
 RMSU=  1.35D-09    CP:  1.00D+00  9.13D-02  9.77D-01  2.25D+00  1.66D+00
 E= -881.648137004679     Delta-E=       -0.000036329252 Rises=F Damp=F
 DIIS: error= 3.61D-05 at cycle 126 NSaved=  20.
 NSaved=20 IEnMin= 8 EnMin= -881.648238179839     IErMin=16 ErrMin= 9.29D-06
 ErrMax= 3.61D-05  0.00D+00 EMaxC= 1.00D-01 BMatC= 2.31D-06 BMatP= 2.01D-07
 IDIUse=1 WtCom= 1.00D+00 WtEn= 0.00D+00
 Coeff-Com: -0.392D-02-0.583D-03 0.117D-01 0.296D-01 0.961D-02-0.164D+00
 Coeff-Com: -0.503D+00 0.805D+00-0.239D+00-0.773D-02 0.571D-01 0.557D+00
 Coeff-Com:  0.274D-01-0.139D+01 0.285D+01 0.134D+00 0.533D-01-0.171D+01
 Coeff-Com: -0.175D+00 0.656D+00
 Coeff:     -0.392D-02-0.583D-03 0.117D-01 0.296D-01 0.961D-02-0.164D+00
 Coeff:     -0.503D+00 0.805D+00-0.239D+00-0.773D-02 0.571D-01 0.557D+00
 Coeff:      0.274D-01-0.139D+01 0.285D+01 0.134D+00 0.533D-01-0.171D+01
 Coeff:     -0.175D+00 0.656D+00
 Gap=     0.049 Goal=   None    Shift=    0.000
 Gap=     0.039 Goal=   None    Shift=    0.000
 RMSDP=1.39D-05 MaxDP=7.95D-04 DE=-3.63D-05 OVMax= 4.76D-03

 Cycle 127  Pass 1  IDiag  1:
 RMSU=  1.65D-11    CP:  1.00D+00  1.49D-03  2.32D-02  1.79D+00  4.59D-02
                    CP:  2.80D-02
 E= -881.648138272850     Delta-E=       -0.000001268171 Rises=F Damp=F
 DIIS: error= 1.87D-05 at cycle 127 NSaved=  20.
 NSaved=20 IEnMin= 8 EnMin= -881.648238179839     IErMin=16 ErrMin= 9.29D-06
 ErrMax= 1.87D-05  0.00D+00 EMaxC= 1.00D-01 BMatC= 6.37D-07 BMatP= 2.01D-07
 IDIUse=1 WtCom= 1.00D+00 WtEn= 0.00D+00
 Coeff-Com: -0.141D-02 0.590D-03-0.213D-03-0.582D-02-0.170D-01 0.188D-01
 Coeff-Com:  0.346D+00-0.656D+00 0.255D+00 0.833D-01-0.729D-01-0.273D+01
 Coeff-Com:  0.320D+01-0.609D+00-0.320D+01 0.861D+00 0.665D+00 0.114D+01
 Coeff-Com:  0.502D+00 0.122D+01
 Coeff:     -0.141D-02 0.590D-03-0.213D-03-0.582D-02-0.170D-01 0.188D-01
 Coeff:      0.346D+00-0.656D+00 0.255D+00 0.833D-01-0.729D-01-0.273D+01
 Coeff:      0.320D+01-0.609D+00-0.320D+01 0.861D+00 0.665D+00 0.114D+01
 Coeff:      0.502D+00 0.122D+01
 Gap=     0.052 Goal=   None    Shift=    0.000
 Gap=     0.038 Goal=   None    Shift=    0.000
 RMSDP=1.55D-04 MaxDP=9.09D-03 DE=-1.27D-06 OVMax= 5.26D-02

 Cycle 128  Pass 1  IDiag  1:
 RMSU=  4.01D-11    CP:  1.00D+00  1.00D+00 -3.59D-02  2.61D+00  1.64D+00
                    CP: -2.67D-02 -4.53D-02
 E= -881.648100560873     Delta-E=        0.000037711978 Rises=F Damp=F
 DIIS: error= 1.96D-04 at cycle 128 NSaved=  20.
 NSaved=20 IEnMin= 8 EnMin= -881.648238179839     IErMin=16 ErrMin= 9.29D-06
 ErrMax= 1.96D-04  0.00D+00 EMaxC= 1.00D-01 BMatC= 6.95D-05 BMatP= 2.01D-07
 IDIUse=1 WtCom= 1.00D+00 WtEn= 0.00D+00
 Coeff-Com: -0.464D-02-0.323D-03 0.121D-01 0.296D-01 0.660D-02-0.150D+00
 Coeff-Com: -0.404D+00 0.626D+00-0.163D+00 0.779D-02 0.222D-01 0.570D+00
 Coeff-Com: -0.162D+00-0.152D+01 0.299D+01 0.184D+00 0.743D-01-0.158D+01
 Coeff-Com:  0.573D+00-0.110D+00
 Coeff:     -0.464D-02-0.323D-03 0.121D-01 0.296D-01 0.660D-02-0.150D+00
 Coeff:     -0.404D+00 0.626D+00-0.163D+00 0.779D-02 0.222D-01 0.570D+00
 Coeff:     -0.162D+00-0.152D+01 0.299D+01 0.184D+00 0.743D-01-0.158D+01
 Coeff:      0.573D+00-0.110D+00
 Gap=     0.049 Goal=   None    Shift=    0.000
 Gap=     0.038 Goal=   None    Shift=    0.000
 RMSDP=1.41D-04 MaxDP=8.31D-03 DE= 3.77D-05 OVMax= 4.80D-02

 >>>>>>>>>> Convergence criterion not met.
 Error on total polarization charges =  0.01008
 SCF Done:  E(UB3LYP) =  -881.648100561     A.U. after  129 cycles
            NFock=128  Conv=0.14D-03     -V/T= 2.0095
 <Sx>= 0.0000 <Sy>= 0.0000 <Sz>= 0.0000 <S**2>= 0.9640 S= 0.6018
 <L.S>=  0.00000000000    
 KE= 8.733216703742D+02 PE=-5.237629526854D+03 EE= 1.888804660470D+03
 Annihilation of the first spin contaminant:
 S**2 before annihilation     0.9640,   after     0.2549
 Convergence failure -- run terminated.
 Error termination via Lnk1e in /project/6004141/group/g16/g16/l502.exe at Sun Jun  2 23:35:23 2019.
 Job cpu time:       0 days  7 hours 24 minutes 22.0 seconds.
 Elapsed time:       0 days  0 hours 11 minutes 18.1 seconds.
 File lengths (MBytes):  RWF=    408 Int=      0 D2E=      0 Chk=     26 Scr=      2
Error: segmentation violation
   rax 0000000000000000, rbx ffffffffffffffff, rcx ffffffffffffffff
   rdx 0000000000025330, rsp 00007ffe6c9af358, rbp 00007ffe6c9af8d0
   rsi 000000000000000b, rdi 0000000000025330, r8  0000000000000020
   r9  0000000000000401, r10 00007ffe6c9ae760, r11 0000000000000202
   r12 00007ffe6c9af918, r13 0000000000000000, r14 0000000000000000
   r15 00000000000003e6
  /lib64/libpthread.so.0(+0xf5d0) [0x2b7c970555d0]
  /lib64/libc.so.6(kill+0x7) [0x2b7c9759a4d7]
  /project/6004141/group/g16/g16/l502.exe() [0x4afeb9]
  /project/6004141/group/g16/g16/l502.exe() [0x4d1e0a]
  /project/6004141/group/g16/g16/l502.exe() [0x54e80c]
  /project/6004141/group/g16/g16/l502.exe() [0x52d7bf]
  /project/6004141/group/g16/g16/l502.exe() [0x4529db]
  /project/6004141/group/g16/g16/l502.exe() [0x450c2b]
  /project/6004141/group/g16/g16/l502.exe() [0x450b34]
  /lib64/libc.so.6(__libc_start_main+0xf5) [0x2b7c975863d5]
  /project/6004141/group/g16/g16/l502.exe() [0x450a29]
