 Entering Gaussian System, Link 0=g16
 Initial command:
 /opt/software/gaussian/g16.b01/l1.exe "/localscratch/hpham196.14893219.0/Gau-25813.inp" -scrdir="/localscratch/hpham196.14893219.0/"
 Entering Link 1 = /opt/software/gaussian/g16.b01/l1.exe PID=     25818.
  
 Copyright (c) 1988-2017, Gaussian, Inc.  All Rights Reserved.
  
 This is part of the Gaussian(R) 16 program.  It is based on
 the Gaussian(R) 09 system (copyright 2009, Gaussian, Inc.),
 the Gaussian(R) 03 system (copyright 2003, Gaussian, Inc.),
 the Gaussian(R) 98 system (copyright 1998, Gaussian, Inc.),
 the Gaussian(R) 94 system (copyright 1995, Gaussian, Inc.),
 the Gaussian 92(TM) system (copyright 1992, Gaussian, Inc.),
 the Gaussian 90(TM) system (copyright 1990, Gaussian, Inc.),
 the Gaussian 88(TM) system (copyright 1988, Gaussian, Inc.),
 the Gaussian 86(TM) system (copyright 1986, Carnegie Mellon
 University), and the Gaussian 82(TM) system (copyright 1983,
 Carnegie Mellon University). Gaussian is a federally registered
 trademark of Gaussian, Inc.
  
 This software contains proprietary and confidential information,
 including trade secrets, belonging to Gaussian, Inc.
  
 This software is provided under written license and may be
 used, copied, transmitted, or stored only in accord with that
 written license.
  
 The following legend is applicable only to US Government
 contracts under FAR:
  
                    RESTRICTED RIGHTS LEGEND
  
 Use, reproduction and disclosure by the US Government is
 subject to restrictions as set forth in subparagraphs (a)
 and (c) of the Commercial Computer Software - Restricted
 Rights clause in FAR 52.227-19.
  
 Gaussian, Inc.
 340 Quinnipiac St., Bldg. 40, Wallingford CT 06492
  
  
 ---------------------------------------------------------------
 Warning -- This program may not be used in any manner that
 competes with the business of Gaussian, Inc. or will provide
 assistance to any competitor of Gaussian, Inc.  The licensee
 of this program is prohibited from giving any competitor of
 Gaussian, Inc. access to this program.  By using this program,
 the user acknowledges that Gaussian, Inc. is engaged in the
 business of creating and licensing software in the field of
 computational chemistry and represents and warrants to the
 licensee that it is not a competitor of Gaussian, Inc. and that
 it will not use this program in any manner prohibited above.
 ---------------------------------------------------------------
  

 Cite this work as:
 Gaussian 16, Revision B.01,
 M. J. Frisch, G. W. Trucks, H. B. Schlegel, G. E. Scuseria, 
 M. A. Robb, J. R. Cheeseman, G. Scalmani, V. Barone, 
 G. A. Petersson, H. Nakatsuji, X. Li, M. Caricato, A. V. Marenich, 
 J. Bloino, B. G. Janesko, R. Gomperts, B. Mennucci, H. P. Hratchian, 
 J. V. Ortiz, A. F. Izmaylov, J. L. Sonnenberg, D. Williams-Young, 
 F. Ding, F. Lipparini, F. Egidi, J. Goings, B. Peng, A. Petrone, 
 T. Henderson, D. Ranasinghe, V. G. Zakrzewski, J. Gao, N. Rega, 
 G. Zheng, W. Liang, M. Hada, M. Ehara, K. Toyota, R. Fukuda, 
 J. Hasegawa, M. Ishida, T. Nakajima, Y. Honda, O. Kitao, H. Nakai, 
 T. Vreven, K. Throssell, J. A. Montgomery, Jr., J. E. Peralta, 
 F. Ogliaro, M. J. Bearpark, J. J. Heyd, E. N. Brothers, K. N. Kudin, 
 V. N. Staroverov, T. A. Keith, R. Kobayashi, J. Normand, 
 K. Raghavachari, A. P. Rendell, J. C. Burant, S. S. Iyengar, 
 J. Tomasi, M. Cossi, J. M. Millam, M. Klene, C. Adamo, R. Cammi, 
 J. W. Ochterski, R. L. Martin, K. Morokuma, O. Farkas, 
 J. B. Foresman, and D. J. Fox, Gaussian, Inc., Wallingford CT, 2016.
 
 ******************************************
 Gaussian 16:  ES64L-G16RevB.01 20-Dec-2017
                17-May-2019 
 ******************************************
 %NProcShared=32
 Will use up to   32 processors via shared memory.
 %chk=AH-BnoH-opt.chk
 ----------------------------------------------------------------------
 #p opt freq rb3lyp/6-31g(d,p) scrf=(iefpcm,solvent=acetonitrile) empir
 icaldispersion=gd3
 ----------------------------------------------------------------------
 1/18=20,19=15,26=3,38=1/1,3;
 2/9=110,12=2,17=6,18=5,40=1/2;
 3/5=1,6=6,7=101,11=2,25=1,30=1,70=2201,71=1,72=2,74=-5,116=1,124=31/1,2,3;
 4//1;
 5/5=2,38=5,53=2/2;
 6/7=2,8=2,9=2,10=2,28=1/1;
 7//1,2,3,16;
 1/18=20,19=15,26=3/3(2);
 2/9=110/2;
 99//99;
 2/9=110/2;
 3/5=1,6=6,7=101,11=2,25=1,30=1,70=2205,71=1,72=2,74=-5,116=1,124=31/1,2,3;
 4/5=5,16=3,69=1/1;
 5/5=2,38=5,53=2/2;
 7//1,2,3,16;
 1/18=20,19=15,26=3/3(-5);
 2/9=110/2;
 6/7=2,8=2,9=2,10=2,19=2,28=1/1;
 99/9=1/99;
 Leave Link    1 at Fri May 17 16:10:20 2019, MaxMem=           0 cpu:               3.6 elap:               0.1
 (Enter /opt/software/gaussian/g16.b01/l101.exe)
 -------------------
 Title Card Required
 -------------------
 Symbolic Z-matrix:
 Charge =  0 Multiplicity = 1
 C                    -0.06092  -1.87351   0.64592 
 O                    -0.68654  -2.51634  -0.19389 
 C                    -0.59005  -1.74531   2.05864 
 H                     0.12902  -2.14462   2.7813 
 H                    -0.75885  -0.69332   2.30681 
 H                    -1.53158  -2.28871   2.1346 
 C                     1.22381  -1.19957   0.28792 
 C                     1.72564  -1.36192  -1.01417 
 C                     1.92687  -0.39486   1.19652 
 C                     2.90394  -0.73274  -1.40071 
 H                     1.16988  -1.98251  -1.70864 
 C                     3.10693   0.2391    0.80759 
 H                     1.55395  -0.24763   2.20364 
 C                     3.59663   0.07185  -0.48896 
 H                     3.28387  -0.86304  -2.40944 
 H                     3.64045   0.86639   1.51483 
 H                     4.51471   0.56743  -0.79033 
 H                    -0.21537  -3.02473  -0.85807 
 N                     1.98431  -5.30776   0.12699 
 H                     2.31763  -6.25057   0.12699 
 H                     2.31765  -4.83636   0.94349 
 N                     2.45099  -4.6478   -1.0161 
 H                     2.11914  -5.12025  -1.8326 
 
 Add virtual bond connecting atoms N22        and H11        Dist= 5.74D+00.
 Add virtual bond connecting atoms N22        and H18        Dist= 5.91D+00.
 ITRead=  0  0  0  0  0  0  0  0  0  0  0  0  0  0  0  0  0  0  0  0
 ITRead=  0  0  0
 MicOpt= -1 -1 -1 -1 -1 -1 -1 -1 -1 -1 -1 -1 -1 -1 -1 -1 -1 -1 -1 -1
 MicOpt= -1 -1 -1
 NAtoms=     23 NQM=       23 NQMF=       0 NMMI=      0 NMMIF=      0
                NMic=       0 NMicF=      0.
                    Isotopes and Nuclear Properties:
 (Nuclear quadrupole moments (NQMom) in fm**2, nuclear magnetic moments (NMagM)
  in nuclear magnetons)

  Atom         1           2           3           4           5           6           7           8           9          10
 IAtWgt=          12          16          12           1           1           1          12          12          12          12
 AtmWgt=  12.0000000  15.9949146  12.0000000   1.0078250   1.0078250   1.0078250  12.0000000  12.0000000  12.0000000  12.0000000
 NucSpn=           0           0           0           1           1           1           0           0           0           0
 AtZEff=  -0.0000000  -0.0000000  -0.0000000  -0.0000000  -0.0000000  -0.0000000  -0.0000000  -0.0000000  -0.0000000  -0.0000000
 NQMom=    0.0000000   0.0000000   0.0000000   0.0000000   0.0000000   0.0000000   0.0000000   0.0000000   0.0000000   0.0000000
 NMagM=    0.0000000   0.0000000   0.0000000   2.7928460   2.7928460   2.7928460   0.0000000   0.0000000   0.0000000   0.0000000
 AtZNuc=   6.0000000   8.0000000   6.0000000   1.0000000   1.0000000   1.0000000   6.0000000   6.0000000   6.0000000   6.0000000

  Atom        11          12          13          14          15          16          17          18          19          20
 IAtWgt=           1          12           1          12           1           1           1           1          14           1
 AtmWgt=   1.0078250  12.0000000   1.0078250  12.0000000   1.0078250   1.0078250   1.0078250   1.0078250  14.0030740   1.0078250
 NucSpn=           1           0           1           0           1           1           1           1           2           1
 AtZEff=  -0.0000000  -0.0000000  -0.0000000  -0.0000000  -0.0000000  -0.0000000  -0.0000000  -0.0000000  -0.0000000  -0.0000000
 NQMom=    0.0000000   0.0000000   0.0000000   0.0000000   0.0000000   0.0000000   0.0000000   0.0000000   2.0440000   0.0000000
 NMagM=    2.7928460   0.0000000   2.7928460   0.0000000   2.7928460   2.7928460   2.7928460   2.7928460   0.4037610   2.7928460
 AtZNuc=   1.0000000   6.0000000   1.0000000   6.0000000   1.0000000   1.0000000   1.0000000   1.0000000   7.0000000   1.0000000

  Atom        21          22          23
 IAtWgt=           1          14           1
 AtmWgt=   1.0078250  14.0030740   1.0078250
 NucSpn=           1           2           1
 AtZEff=  -0.0000000  -0.0000000  -0.0000000
 NQMom=    0.0000000   2.0440000   0.0000000
 NMagM=    2.7928460   0.4037610   2.7928460
 AtZNuc=   1.0000000   7.0000000   1.0000000
 Leave Link  101 at Fri May 17 16:10:21 2019, MaxMem=   104857600 cpu:               5.7 elap:               0.2
 (Enter /opt/software/gaussian/g16.b01/l103.exe)

 GradGradGradGradGradGradGradGradGradGradGradGradGradGradGradGradGradGrad
 Berny optimization.
 Initialization pass.
                           ----------------------------
                           !    Initial Parameters    !
                           ! (Angstroms and Degrees)  !
 --------------------------                            --------------------------
 ! Name  Definition              Value          Derivative Info.                !
 --------------------------------------------------------------------------------
 ! R1    R(1,2)                  1.2288         estimate D2E/DX2                !
 ! R2    R(1,3)                  1.514          estimate D2E/DX2                !
 ! R3    R(1,7)                  1.4943         estimate D2E/DX2                !
 ! R4    R(2,18)                 0.96           estimate D2E/DX2                !
 ! R5    R(3,4)                  1.0949         estimate D2E/DX2                !
 ! R6    R(3,5)                  1.094          estimate D2E/DX2                !
 ! R7    R(3,6)                  1.0897         estimate D2E/DX2                !
 ! R8    R(7,8)                  1.4049         estimate D2E/DX2                !
 ! R9    R(7,9)                  1.4026         estimate D2E/DX2                !
 ! R10   R(8,10)                 1.3906         estimate D2E/DX2                !
 ! R11   R(8,11)                 1.0846         estimate D2E/DX2                !
 ! R12   R(9,12)                 1.3949         estimate D2E/DX2                !
 ! R13   R(9,13)                 1.084          estimate D2E/DX2                !
 ! R14   R(10,14)                1.3994         estimate D2E/DX2                !
 ! R15   R(10,15)                1.0858         estimate D2E/DX2                !
 ! R16   R(11,22)                3.0372         estimate D2E/DX2                !
 ! R17   R(12,14)                1.396          estimate D2E/DX2                !
 ! R18   R(12,16)                1.0855         estimate D2E/DX2                !
 ! R19   R(14,17)                1.086          estimate D2E/DX2                !
 ! R20   R(18,22)                3.1255         estimate D2E/DX2                !
 ! R21   R(19,20)                1.0            estimate D2E/DX2                !
 ! R22   R(19,21)                1.0            estimate D2E/DX2                !
 ! R23   R(19,22)                1.4            estimate D2E/DX2                !
 ! R24   R(22,23)                1.0            estimate D2E/DX2                !
 ! A1    A(2,1,3)              120.2708         estimate D2E/DX2                !
 ! A2    A(2,1,7)              120.6602         estimate D2E/DX2                !
 ! A3    A(3,1,7)              119.0674         estimate D2E/DX2                !
 ! A4    A(1,2,18)             120.0            estimate D2E/DX2                !
 ! A5    A(1,3,4)              110.8223         estimate D2E/DX2                !
 ! A6    A(1,3,5)              110.3057         estimate D2E/DX2                !
 ! A7    A(1,3,6)              108.9518         estimate D2E/DX2                !
 ! A8    A(4,3,5)              107.5977         estimate D2E/DX2                !
 ! A9    A(4,3,6)              109.8506         estimate D2E/DX2                !
 ! A10   A(5,3,6)              109.2923         estimate D2E/DX2                !
 ! A11   A(1,7,8)              118.4924         estimate D2E/DX2                !
 ! A12   A(1,7,9)              122.31           estimate D2E/DX2                !
 ! A13   A(8,7,9)              119.1863         estimate D2E/DX2                !
 ! A14   A(7,8,10)             120.5326         estimate D2E/DX2                !
 ! A15   A(7,8,11)             118.4612         estimate D2E/DX2                !
 ! A16   A(10,8,11)            121.0052         estimate D2E/DX2                !
 ! A17   A(7,9,12)             120.2758         estimate D2E/DX2                !
 ! A18   A(7,9,13)             120.4859         estimate D2E/DX2                !
 ! A19   A(12,9,13)            119.2334         estimate D2E/DX2                !
 ! A20   A(8,10,14)            119.8975         estimate D2E/DX2                !
 ! A21   A(8,10,15)            120.0305         estimate D2E/DX2                !
 ! A22   A(14,10,15)           120.0716         estimate D2E/DX2                !
 ! A23   A(8,11,22)             98.0468         estimate D2E/DX2                !
 ! A24   A(9,12,14)            120.0845         estimate D2E/DX2                !
 ! A25   A(9,12,16)            119.7866         estimate D2E/DX2                !
 ! A26   A(14,12,16)           120.1283         estimate D2E/DX2                !
 ! A27   A(10,14,12)           120.0228         estimate D2E/DX2                !
 ! A28   A(10,14,17)           120.002          estimate D2E/DX2                !
 ! A29   A(12,14,17)           119.9752         estimate D2E/DX2                !
 ! A30   A(2,18,22)            136.7769         estimate D2E/DX2                !
 ! A31   A(20,19,21)           109.4712         estimate D2E/DX2                !
 ! A32   A(20,19,22)           109.4712         estimate D2E/DX2                !
 ! A33   A(21,19,22)           109.4713         estimate D2E/DX2                !
 ! A34   A(11,22,18)            36.4844         estimate D2E/DX2                !
 ! A35   A(11,22,19)           117.3385         estimate D2E/DX2                !
 ! A36   A(11,22,23)            95.0746         estimate D2E/DX2                !
 ! A37   A(18,22,19)            85.3621         estimate D2E/DX2                !
 ! A38   A(18,22,23)            90.2024         estimate D2E/DX2                !
 ! A39   A(19,22,23)           109.4712         estimate D2E/DX2                !
 ! D1    D(3,1,2,18)          -144.6307         estimate D2E/DX2                !
 ! D2    D(7,1,2,18)            35.8472         estimate D2E/DX2                !
 ! D3    D(2,1,3,4)            120.9782         estimate D2E/DX2                !
 ! D4    D(2,1,3,5)           -119.9691         estimate D2E/DX2                !
 ! D5    D(2,1,3,6)              0.0            estimate D2E/DX2                !
 ! D6    D(7,1,3,4)            -59.4921         estimate D2E/DX2                !
 ! D7    D(7,1,3,5)             59.5606         estimate D2E/DX2                !
 ! D8    D(7,1,3,6)            179.5297         estimate D2E/DX2                !
 ! D9    D(2,1,7,8)             -2.4894         estimate D2E/DX2                !
 ! D10   D(2,1,7,9)            176.2807         estimate D2E/DX2                !
 ! D11   D(3,1,7,8)            177.9828         estimate D2E/DX2                !
 ! D12   D(3,1,7,9)             -3.2471         estimate D2E/DX2                !
 ! D13   D(1,2,18,22)           33.8657         estimate D2E/DX2                !
 ! D14   D(1,7,8,10)           178.7464         estimate D2E/DX2                !
 ! D15   D(1,7,8,11)            -0.8769         estimate D2E/DX2                !
 ! D16   D(9,7,8,10)            -0.063          estimate D2E/DX2                !
 ! D17   D(9,7,8,11)          -179.6863         estimate D2E/DX2                !
 ! D18   D(1,7,9,12)          -178.5279         estimate D2E/DX2                !
 ! D19   D(1,7,9,13)             0.6679         estimate D2E/DX2                !
 ! D20   D(8,7,9,12)             0.234          estimate D2E/DX2                !
 ! D21   D(8,7,9,13)           179.4298         estimate D2E/DX2                !
 ! D22   D(7,8,10,14)           -0.1436         estimate D2E/DX2                !
 ! D23   D(7,8,10,15)         -179.9374         estimate D2E/DX2                !
 ! D24   D(11,8,10,14)         179.47           estimate D2E/DX2                !
 ! D25   D(11,8,10,15)          -0.3239         estimate D2E/DX2                !
 ! D26   D(7,8,11,22)          -88.2909         estimate D2E/DX2                !
 ! D27   D(10,8,11,22)          92.0877         estimate D2E/DX2                !
 ! D28   D(7,9,12,14)           -0.1983         estimate D2E/DX2                !
 ! D29   D(7,9,12,16)          179.5158         estimate D2E/DX2                !
 ! D30   D(13,9,12,14)        -179.4041         estimate D2E/DX2                !
 ! D31   D(13,9,12,16)           0.31           estimate D2E/DX2                !
 ! D32   D(8,10,14,12)           0.1808         estimate D2E/DX2                !
 ! D33   D(8,10,14,17)        -179.737          estimate D2E/DX2                !
 ! D34   D(15,10,14,12)        179.9746         estimate D2E/DX2                !
 ! D35   D(15,10,14,17)          0.0567         estimate D2E/DX2                !
 ! D36   D(8,11,22,18)         111.9613         estimate D2E/DX2                !
 ! D37   D(8,11,22,19)          80.4082         estimate D2E/DX2                !
 ! D38   D(8,11,22,23)        -164.591          estimate D2E/DX2                !
 ! D39   D(9,12,14,10)          -0.0103         estimate D2E/DX2                !
 ! D40   D(9,12,14,17)         179.9076         estimate D2E/DX2                !
 ! D41   D(16,12,14,10)       -179.7235         estimate D2E/DX2                !
 ! D42   D(16,12,14,17)          0.1944         estimate D2E/DX2                !
 ! D43   D(2,18,22,11)        -100.1678         estimate D2E/DX2                !
 ! D44   D(2,18,22,19)          52.0334         estimate D2E/DX2                !
 ! D45   D(2,18,22,23)         161.5538         estimate D2E/DX2                !
 ! D46   D(20,19,22,11)        166.6509         estimate D2E/DX2                !
 ! D47   D(20,19,22,18)        148.4608         estimate D2E/DX2                !
 ! D48   D(20,19,22,23)         59.8889         estimate D2E/DX2                !
 ! D49   D(21,19,22,11)        -73.3491         estimate D2E/DX2                !
 ! D50   D(21,19,22,18)        -91.5392         estimate D2E/DX2                !
 ! D51   D(21,19,22,23)        179.8889         estimate D2E/DX2                !
 --------------------------------------------------------------------------------
 Trust Radius=3.00D-01 FncErr=1.00D-07 GrdErr=1.00D-06 EigMax=2.50D+02 EigMin=1.00D-04
 Number of steps in this run=    124 maximum allowed number of steps=    138.
 GradGradGradGradGradGradGradGradGradGradGradGradGradGradGradGradGradGrad

 Leave Link  103 at Fri May 17 16:10:21 2019, MaxMem=   104857600 cpu:               2.1 elap:               0.1
 (Enter /opt/software/gaussian/g16.b01/l202.exe)
                          Input orientation:                          
 ---------------------------------------------------------------------
 Center     Atomic      Atomic             Coordinates (Angstroms)
 Number     Number       Type             X           Y           Z
 ---------------------------------------------------------------------
      1          6           0       -0.060921   -1.873512    0.645917
      2          8           0       -0.686544   -2.516338   -0.193889
      3          6           0       -0.590049   -1.745309    2.058644
      4          1           0        0.129016   -2.144621    2.781296
      5          1           0       -0.758850   -0.693322    2.306807
      6          1           0       -1.531584   -2.288709    2.134602
      7          6           0        1.223811   -1.199566    0.287918
      8          6           0        1.725636   -1.361920   -1.014173
      9          6           0        1.926867   -0.394857    1.196524
     10          6           0        2.903939   -0.732737   -1.400711
     11          1           0        1.169876   -1.982506   -1.708641
     12          6           0        3.106927    0.239095    0.807591
     13          1           0        1.553948   -0.247629    2.203638
     14          6           0        3.596626    0.071845   -0.488962
     15          1           0        3.283870   -0.863037   -2.409441
     16          1           0        3.640448    0.866394    1.514832
     17          1           0        4.514708    0.567430   -0.790326
     18          1           0       -0.215373   -3.024731   -0.858068
     19          7           0        1.984311   -5.307757    0.126991
     20          1           0        2.317633   -6.250571    0.126991
     21          1           0        2.317651   -4.836357    0.943488
     22          7           0        2.450986   -4.647797   -1.016104
     23          1           0        2.119141   -5.120253   -1.832599
 ---------------------------------------------------------------------
                    Distance matrix (angstroms):
                    1          2          3          4          5
     1  C    0.000000
     2  O    1.228781   0.000000
     3  C    1.514005   2.382793   0.000000
     4  H    2.160884   3.107256   1.094865   0.000000
     5  H    2.153720   3.095496   1.093963   1.766271   0.000000
     6  H    2.133406   2.487524   1.089744   1.787895   1.781020
     7  C    1.494290   2.369701   2.592951   2.882471   2.874568
     8  C    2.491869   2.797170   3.866728   4.191348   4.201024
     9  C    2.537891   3.641956   2.983595   2.967397   2.921453
    10  C    3.778948   4.186791   5.019999   5.213712   5.211839
    11  H    2.659076   2.454739   4.164857   4.611855   4.637435
    12  C    3.811103   4.794350   4.378427   4.294830   4.249857
    13  H    2.770883   3.989358   2.619311   2.441864   2.357609
    14  C    4.295348   5.013113   5.226910   5.256579   5.231823
    15  H    4.641541   4.838002   5.979083   6.208004   6.214128
    16  H    4.686388   5.751996   5.001383   4.795862   4.734317
    17  H    5.381205   6.076050   6.286806   6.272639   6.244369
    18  H    1.900298   0.960000   3.206948   3.760076   3.968283
    19  N    4.030670   3.876655   4.801005   4.526907   5.793923
    20  H    5.008537   4.803388   5.699410   5.356697   6.715605
    21  H    3.811116   3.962487   4.387809   3.925952   5.337437
    22  N    4.094954   3.881140   5.208302   5.106631   6.081337
    23  H    4.630015   4.163845   5.819942   5.839778   6.709339
                    6          7          8          9         10
     6  H    0.000000
     7  C    3.491228   0.000000
     8  C    4.624198   1.404859   0.000000
     9  C    4.053091   1.402644   2.421340   0.000000
    10  C    5.881611   2.427391   1.390569   2.795436   0.000000
    11  H    4.707671   2.145263   1.084565   3.396123   2.159564
    12  C    5.446700   2.426094   2.791064   1.394886   2.421210
    13  H    3.700173   2.164522   3.409608   1.083985   3.879322
    14  C    6.225258   2.801835   2.414981   2.418009   1.399448
    15  H    6.772700   3.410695   2.150291   3.881190   1.085754
    16  H    6.090050   3.407880   3.876565   2.151380   3.405886
    17  H    7.298656   3.887787   3.398738   3.401542   2.158143
    18  H    3.351151   2.591479   2.560630   3.965701   3.908684
    19  N    5.050413   4.181088   4.115678   5.028299   4.910234
    20  H    5.877357   5.170589   5.054861   5.965399   5.755355
    21  H    4.767166   3.853895   4.031703   4.465833   4.762216
    22  N    5.599385   3.885451   3.364985   4.822647   3.959897
    23  H    6.089673   4.546426   3.866488   5.616219   4.478027
                   11         12         13         14         15
    11  H    0.000000
    12  C    3.875448   0.000000
    13  H    4.296887   2.144199   0.000000
    14  C    3.405450   1.396004   3.394804   0.000000
    15  H    2.492650   3.405187   4.965063   2.158717   0.000000
    16  H    4.960921   1.085513   2.463531   2.156019   4.303254
    17  H    4.305041   2.154760   4.288851   1.085955   2.486510
    18  H    1.930964   4.946177   4.496314   4.925075   4.395951
    19  N    3.884604   5.700092   5.486581   5.649697   5.279951
    20  H    4.785736   6.572820   6.397733   6.479827   6.032630
    21  H    4.061483   5.138253   4.819507   5.270497   5.288004
    22  N    3.037207   5.257170   5.525658   4.885222   4.118191
    23  H    3.280537   6.055488   6.352410   5.562931   4.451205
                   16         17         18         19         20
    16  H    0.000000
    17  H    2.483438   0.000000
    18  H    5.969830   5.939855   0.000000
    19  N    6.541333   6.462368   3.319814   0.000000
    20  H    7.370694   7.221755   4.218116   1.000000   0.000000
    21  H    5.881972   6.085564   3.597750   1.000000   1.632993
    22  N    6.182779   5.613245   3.125506   1.400000   1.973153
    23  H    7.025639   6.258978   3.284947   1.973153   2.270906
                   21         22         23
    21  H    0.000000
    22  N    1.973153   0.000000
    23  H    2.797618   1.000000   0.000000
 Stoichiometry    C8H12N2O
 Framework group  C1[X(C8H12N2O)]
 Deg. of freedom    63
 Full point group                 C1      NOp   1
 Largest Abelian subgroup         C1      NOp   1
 Largest concise Abelian subgroup C1      NOp   1
                         Standard orientation:                         
 ---------------------------------------------------------------------
 Center     Atomic      Atomic             Coordinates (Angstroms)
 Number     Number       Type             X           Y           Z
 ---------------------------------------------------------------------
      1          6           0        0.509423    1.572111    0.388927
      2          8           0        1.367087    1.414985    1.254737
      3          6           0        0.523357    2.809422   -0.483471
      4          1           0        0.608560    2.539050   -1.541001
      5          1           0       -0.406874    3.371665   -0.359747
      6          1           0        1.365109    3.437690   -0.193171
      7          6           0       -0.566011    0.554270    0.188066
      8          6           0       -0.542724   -0.609459    0.974717
      9          6           0       -1.605180    0.734081   -0.736707
     10          6           0       -1.537058   -1.572363    0.841311
     11          1           0        0.263299   -0.734032    1.689624
     12          6           0       -2.604496   -0.230210   -0.867917
     13          1           0       -1.648848    1.628275   -1.347881
     14          6           0       -2.572511   -1.382721   -0.080821
     15          1           0       -1.511627   -2.468248    1.454177
     16          1           0       -3.409303   -0.079253   -1.580543
     17          1           0       -3.352237   -2.131595   -0.183368
     18          1           0        1.698516    0.534972    1.447952
     19          7           0        2.997985   -1.269977   -1.016740
     20          1           0        3.757408   -1.792274   -1.404661
     21          1           0        2.406057   -0.944721   -1.754189
     22          7           0        2.260771   -2.089455   -0.153623
     23          1           0        2.853147   -2.416172    0.582819
 ---------------------------------------------------------------------
 Rotational constants (GHZ):           1.0937713           0.8117118           0.5708827
 Leave Link  202 at Fri May 17 16:10:21 2019, MaxMem=   104857600 cpu:               3.1 elap:               0.1
 (Enter /opt/software/gaussian/g16.b01/l301.exe)
 Standard basis: 6-31G(d,p) (6D, 7F)
 Ernie: Thresh=  0.10000D-02 Tol=  0.10000D-05 Strict=F.
 There are   225 symmetry adapted cartesian basis functions of A   symmetry.
 There are   225 symmetry adapted basis functions of A   symmetry.
   225 basis functions,   392 primitive gaussians,   225 cartesian basis functions
    41 alpha electrons       41 beta electrons
       nuclear repulsion energy       579.3475968730 Hartrees.
 IExCor=  402 DFT=T Ex+Corr=B3LYP ExCW=0 ScaHFX=  0.200000
 ScaDFX=  0.800000  0.720000  1.000000  0.810000 ScalE2=  1.000000  1.000000
 IRadAn=      5 IRanWt=     -1 IRanGd=            0 ICorTp=0 IEmpDi=131
 NAtoms=   23 NActive=   23 NUniq=   23 SFac= 1.00D+00 NAtFMM=   60 NAOKFM=F Big=F
 Integral buffers will be    131072 words long.
 Raffenetti 2 integral format.
 Two-electron integral symmetry is turned on.
 R6Disp:  Grimme-D3 Dispersion energy=       -0.0159558921 Hartrees.
 Nuclear repulsion after empirical dispersion term =      579.3316409809 Hartrees.
 ------------------------------------------------------------------------------
 Polarizable Continuum Model (PCM)
 =================================
 Model                : PCM.
 Atomic radii         : UFF (Universal Force Field).
 Polarization charges : Total charges.
 Charge compensation  : None.
 Solution method      : On-the-fly selection.
 Cavity type          : Scaled VdW (van der Waals Surface) (Alpha=1.100).
 Cavity algorithm     : GePol (No added spheres)
                        Default sphere list used, NSphG=   23.
                        Lebedev-Laikov grids with approx.  5.0 points / Ang**2.
                        Smoothing algorithm: York/Karplus (Gamma=1.0000).
                        Polarization charges: spherical gaussians, with
                                              point-specific exponents (IZeta= 3).
                        Self-potential: point-specific (ISelfS= 7).
                        Self-field    : sphere-specific E.n sum rule (ISelfD= 2).
 1st derivatives      : Analytical E(r).r(x)/FMM algorithm (CHGder, D1EAlg=3).
                        Cavity 1st derivative terms included.
 Solvent              : Acetonitrile, Eps=  35.688000 Eps(inf)=   1.806874
 ------------------------------------------------------------------------------
 GePol: Number of generator spheres                  =      23
 GePol: Total number of spheres                      =      23
 GePol: Number of exposed spheres                    =      23 (100.00%)
 GePol: Number of points                             =    1898
 GePol: Average weight of points                     =       0.13
 GePol: Minimum weight of points                     =   0.99D-11
 GePol: Maximum weight of points                     =    0.20577
 GePol: Number of points with low weight             =     108
 GePol: Fraction of low-weight points (<1% of avg)   =       5.69%
 GePol: Cavity surface area                          =    254.219 Ang**2
 GePol: Cavity volume                                =    249.613 Ang**3
 Leave Link  301 at Fri May 17 16:10:22 2019, MaxMem=   104857600 cpu:               3.8 elap:               0.2
 (Enter /opt/software/gaussian/g16.b01/l302.exe)
 NPDir=0 NMtPBC=     1 NCelOv=     1 NCel=       1 NClECP=     1 NCelD=      1
         NCelK=      1 NCelE2=     1 NClLst=     1 CellRange=     0.0.
 One-electron integrals computed using PRISM.
 One-electron integral symmetry used in STVInt
 PrsmSu:  requested number of processors reduced to:  29 ShMem   1 Linda.
 NBasis=   225 RedAO= T EigKep=  4.66D-04  NBF=   225
 NBsUse=   225 1.00D-06 EigRej= -1.00D+00 NBFU=   225
 Precomputing XC quadrature grid using
 IXCGrd= 4 IRadAn=           5 IRanWt=          -1 IRanGd=           0 AccXCQ= 0.00D+00.
 Generated NRdTot=       0 NPtTot=           0 NUsed=           0 NTot=          32
 NSgBfM=   225   225   225   225   225 MxSgAt=    23 MxSgA2=    23.
 Leave Link  302 at Fri May 17 16:10:22 2019, MaxMem=   104857600 cpu:               8.4 elap:               0.3
 (Enter /opt/software/gaussian/g16.b01/l303.exe)
 DipDrv:  MaxL=1.
 Leave Link  303 at Fri May 17 16:10:22 2019, MaxMem=   104857600 cpu:               2.6 elap:               0.1
 (Enter /opt/software/gaussian/g16.b01/l401.exe)
 ExpMin= 1.61D-01 ExpMax= 5.48D+03 ExpMxC= 8.25D+02 IAcc=3 IRadAn=         5 AccDes= 0.00D+00
 Harris functional with IExCor=  402 and IRadAn=       5 diagonalized for initial guess.
 HarFok:  IExCor=  402 AccDes= 0.00D+00 IRadAn=         5 IDoV= 1 UseB2=F ITyADJ=14
 ICtDFT=  3500011 ScaDFX=  1.000000  1.000000  1.000000  1.000000
 FoFCou: FMM=F IPFlag=           0 FMFlag=      100000 FMFlg1=           0
         NFxFlg=           0 DoJE=T BraDBF=F KetDBF=T FulRan=T
         wScrn=  0.000000 ICntrl=       500 IOpCl=  0 I1Cent=   200000004 NGrid=           0
         NMat0=    1 NMatS0=      1 NMatT0=    0 NMatD0=    1 NMtDS0=    0 NMtDT0=    0
 Petite list used in FoFCou.
 Harris En= -496.728176011536    
 JPrj=0 DoOrth=F DoCkMO=F.
 Leave Link  401 at Fri May 17 16:10:23 2019, MaxMem=   104857600 cpu:              16.3 elap:               0.6
 (Enter /opt/software/gaussian/g16.b01/l502.exe)
 Integral symmetry usage will be decided dynamically.
 Closed shell SCF:
 Using DIIS extrapolation, IDIIS=  1040.
 NGot=   104857600 LenX=   104746616 LenY=   104695550
 Requested convergence on RMS density matrix=1.00D-08 within 128 cycles.
 Requested convergence on MAX density matrix=1.00D-06.
 Requested convergence on             energy=1.00D-06.
 No special actions if energy rises.
 Fock matrices will be formed incrementally for  20 cycles.

 Cycle   1  Pass 1  IDiag  1:
 FoFJK:  IHMeth= 1 ICntrl=       0 DoSepK=F KAlg= 0 I1Cent=           0 FoldK=F
 IRaf= 860000000 NMat=       1 IRICut=       1 DoRegI=T DoRafI=F ISym2E= 0 IDoP0=0 IntGTp=1.
 FoFCou: FMM=F IPFlag=           0 FMFlag=      100000 FMFlg1=           0
         NFxFlg=           0 DoJE=F BraDBF=F KetDBF=F FulRan=T
         wScrn=  0.000000 ICntrl=         0 IOpCl=  0 I1Cent=           0 NGrid=           0
         NMat0=    1 NMatS0=      1 NMatT0=    0 NMatD0=    1 NMtDS0=    0 NMtDT0=    0
 Symmetry not used in FoFCou.
 Inv3:  Mode=1 IEnd=    10807212.
 Iteration    1 A*A^-1 deviation from unit magnitude is 3.33D-15 for    391.
 Iteration    1 A*A^-1 deviation from orthogonality  is 2.00D-15 for   1733    827.
 Iteration    1 A^-1*A deviation from unit magnitude is 3.11D-15 for   1263.
 Iteration    1 A^-1*A deviation from orthogonality  is 1.63D-15 for   1449   1419.
 E= -496.241363483080    
 DIIS: error= 3.76D-02 at cycle   1 NSaved=   1.
 NSaved= 1 IEnMin= 1 EnMin= -496.241363483080     IErMin= 1 ErrMin= 3.76D-02
 ErrMax= 3.76D-02  0.00D+00 EMaxC= 1.00D-01 BMatC= 3.84D-01 BMatP= 3.84D-01
 IDIUse=3 WtCom= 6.24D-01 WtEn= 3.76D-01
 Coeff-Com:  0.100D+01
 Coeff-En:   0.100D+01
 Coeff:      0.100D+01
 Gap=    -0.247 Goal=   None    Shift=    0.000
 GapD=   -0.247 DampG=0.250 DampE=0.500 DampFc=0.2500 IDamp=-1.
 Damping current iteration by 2.50D-01
 RMSDP=1.02D-02 MaxDP=3.37D-01              OVMax= 9.16D-01

 Cycle   2  Pass 1  IDiag  1:
 RMSU=  2.52D-03    CP:  9.80D-01
 E= -496.391623133403     Delta-E=       -0.150259650324 Rises=F Damp=T
 DIIS: error= 1.62D-02 at cycle   2 NSaved=   2.
 NSaved= 2 IEnMin= 2 EnMin= -496.391623133403     IErMin= 2 ErrMin= 1.62D-02
 ErrMax= 1.62D-02  0.00D+00 EMaxC= 1.00D-01 BMatC= 8.02D-02 BMatP= 3.84D-01
 IDIUse=3 WtCom= 8.38D-01 WtEn= 1.62D-01
 Coeff-Com: -0.283D+00 0.128D+01
 Coeff-En:   0.871D-01 0.913D+00
 Coeff:     -0.223D+00 0.122D+01
 Gap=     0.179 Goal=   None    Shift=    0.000
 RMSDP=3.25D-03 MaxDP=8.44D-02 DE=-1.50D-01 OVMax= 9.67D-01

 Cycle   3  Pass 1  IDiag  1:
 RMSU=  2.91D-03    CP:  9.64D-01  4.42D-01
 E= -496.454009093101     Delta-E=       -0.062385959697 Rises=F Damp=F
 DIIS: error= 2.04D-02 at cycle   3 NSaved=   3.
 NSaved= 3 IEnMin= 3 EnMin= -496.454009093101     IErMin= 2 ErrMin= 1.62D-02
 ErrMax= 2.04D-02  0.00D+00 EMaxC= 1.00D-01 BMatC= 1.61D-01 BMatP= 8.02D-02
 IDIUse=2 WtCom= 0.00D+00 WtEn= 1.00D+00
 Coeff-En:   0.000D+00 0.380D+00 0.620D+00
 Coeff:      0.000D+00 0.380D+00 0.620D+00
 Gap=    -0.155 Goal=   None    Shift=    0.000
 RMSDP=6.19D-03 MaxDP=2.70D-01 DE=-6.24D-02 OVMax= 9.78D-01

 Cycle   4  Pass 1  IDiag  1:
 RMSU=  3.89D-03    CP:  9.42D-01  1.97D+00  1.10D-02
 E= -495.855131695656     Delta-E=        0.598877397444 Rises=F Damp=F
 DIIS: error= 4.82D-02 at cycle   4 NSaved=   4.
 NSaved= 4 IEnMin= 3 EnMin= -496.454009093101     IErMin= 2 ErrMin= 1.62D-02
 ErrMax= 4.82D-02  0.00D+00 EMaxC= 1.00D-01 BMatC= 5.88D-01 BMatP= 8.02D-02
 IDIUse=2 WtCom= 0.00D+00 WtEn= 1.00D+00
 Coeff-En:   0.000D+00 0.000D+00 0.698D+00 0.302D+00
 Coeff:      0.000D+00 0.000D+00 0.698D+00 0.302D+00
 Gap=     0.180 Goal=   None    Shift=    0.000
 RMSDP=2.98D-03 MaxDP=8.64D-02 DE= 5.99D-01 OVMax= 3.87D-01

 Cycle   5  Pass 1  IDiag  1:
 RMSU=  2.39D-03    CP:  9.49D-01  1.30D+00  1.24D-01  8.80D-01
 E= -496.442630555327     Delta-E=       -0.587498859671 Rises=F Damp=F
 DIIS: error= 2.13D-02 at cycle   5 NSaved=   5.
 NSaved= 5 IEnMin= 3 EnMin= -496.454009093101     IErMin= 2 ErrMin= 1.62D-02
 ErrMax= 2.13D-02  0.00D+00 EMaxC= 1.00D-01 BMatC= 1.29D-01 BMatP= 8.02D-02
 IDIUse=2 WtCom= 0.00D+00 WtEn= 1.00D+00
 Coeff-En:   0.000D+00 0.000D+00 0.508D+00 0.000D+00 0.492D+00
 Coeff:      0.000D+00 0.000D+00 0.508D+00 0.000D+00 0.492D+00
 Gap=    -0.004 Goal=   None    Shift=    0.000
 RMSDP=4.26D-03 MaxDP=1.55D-01 DE=-5.87D-01 OVMax= 7.56D-01

 Cycle   6  Pass 1  IDiag  1:
 RMSU=  1.31D-03    CP:  9.70D-01  5.09D-01  6.46D-01  1.35D-01  4.66D-01
 E= -496.615717925723     Delta-E=       -0.173087370396 Rises=F Damp=F
 DIIS: error= 1.25D-02 at cycle   6 NSaved=   6.
 NSaved= 6 IEnMin= 6 EnMin= -496.615717925723     IErMin= 6 ErrMin= 1.25D-02
 ErrMax= 1.25D-02  0.00D+00 EMaxC= 1.00D-01 BMatC= 2.86D-02 BMatP= 8.02D-02
 IDIUse=3 WtCom= 8.75D-01 WtEn= 1.25D-01
 Coeff-Com: -0.260D+00 0.428D+00 0.144D+00-0.102D+00 0.304D+00 0.486D+00
 Coeff-En:   0.000D+00 0.000D+00 0.000D+00 0.000D+00 0.280D+00 0.720D+00
 Coeff:     -0.228D+00 0.375D+00 0.126D+00-0.893D-01 0.301D+00 0.515D+00
 Gap=     0.020 Goal=   None    Shift=    0.000
 RMSDP=1.34D-03 MaxDP=3.66D-02 DE=-1.73D-01 OVMax= 2.24D-01

 Cycle   7  Pass 1  IDiag  1:
 RMSU=  5.56D-04    CP:  9.65D-01  7.16D-01  5.64D-01  2.89D-01  8.35D-01
                    CP:  1.03D+00
 E= -496.657993549037     Delta-E=       -0.042275623314 Rises=F Damp=F
 DIIS: error= 2.08D-03 at cycle   7 NSaved=   7.
 NSaved= 7 IEnMin= 7 EnMin= -496.657993549037     IErMin= 7 ErrMin= 2.08D-03
 ErrMax= 2.08D-03  0.00D+00 EMaxC= 1.00D-01 BMatC= 2.43D-03 BMatP= 2.86D-02
 IDIUse=3 WtCom= 9.79D-01 WtEn= 2.08D-02
 Coeff-Com: -0.136D+00 0.186D+00 0.149D-01-0.551D-01 0.174D+00 0.302D+00
 Coeff-Com:  0.514D+00
 Coeff-En:   0.000D+00 0.000D+00 0.000D+00 0.000D+00 0.306D-01 0.000D+00
 Coeff-En:   0.969D+00
 Coeff:     -0.133D+00 0.182D+00 0.146D-01-0.539D-01 0.171D+00 0.295D+00
 Coeff:      0.524D+00
 Gap=     0.027 Goal=   None    Shift=    0.000
 RMSDP=4.52D-04 MaxDP=1.51D-02 DE=-4.23D-02 OVMax= 7.23D-02

 Cycle   8  Pass 1  IDiag  1:
 RMSU=  1.46D-04    CP:  9.63D-01  7.98D-01  5.22D-01  3.59D-01  9.17D-01
                    CP:  1.06D+00  8.25D-01
 E= -496.660965969362     Delta-E=       -0.002972420325 Rises=F Damp=F
 DIIS: error= 7.97D-04 at cycle   8 NSaved=   8.
 NSaved= 8 IEnMin= 8 EnMin= -496.660965969362     IErMin= 8 ErrMin= 7.97D-04
 ErrMax= 7.97D-04  0.00D+00 EMaxC= 1.00D-01 BMatC= 2.47D-04 BMatP= 2.43D-03
 IDIUse=3 WtCom= 9.92D-01 WtEn= 7.97D-03
 Coeff-Com: -0.125D-01 0.138D-01-0.271D-02-0.933D-02 0.181D-01 0.617D-01
 Coeff-Com:  0.188D+00 0.743D+00
 Coeff-En:   0.000D+00 0.000D+00 0.000D+00 0.000D+00 0.000D+00 0.000D+00
 Coeff-En:   0.134D+00 0.866D+00
 Coeff:     -0.124D-01 0.136D-01-0.269D-02-0.925D-02 0.179D-01 0.612D-01
 Coeff:      0.188D+00 0.744D+00
 Gap=     0.031 Goal=   None    Shift=    0.000
 RMSDP=1.31D-04 MaxDP=4.49D-03 DE=-2.97D-03 OVMax= 2.18D-02

 Cycle   9  Pass 1  IDiag  1:
 RMSU=  3.83D-05    CP:  9.62D-01  8.16D-01  5.13D-01  3.79D-01  9.47D-01
                    CP:  1.04D+00  8.57D-01  1.06D+00
 E= -496.660312692595     Delta-E=        0.000653276767 Rises=F Damp=F
 DIIS: error= 1.75D-03 at cycle   9 NSaved=   9.
 NSaved= 9 IEnMin= 8 EnMin= -496.660965969362     IErMin= 8 ErrMin= 7.97D-04
 ErrMax= 1.75D-03  0.00D+00 EMaxC= 1.00D-01 BMatC= 6.76D-04 BMatP= 2.47D-04
 IDIUse=3 WtCom= 9.92D-01 WtEn= 7.97D-03
 Rare condition: small coef for last iteration:  0.000D+00
 Coeff-Com:  0.500D-02-0.843D-02-0.649D-02 0.127D-02-0.191D-01 0.569D-01
 Coeff-Com:  0.139D+00 0.275D+00 0.557D+00
 Coeff-En:   0.000D+00 0.000D+00 0.000D+00 0.000D+00 0.000D+00 0.000D+00
 Coeff-En:   0.296D+00 0.000D+00 0.704D+00
 Coeff:      0.500D-02-0.843D-02-0.649D-02 0.127D-02-0.191D-01 0.569D-01
 Coeff:      0.139D+00 0.275D+00 0.557D+00
 Gap=     0.031 Goal=   None    Shift=    0.000
 RMSDP=3.08D-05 MaxDP=7.54D-04 DE= 6.53D-04 OVMax= 4.73D-03

 Cycle  10  Pass 1  IDiag  1:
 RMSU=  1.37D-05    CP:  9.62D-01  8.20D-01  5.10D-01  3.84D-01  9.52D-01
                    CP:  1.03D+00  8.56D-01  1.10D+00  8.53D-01
 E= -496.660090192423     Delta-E=        0.000222500172 Rises=F Damp=F
 DIIS: error= 1.88D-03 at cycle  10 NSaved=  10.
 NSaved=10 IEnMin= 8 EnMin= -496.660965969362     IErMin= 8 ErrMin= 7.97D-04
 ErrMax= 1.88D-03  0.00D+00 EMaxC= 1.00D-01 BMatC= 8.13D-04 BMatP= 2.47D-04
 IDIUse=3 WtCom= 9.92D-01 WtEn= 7.97D-03
 EnCoef did   100 forward-backward iterations
 Rare condition: small coef for last iteration:  0.000D+00
 Coeff-Com:  0.480D-02-0.841D-02-0.887D-02 0.290D-02-0.260D-01 0.765D-01
 Coeff-Com:  0.147D+00 0.237D-01 0.277D+00 0.511D+00
 Coeff-En:   0.000D+00 0.000D+00 0.000D+00 0.000D+00 0.000D+00 0.000D+00
 Coeff-En:   0.330D+00 0.000D+00 0.000D+00 0.670D+00
 Coeff:      0.480D-02-0.841D-02-0.887D-02 0.290D-02-0.260D-01 0.765D-01
 Coeff:      0.147D+00 0.237D-01 0.277D+00 0.511D+00
 Gap=     0.031 Goal=   None    Shift=    0.000
 RMSDP=9.24D-06 MaxDP=2.96D-04 DE= 2.23D-04 OVMax= 1.21D-03

 Cycle  11  Pass 1  IDiag  1:
 RMSU=  3.76D-06    CP:  9.62D-01  8.19D-01  5.11D-01  3.83D-01  9.51D-01
                    CP:  1.03D+00  8.57D-01  1.09D+00  9.43D-01  7.46D-01
 E= -496.660160179401     Delta-E=       -0.000069986978 Rises=F Damp=F
 DIIS: error= 1.84D-03 at cycle  11 NSaved=  11.
 NSaved=11 IEnMin= 8 EnMin= -496.660965969362     IErMin= 8 ErrMin= 7.97D-04
 ErrMax= 1.84D-03  0.00D+00 EMaxC= 1.00D-01 BMatC= 7.65D-04 BMatP= 2.47D-04
 IDIUse=3 WtCom= 9.92D-01 WtEn= 7.97D-03
 EnCoef did   100 forward-backward iterations
 Coeff-Com:  0.488D-02-0.853D-02-0.885D-02 0.290D-02-0.260D-01 0.761D-01
 Coeff-Com:  0.147D+00 0.281D-01 0.293D+00 0.532D+00-0.401D-01
 Coeff-En:   0.000D+00 0.000D+00 0.000D+00 0.000D+00 0.000D+00 0.000D+00
 Coeff-En:   0.135D+00 0.862D+00 0.000D+00 0.000D+00 0.337D-02
 Coeff:      0.484D-02-0.846D-02-0.878D-02 0.288D-02-0.258D-01 0.755D-01
 Coeff:      0.146D+00 0.347D-01 0.290D+00 0.528D+00-0.397D-01
 Gap=     0.031 Goal=   None    Shift=    0.000
 RMSDP=4.98D-06 MaxDP=1.83D-04 DE=-7.00D-05 OVMax= 8.71D-04

 Cycle  12  Pass 1  IDiag  1:
 RMSU=  4.33D-07    CP:  9.62D-01  8.18D-01  5.11D-01  3.82D-01  9.51D-01
                    CP:  1.03D+00  8.57D-01  1.08D+00  9.45D-01  7.40D-01
                    CP:  1.01D+00
 E= -496.660210458696     Delta-E=       -0.000050279294 Rises=F Damp=F
 DIIS: error= 1.79D-03 at cycle  12 NSaved=  12.
 NSaved=12 IEnMin= 8 EnMin= -496.660965969362     IErMin= 8 ErrMin= 7.97D-04
 ErrMax= 1.79D-03  0.00D+00 EMaxC= 1.00D-01 BMatC= 7.29D-04 BMatP= 2.47D-04
 IDIUse=3 WtCom= 9.92D-01 WtEn= 7.97D-03
 Large coefficients: NSaved= 12 BigCof=   20.22 CofMax=   10.00 Det=-1.03D-08
 Inversion failed.  Reducing to 11 matrices.
 Large coefficients: NSaved= 11 BigCof=   20.40 CofMax=   10.00 Det=-1.03D-08
 Inversion failed.  Reducing to 10 matrices.
 Large coefficients: NSaved= 10 BigCof=   20.45 CofMax=   10.00 Det=-1.03D-08
 Inversion failed.  Reducing to  9 matrices.
 Large coefficients: NSaved=  9 BigCof=   20.58 CofMax=   10.00 Det=-1.04D-08
 Inversion failed.  Reducing to  8 matrices.
 Large coefficients: NSaved=  8 BigCof=   24.88 CofMax=   10.00 Det=-1.47D-08
 Inversion failed.  Reducing to  7 matrices.
 Large coefficients: NSaved=  7 BigCof=   24.85 CofMax=   10.00 Det=-1.47D-08
 Inversion failed.  Reducing to  6 matrices.
 Large coefficients: NSaved=  6 BigCof=   30.42 CofMax=   10.00 Det=-3.01D-08
 Inversion failed.  Reducing to  5 matrices.
 Large coefficients: NSaved=  5 BigCof=   38.47 CofMax=   10.00 Det=-6.79D-08
 Inversion failed.  Reducing to  4 matrices.
 Large coefficients: NSaved=  4 BigCof=   37.48 CofMax=   10.00 Det=-8.23D-08
 Inversion failed.  Reducing to  3 matrices.
 Large coefficients: NSaved=  3 BigCof=   37.00 CofMax=   10.00 Det=-1.09D-07
 Inversion failed.  Reducing to  2 matrices.
 Large coefficients: NSaved=  2 BigCof=   41.67 CofMax=   10.00 Det=-4.35D-07
 Coeff-Com: -0.407D+02 0.417D+02
 Coeff-En:   0.000D+00 0.100D+01
 Coeff:     -0.403D+02 0.413D+02
 Gap=     0.032 Goal=   None    Shift=    0.000
 RMSDP=2.52D-04 MaxDP=9.78D-03 DE=-5.03D-05 OVMax= 4.39D-02

 Cycle  13  Pass 1  IDiag  1:
 RMSU=  1.93D-05    CP:  9.63D-01  7.68D-01  5.38D-01  3.41D-01  9.01D-01
                    CP:  1.05D+00  8.22D-01  9.53D-01  7.15D-01  1.41D+00
                    CP: -3.01D-01  3.00D+00
 E= -496.661178640619     Delta-E=       -0.000968181923 Rises=F Damp=F
 DIIS: error= 4.60D-04 at cycle  13 NSaved=   3.
 NSaved= 3 IEnMin= 3 EnMin= -496.661178640619     IErMin= 3 ErrMin= 4.60D-04
 ErrMax= 4.60D-04  0.00D+00 EMaxC= 1.00D-01 BMatC= 5.39D-05 BMatP= 7.29D-04
 IDIUse=3 WtCom= 9.95D-01 WtEn= 4.60D-03
 Large coefficients: NSaved=  3 BigCof=   23.06 CofMax=   10.00 Det=-2.67D-08
 Inversion failed.  Reducing to  2 matrices.
 Coeff-Com:  0.191D+00 0.809D+00
 Coeff-En:   0.143D+00 0.857D+00
 Coeff:      0.190D+00 0.810D+00
 Gap=     0.032 Goal=   None    Shift=    0.000
 RMSDP=5.34D-05 MaxDP=2.05D-03 DE=-9.68D-04 OVMax= 5.32D-03

 Cycle  14  Pass 1  IDiag  1:
 RMSU=  2.41D-05    CP:  9.63D-01  7.62D-01  5.39D-01  3.37D-01  8.99D-01
                    CP:  1.05D+00  8.34D-01  8.74D-01  1.28D+00  2.55D-01
                    CP:  3.00D+00  3.00D+00 -1.62D-01
 E= -496.661103896845     Delta-E=        0.000074743774 Rises=F Damp=F
 DIIS: error= 4.88D-04 at cycle  14 NSaved=   3.
 NSaved= 3 IEnMin= 2 EnMin= -496.661178640619     IErMin= 2 ErrMin= 4.60D-04
 ErrMax= 4.88D-04  0.00D+00 EMaxC= 1.00D-01 BMatC= 1.07D-04 BMatP= 5.39D-05
 IDIUse=3 WtCom= 9.95D-01 WtEn= 4.60D-03
 EnCoef did     5 forward-backward iterations
 Coeff-Com:  0.195D+00 0.478D+00 0.327D+00
 Coeff-En:   0.157D+00 0.614D+00 0.229D+00
 Coeff:      0.195D+00 0.478D+00 0.326D+00
 Gap=     0.032 Goal=   None    Shift=    0.000
 RMSDP=6.96D-05 MaxDP=2.07D-03 DE= 7.47D-05 OVMax= 1.13D-02

 Cycle  15  Pass 1  IDiag  1:
 RMSU=  1.56D-06    CP:  9.63D-01  7.76D-01  5.33D-01  3.47D-01  9.10D-01
                    CP:  1.05D+00  8.32D-01  9.57D-01  9.44D-01  9.40D-01
                    CP:  1.13D+00  3.00D+00  4.32D-01  3.19D-01
 E= -496.661241309420     Delta-E=       -0.000137412575 Rises=F Damp=F
 DIIS: error= 1.02D-05 at cycle  15 NSaved=   4.
 NSaved= 4 IEnMin= 4 EnMin= -496.661241309420     IErMin= 4 ErrMin= 1.02D-05
 ErrMax= 1.02D-05  0.00D+00 EMaxC= 1.00D-01 BMatC= 4.54D-08 BMatP= 5.39D-05
 IDIUse=1 WtCom= 1.00D+00 WtEn= 0.00D+00
 Coeff-Com:  0.950D-01 0.227D+00 0.157D+00 0.522D+00
 Coeff:      0.950D-01 0.227D+00 0.157D+00 0.522D+00
 Gap=     0.032 Goal=   None    Shift=    0.000
 RMSDP=1.50D-06 MaxDP=4.84D-05 DE=-1.37D-04 OVMax= 1.96D-04

 Cycle  16  Pass 1  IDiag  1:
 RMSU=  6.63D-07    CP:  9.63D-01  7.76D-01  5.33D-01  3.47D-01  9.10D-01
                    CP:  1.05D+00  8.33D-01  9.56D-01  9.50D-01  9.29D-01
                    CP:  1.19D+00  3.00D+00  4.36D-01  3.15D-01  7.00D-01
 E= -496.661241359643     Delta-E=       -0.000000050223 Rises=F Damp=F
 DIIS: error= 2.79D-06 at cycle  16 NSaved=   5.
 NSaved= 5 IEnMin= 5 EnMin= -496.661241359643     IErMin= 5 ErrMin= 2.79D-06
 ErrMax= 2.79D-06  0.00D+00 EMaxC= 1.00D-01 BMatC= 4.73D-09 BMatP= 4.54D-08
 IDIUse=1 WtCom= 1.00D+00 WtEn= 0.00D+00
 Coeff-Com:  0.104D-01 0.234D-01 0.171D-01 0.264D+00 0.685D+00
 Coeff:      0.104D-01 0.234D-01 0.171D-01 0.264D+00 0.685D+00
 Gap=     0.032 Goal=   None    Shift=    0.000
 RMSDP=5.71D-07 MaxDP=1.57D-05 DE=-5.02D-08 OVMax= 8.17D-05

 Cycle  17  Pass 1  IDiag  1:
 RMSU=  1.27D-07    CP:  9.63D-01  7.76D-01  5.33D-01  3.48D-01  9.11D-01
                    CP:  1.05D+00  8.33D-01  9.57D-01  9.49D-01  9.36D-01
                    CP:  1.20D+00  3.00D+00  4.35D-01  3.16D-01  7.92D-01
                    CP:  7.44D-01
 E= -496.661241358125     Delta-E=        0.000000001518 Rises=F Damp=F
 DIIS: error= 4.20D-06 at cycle  17 NSaved=   6.
 NSaved= 6 IEnMin= 5 EnMin= -496.661241359643     IErMin= 5 ErrMin= 2.79D-06
 ErrMax= 4.20D-06  0.00D+00 EMaxC= 1.00D-01 BMatC= 4.72D-09 BMatP= 4.73D-09
 IDIUse=1 WtCom= 1.00D+00 WtEn= 0.00D+00
 Coeff-Com:  0.162D-02 0.575D-02 0.485D-02 0.130D+00 0.364D+00 0.494D+00
 Coeff:      0.162D-02 0.575D-02 0.485D-02 0.130D+00 0.364D+00 0.494D+00
 Gap=     0.032 Goal=   None    Shift=    0.000
 RMSDP=2.25D-07 MaxDP=8.14D-06 DE= 1.52D-09 OVMax= 3.66D-05

 Cycle  18  Pass 1  IDiag  1:
 RMSU=  5.66D-08    CP:  9.63D-01  7.76D-01  5.33D-01  3.48D-01  9.10D-01
                    CP:  1.05D+00  8.33D-01  9.57D-01  9.50D-01  9.36D-01
                    CP:  1.20D+00  3.00D+00  4.36D-01  3.17D-01  7.94D-01
                    CP:  7.86D-01  6.44D-01
 E= -496.661241362466     Delta-E=       -0.000000004341 Rises=F Damp=F
 DIIS: error= 2.53D-06 at cycle  18 NSaved=   7.
 NSaved= 7 IEnMin= 7 EnMin= -496.661241362466     IErMin= 7 ErrMin= 2.53D-06
 ErrMax= 2.53D-06  0.00D+00 EMaxC= 1.00D-01 BMatC= 1.50D-09 BMatP= 4.72D-09
 IDIUse=1 WtCom= 1.00D+00 WtEn= 0.00D+00
 Coeff-Com: -0.117D-02 0.462D-03 0.831D-03 0.152D-01 0.263D-01 0.181D+00
 Coeff-Com:  0.778D+00
 Coeff:     -0.117D-02 0.462D-03 0.831D-03 0.152D-01 0.263D-01 0.181D+00
 Coeff:      0.778D+00
 Gap=     0.032 Goal=   None    Shift=    0.000
 RMSDP=2.67D-07 MaxDP=9.07D-06 DE=-4.34D-09 OVMax= 4.62D-05

 Cycle  19  Pass 1  IDiag  1:
 RMSU=  1.42D-08    CP:  9.63D-01  7.76D-01  5.33D-01  3.47D-01  9.10D-01
                    CP:  1.05D+00  8.33D-01  9.57D-01  9.50D-01  9.36D-01
                    CP:  1.20D+00  3.00D+00  4.37D-01  3.17D-01  8.02D-01
                    CP:  7.84D-01  7.84D-01  9.62D-01
 E= -496.661241364557     Delta-E=       -0.000000002090 Rises=F Damp=F
 DIIS: error= 3.43D-07 at cycle  19 NSaved=   8.
 NSaved= 8 IEnMin= 8 EnMin= -496.661241364557     IErMin= 8 ErrMin= 3.43D-07
 ErrMax= 3.43D-07  0.00D+00 EMaxC= 1.00D-01 BMatC= 2.73D-11 BMatP= 1.50D-09
 IDIUse=1 WtCom= 1.00D+00 WtEn= 0.00D+00
 Coeff-Com: -0.744D-03-0.112D-03 0.115D-03-0.397D-02-0.226D-01 0.376D-01
 Coeff-Com:  0.390D+00 0.600D+00
 Coeff:     -0.744D-03-0.112D-03 0.115D-03-0.397D-02-0.226D-01 0.376D-01
 Coeff:      0.390D+00 0.600D+00
 Gap=     0.032 Goal=   None    Shift=    0.000
 RMSDP=4.75D-08 MaxDP=1.86D-06 DE=-2.09D-09 OVMax= 8.12D-06

 Cycle  20  Pass 1  IDiag  1:
 RMSU=  5.24D-09    CP:  9.63D-01  7.76D-01  5.33D-01  3.47D-01  9.10D-01
                    CP:  1.05D+00  8.33D-01  9.57D-01  9.50D-01  9.37D-01
                    CP:  1.20D+00  3.00D+00  4.37D-01  3.17D-01  8.02D-01
                    CP:  7.89D-01  7.83D-01  1.04D+00  8.09D-01
 E= -496.661241364590     Delta-E=       -0.000000000034 Rises=F Damp=F
 DIIS: error= 7.66D-08 at cycle  20 NSaved=   9.
 NSaved= 9 IEnMin= 9 EnMin= -496.661241364590     IErMin= 9 ErrMin= 7.66D-08
 ErrMax= 7.66D-08  0.00D+00 EMaxC= 1.00D-01 BMatC= 1.72D-12 BMatP= 2.73D-11
 IDIUse=1 WtCom= 1.00D+00 WtEn= 0.00D+00
 Coeff-Com: -0.201D-03-0.168D-03-0.104D-03-0.403D-02-0.147D-01-0.892D-02
 Coeff-Com:  0.863D-01 0.311D+00 0.631D+00
 Coeff:     -0.201D-03-0.168D-03-0.104D-03-0.403D-02-0.147D-01-0.892D-02
 Coeff:      0.863D-01 0.311D+00 0.631D+00
 Gap=     0.032 Goal=   None    Shift=    0.000
 RMSDP=4.49D-09 MaxDP=1.13D-07 DE=-3.37D-11 OVMax= 4.05D-07

 Error on total polarization charges =  0.00777
 SCF Done:  E(RB3LYP) =  -496.661241365     A.U. after   20 cycles
            NFock= 20  Conv=0.45D-08     -V/T= 2.0089
 KE= 4.922881567621D+02 PE=-2.314226448091D+03 EE= 7.459454089837D+02
 Leave Link  502 at Fri May 17 16:10:37 2019, MaxMem=   104857600 cpu:             438.4 elap:              14.2
 (Enter /opt/software/gaussian/g16.b01/l601.exe)
 Copying SCF densities to generalized density rwf, IOpCl= 0 IROHF=0.

 **********************************************************************

            Population analysis using the SCF Density.

 **********************************************************************

 Orbital symmetries:
       Occupied  (A) (A) (A) (A) (A) (A) (A) (A) (A) (A) (A) (A)
                 (A) (A) (A) (A) (A) (A) (A) (A) (A) (A) (A) (A)
                 (A) (A) (A) (A) (A) (A) (A) (A) (A) (A) (A) (A)
                 (A) (A) (A) (A) (A)
       Virtual   (A) (A) (A) (A) (A) (A) (A) (A) (A) (A) (A) (A)
                 (A) (A) (A) (A) (A) (A) (A) (A) (A) (A) (A) (A)
                 (A) (A) (A) (A) (A) (A) (A) (A) (A) (A) (A) (A)
                 (A) (A) (A) (A) (A) (A) (A) (A) (A) (A) (A) (A)
                 (A) (A) (A) (A) (A) (A) (A) (A) (A) (A) (A) (A)
                 (A) (A) (A) (A) (A) (A) (A) (A) (A) (A) (A) (A)
                 (A) (A) (A) (A) (A) (A) (A) (A) (A) (A) (A) (A)
                 (A) (A) (A) (A) (A) (A) (A) (A) (A) (A) (A) (A)
                 (A) (A) (A) (A) (A) (A) (A) (A) (A) (A) (A) (A)
                 (A) (A) (A) (A) (A) (A) (A) (A) (A) (A) (A) (A)
                 (A) (A) (A) (A) (A) (A) (A) (A) (A) (A) (A) (A)
                 (A) (A) (A) (A) (A) (A) (A) (A) (A) (A) (A) (A)
                 (A) (A) (A) (A) (A) (A) (A) (A) (A) (A) (A) (A)
                 (A) (A) (A) (A) (A) (A) (A) (A) (A) (A) (A) (A)
                 (A) (A) (A) (A) (A) (A) (A) (A) (A) (A) (A) (A)
                 (A) (A) (A) (A)
 The electronic state is 1-A.
 Alpha  occ. eigenvalues --  -19.21861 -14.33877 -14.28891 -10.28177 -10.20066
 Alpha  occ. eigenvalues --  -10.19547 -10.19512 -10.19440 -10.19258 -10.19198
 Alpha  occ. eigenvalues --  -10.19121  -1.14042  -0.92166  -0.85860  -0.78504
 Alpha  occ. eigenvalues --   -0.74917  -0.73835  -0.69143  -0.66676  -0.61993
 Alpha  occ. eigenvalues --   -0.60601  -0.54757  -0.49580  -0.49197  -0.47893
 Alpha  occ. eigenvalues --   -0.47115  -0.44698  -0.43685  -0.42928  -0.42538
 Alpha  occ. eigenvalues --   -0.40893  -0.39585  -0.37184  -0.36643  -0.34579
 Alpha  occ. eigenvalues --   -0.33047  -0.32662  -0.26384  -0.25681  -0.22567
 Alpha  occ. eigenvalues --   -0.11956
 Alpha virt. eigenvalues --   -0.08745  -0.00348   0.02576   0.06449   0.10228
 Alpha virt. eigenvalues --    0.10580   0.12139   0.14440   0.15054   0.16184
 Alpha virt. eigenvalues --    0.16369   0.17154   0.17555   0.18751   0.19957
 Alpha virt. eigenvalues --    0.21934   0.22281   0.26334   0.27392   0.28789
 Alpha virt. eigenvalues --    0.30367   0.33364   0.35574   0.37474   0.47093
 Alpha virt. eigenvalues --    0.50641   0.51163   0.53291   0.53781   0.55393
 Alpha virt. eigenvalues --    0.56018   0.56695   0.58248   0.58795   0.59725
 Alpha virt. eigenvalues --    0.60918   0.61351   0.63141   0.64219   0.65486
 Alpha virt. eigenvalues --    0.66158   0.67577   0.69580   0.71422   0.71760
 Alpha virt. eigenvalues --    0.72896   0.74439   0.76653   0.77727   0.80457
 Alpha virt. eigenvalues --    0.81628   0.82066   0.82371   0.83963   0.84929
 Alpha virt. eigenvalues --    0.86163   0.88214   0.88486   0.89588   0.91766
 Alpha virt. eigenvalues --    0.92836   0.93381   0.94323   0.95525   0.95725
 Alpha virt. eigenvalues --    0.99775   1.01690   1.02699   1.05133   1.07759
 Alpha virt. eigenvalues --    1.09625   1.13685   1.15866   1.18845   1.23405
 Alpha virt. eigenvalues --    1.24637   1.26312   1.28264   1.31225   1.34321
 Alpha virt. eigenvalues --    1.38687   1.40084   1.40964   1.41639   1.41806
 Alpha virt. eigenvalues --    1.42616   1.44169   1.45308   1.48557   1.55874
 Alpha virt. eigenvalues --    1.60371   1.62700   1.69648   1.72563   1.76955
 Alpha virt. eigenvalues --    1.79667   1.81108   1.83725   1.84577   1.85568
 Alpha virt. eigenvalues --    1.87103   1.89792   1.91332   1.92756   1.96566
 Alpha virt. eigenvalues --    1.97422   1.98302   2.00085   2.02600   2.05849
 Alpha virt. eigenvalues --    2.06405   2.07124   2.08436   2.10907   2.13340
 Alpha virt. eigenvalues --    2.14530   2.16464   2.21657   2.24603   2.25985
 Alpha virt. eigenvalues --    2.28607   2.29182   2.30075   2.33112   2.35077
 Alpha virt. eigenvalues --    2.36938   2.37963   2.38297   2.40756   2.41342
 Alpha virt. eigenvalues --    2.44701   2.46164   2.47258   2.48330   2.49337
 Alpha virt. eigenvalues --    2.51970   2.55398   2.56048   2.58322   2.59813
 Alpha virt. eigenvalues --    2.61788   2.64592   2.65271   2.66514   2.68650
 Alpha virt. eigenvalues --    2.69661   2.74602   2.75460   2.76060   2.76143
 Alpha virt. eigenvalues --    2.81736   2.84051   2.87059   2.92452   2.97826
 Alpha virt. eigenvalues --    3.00908   3.04173   3.05799   3.14623   3.18879
 Alpha virt. eigenvalues --    3.23293   3.24279   3.25758   3.32359   3.37208
 Alpha virt. eigenvalues --    3.39171   3.41092   3.42764   3.45343   3.49802
 Alpha virt. eigenvalues --    3.51644   3.52307   3.71550   3.89771   4.01982
 Alpha virt. eigenvalues --    4.08156   4.13296   4.16462   4.20288   4.37090
 Alpha virt. eigenvalues --    4.43017   4.43924   4.59436   4.84172
          Condensed to atoms (all electrons):
               1          2          3          4          5          6
     1  C    4.818221   0.342840   0.372180  -0.027136  -0.030067  -0.025059
     2  O    0.342840   7.924232  -0.065818   0.001822   0.001416   0.003051
     3  C    0.372180  -0.065818   5.021746   0.372310   0.377492   0.364841
     4  H   -0.027136   0.001822   0.372310   0.555251  -0.034080  -0.022908
     5  H   -0.030067   0.001416   0.377492  -0.034080   0.557050  -0.021940
     6  H   -0.025059   0.003051   0.364841  -0.022908  -0.021940   0.561865
     7  C    0.419532  -0.058696  -0.072631  -0.003448  -0.003306   0.004754
     8  C   -0.051402  -0.000963   0.006488  -0.000061  -0.000062  -0.000144
     9  C   -0.048039   0.003907  -0.008461   0.001471   0.000955   0.000210
    10  C    0.005536   0.000862  -0.000128  -0.000010   0.000005   0.000002
    11  H   -0.015952   0.003520   0.000235   0.000018  -0.000028  -0.000014
    12  C    0.005090  -0.000079   0.000004   0.000074   0.000172  -0.000003
    13  H   -0.012575   0.000070   0.007000   0.000868   0.000274  -0.000073
    14  C    0.000437  -0.000015  -0.000006   0.000001  -0.000007   0.000000
    15  H   -0.000171   0.000004   0.000002   0.000000   0.000000  -0.000000
    16  H   -0.000149   0.000000   0.000006  -0.000004  -0.000001  -0.000000
    17  H    0.000008  -0.000000  -0.000000   0.000000  -0.000000  -0.000000
    18  H   -0.051838   0.277578   0.004672   0.000260  -0.000378  -0.000276
    19  N    0.004854  -0.001070   0.000052  -0.000128   0.000002   0.000002
    20  H   -0.000102   0.000013  -0.000002   0.000005  -0.000000  -0.000000
    21  H   -0.000151   0.000038  -0.000009   0.000066  -0.000001  -0.000001
    22  N   -0.004739  -0.000070  -0.000039   0.000037  -0.000001  -0.000000
    23  H   -0.000136   0.000039  -0.000001   0.000000  -0.000000  -0.000000
               7          8          9         10         11         12
     1  C    0.419532  -0.051402  -0.048039   0.005536  -0.015952   0.005090
     2  O   -0.058696  -0.000963   0.003907   0.000862   0.003520  -0.000079
     3  C   -0.072631   0.006488  -0.008461  -0.000128   0.000235   0.000004
     4  H   -0.003448  -0.000061   0.001471  -0.000010   0.000018   0.000074
     5  H   -0.003306  -0.000062   0.000955   0.000005  -0.000028   0.000172
     6  H    0.004754  -0.000144   0.000210   0.000002  -0.000014  -0.000003
     7  C    4.847199   0.456857   0.496687  -0.019998  -0.053180  -0.019899
     8  C    0.456857   4.978532  -0.056354   0.520961   0.359683  -0.041216
     9  C    0.496687  -0.056354   4.958663  -0.041001   0.006265   0.531904
    10  C   -0.019998   0.520961  -0.041001   4.828913  -0.030212  -0.030735
    11  H   -0.053180   0.359683   0.006265  -0.030212   0.634494   0.000208
    12  C   -0.019899  -0.041216   0.531904  -0.030735   0.000208   4.839639
    13  H   -0.040088   0.005634   0.370042   0.000298  -0.000150  -0.040544
    14  C   -0.032917  -0.044879  -0.043850   0.539798   0.004852   0.528328
    15  H    0.003562  -0.036491   0.000834   0.371074  -0.005615   0.004399
    16  H    0.003504   0.000799  -0.035785   0.004438   0.000016   0.371232
    17  H    0.000753   0.004879   0.004733  -0.040039  -0.000175  -0.041389
    18  H   -0.006119  -0.001739   0.000350  -0.000415   0.011003  -0.000011
    19  N   -0.000068  -0.000375  -0.000046   0.000024  -0.000300   0.000000
    20  H   -0.000008   0.000051   0.000002  -0.000002   0.000015   0.000000
    21  H    0.000459   0.000114   0.000077   0.000010   0.000008  -0.000004
    22  N   -0.000760   0.010613   0.000151  -0.001325   0.003897   0.000004
    23  H    0.000046   0.000184   0.000003   0.000036   0.000123  -0.000000
              13         14         15         16         17         18
     1  C   -0.012575   0.000437  -0.000171  -0.000149   0.000008  -0.051838
     2  O    0.000070  -0.000015   0.000004   0.000000  -0.000000   0.277578
     3  C    0.007000  -0.000006   0.000002   0.000006  -0.000000   0.004672
     4  H    0.000868   0.000001   0.000000  -0.000004   0.000000   0.000260
     5  H    0.000274  -0.000007   0.000000  -0.000001  -0.000000  -0.000378
     6  H   -0.000073   0.000000  -0.000000  -0.000000  -0.000000  -0.000276
     7  C   -0.040088  -0.032917   0.003562   0.003504   0.000753  -0.006119
     8  C    0.005634  -0.044879  -0.036491   0.000799   0.004879  -0.001739
     9  C    0.370042  -0.043850   0.000834  -0.035785   0.004733   0.000350
    10  C    0.000298   0.539798   0.371074   0.004438  -0.040039  -0.000415
    11  H   -0.000150   0.004852  -0.005615   0.000016  -0.000175   0.011003
    12  C   -0.040544   0.528328   0.004399   0.371232  -0.041389  -0.000011
    13  H    0.606790   0.004731   0.000016  -0.005785  -0.000178   0.000002
    14  C    0.004731   4.855486  -0.040815  -0.040969   0.372462  -0.000002
    15  H    0.000016  -0.040815   0.605503  -0.000176  -0.005730   0.000007
    16  H   -0.005785  -0.040969  -0.000176   0.604792  -0.005838   0.000000
    17  H   -0.000178   0.372462  -0.005730  -0.005838   0.608455  -0.000000
    18  H    0.000002  -0.000002   0.000007   0.000000  -0.000000   0.407772
    19  N   -0.000000  -0.000003  -0.000000  -0.000000   0.000000  -0.002915
    20  H    0.000000  -0.000000   0.000000  -0.000000   0.000000   0.000213
    21  H    0.000001  -0.000005  -0.000000  -0.000000  -0.000000  -0.000135
    22  N    0.000000  -0.000037   0.000024  -0.000000   0.000000   0.016864
    23  H    0.000000  -0.000002  -0.000001  -0.000000   0.000000   0.000308
              19         20         21         22         23
     1  C    0.004854  -0.000102  -0.000151  -0.004739  -0.000136
     2  O   -0.001070   0.000013   0.000038  -0.000070   0.000039
     3  C    0.000052  -0.000002  -0.000009  -0.000039  -0.000001
     4  H   -0.000128   0.000005   0.000066   0.000037   0.000000
     5  H    0.000002  -0.000000  -0.000001  -0.000001  -0.000000
     6  H    0.000002  -0.000000  -0.000001  -0.000000  -0.000000
     7  C   -0.000068  -0.000008   0.000459  -0.000760   0.000046
     8  C   -0.000375   0.000051   0.000114   0.010613   0.000184
     9  C   -0.000046   0.000002   0.000077   0.000151   0.000003
    10  C    0.000024  -0.000002   0.000010  -0.001325   0.000036
    11  H   -0.000300   0.000015   0.000008   0.003897   0.000123
    12  C    0.000000   0.000000  -0.000004   0.000004  -0.000000
    13  H   -0.000000   0.000000   0.000001   0.000000   0.000000
    14  C   -0.000003  -0.000000  -0.000005  -0.000037  -0.000002
    15  H   -0.000000   0.000000  -0.000000   0.000024  -0.000001
    16  H   -0.000000  -0.000000  -0.000000  -0.000000  -0.000000
    17  H    0.000000   0.000000  -0.000000   0.000000   0.000000
    18  H   -0.002915   0.000213  -0.000135   0.016864   0.000308
    19  N    6.642966   0.332737   0.351843   0.175773  -0.044946
    20  H    0.332737   0.496165  -0.039323  -0.041630  -0.008470
    21  H    0.351843  -0.039323   0.455690  -0.047938   0.007296
    22  N    0.175773  -0.041630  -0.047938   7.179041   0.282345
    23  H   -0.044946  -0.008470   0.007296   0.282345   0.540235
 Mulliken charges:
               1
     1  C    0.298816
     2  O   -0.432684
     3  C   -0.379932
     4  H    0.155592
     5  H    0.152503
     6  H    0.135692
     7  C    0.077766
     8  C   -0.111111
     9  C   -0.142721
    10  C   -0.108095
    11  H    0.081290
    12  C   -0.107176
    13  H    0.103667
    14  C   -0.102587
    15  H    0.103575
    16  H    0.103917
    17  H    0.102058
    18  H    0.344799
    19  N   -0.458401
    20  H    0.260337
    21  H    0.271964
    22  N   -0.572210
    23  H    0.222941
 Sum of Mulliken charges =  -0.00000
 Mulliken charges with hydrogens summed into heavy atoms:
               1
     1  C    0.298816
     2  O   -0.087885
     3  C    0.063855
     7  C    0.077766
     8  C   -0.029821
     9  C   -0.039054
    10  C   -0.004520
    12  C   -0.003259
    14  C   -0.000530
    19  N    0.073900
    22  N   -0.349269
 Electronic spatial extent (au):  <R**2>=           2132.6889
 Charge=             -0.0000 electrons
 Dipole moment (field-independent basis, Debye):
    X=             -0.2928    Y=              3.1802    Z=             -0.6064  Tot=              3.2507
 Quadrupole moment (field-independent basis, Debye-Ang):
   XX=            -59.4474   YY=            -64.1690   ZZ=            -59.2286
   XY=              1.3331   XZ=              1.3944   YZ=             -4.4506
 Traceless Quadrupole moment (field-independent basis, Debye-Ang):
   XX=              1.5010   YY=             -3.2207   ZZ=              1.7197
   XY=              1.3331   XZ=              1.3944   YZ=             -4.4506
 Octapole moment (field-independent basis, Debye-Ang**2):
  XXX=             27.6862  YYY=             26.2645  ZZZ=             -3.4103  XYY=             -0.6249
  XXY=            -20.8599  XXZ=            -15.1908  XZZ=             19.8945  YZZ=             -5.2747
  YYZ=              0.2391  XYZ=              3.7547
 Hexadecapole moment (field-independent basis, Debye-Ang**3):
 XXXX=          -1297.9299 YYYY=          -1016.1955 ZZZZ=           -307.0686 XXXY=            -59.1992
 XXXZ=              2.5244 YYYX=             13.1539 YYYZ=            -22.0997 ZZZX=             -7.8211
 ZZZY=              6.0577 XXYY=           -357.8546 XXZZ=           -245.0368 YYZZ=           -218.5925
 XXYZ=             15.6529 YYXZ=             -8.0891 ZZXY=            -23.5666
 N-N= 5.793316409809D+02 E-N=-2.314226448123D+03  KE= 4.922881567621D+02
 No NMR shielding tensors so no spin-rotation constants.
 Leave Link  601 at Fri May 17 16:10:38 2019, MaxMem=   104857600 cpu:               5.5 elap:               0.2
 (Enter /opt/software/gaussian/g16.b01/l701.exe)
 ... and contract with generalized density number  0.
 Compute integral first derivatives.
 R6Disp: Adding Grimme-D3 dispersion energy 1st derivatives to the gradient.
 PrsmSu:  requested number of processors reduced to:  29 ShMem   1 Linda.
 D1PCM: PCM CHGder 1st derivatives, ID1Alg=3 FixD1E=F DoIter=F DoCFld=F I1PDM=0.
 GePol: Maximum number of non-zero 1st derivatives   =     232
 CoulSu:  requested number of processors reduced to:  28 ShMem   1 Linda.
 CoulSu:  requested number of processors reduced to:  29 ShMem   1 Linda.
 Leave Link  701 at Fri May 17 16:10:39 2019, MaxMem=   104857600 cpu:              26.4 elap:               0.9
 (Enter /opt/software/gaussian/g16.b01/l702.exe)
 L702 exits ... SP integral derivatives will be done elsewhere.
 Leave Link  702 at Fri May 17 16:10:39 2019, MaxMem=   104857600 cpu:               1.9 elap:               0.1
 (Enter /opt/software/gaussian/g16.b01/l703.exe)
 Integral derivatives from FoFJK, PRISM(SPDF).
 Compute integral first derivatives, UseDBF=F ICtDFT=           0.
 Calling FoFJK, ICntrl=      2127 FMM=F ISym2X=0 I1Cent= 0 IOpClX= 0 NMat=1 NMatS=1 NMatT=0.
 FoFJK:  IHMeth= 1 ICntrl=    2127 DoSepK=F KAlg= 0 I1Cent=           0 FoldK=F
 IRaf=         0 NMat=       1 IRICut=       1 DoRegI=T DoRafI=F ISym2E= 0 IDoP0=0 IntGTp=1.
 FoFCou: FMM=F IPFlag=           0 FMFlag=      100000 FMFlg1=         800
         NFxFlg=           0 DoJE=F BraDBF=F KetDBF=F FulRan=T
         wScrn=  0.000000 ICntrl=      2127 IOpCl=  0 I1Cent=           0 NGrid=           0
         NMat0=    1 NMatS0=      1 NMatT0=    0 NMatD0=    1 NMtDS0=    0 NMtDT0=    0
 Symmetry not used in FoFCou.
 Leave Link  703 at Fri May 17 16:10:40 2019, MaxMem=   104857600 cpu:              43.0 elap:               1.4
 (Enter /opt/software/gaussian/g16.b01/l716.exe)
 Dipole        =-1.15177037D-01 1.25120285D+00-2.38577533D-01
 ***** Axes restored to original set *****
 -------------------------------------------------------------------
 Center     Atomic                   Forces (Hartrees/Bohr)
 Number     Number              X              Y              Z
 -------------------------------------------------------------------
      1        6           0.106287874    0.085997596    0.078457016
      2        8          -0.083697264   -0.064526211   -0.059143122
      3        6          -0.005235697   -0.002281856   -0.015413038
      4        1           0.000025613   -0.000915722    0.000328877
      5        1          -0.000966941    0.000400779    0.001513331
      6        1          -0.001076523   -0.000513605    0.002504987
      7        6          -0.042591591   -0.022107457    0.008833341
      8        6           0.002701017   -0.003649052   -0.009719591
      9        6           0.012261470    0.009570226    0.008037320
     10        6           0.000520873   -0.000514796    0.000379085
     11        1           0.004219530    0.002538255   -0.003947820
     12        6          -0.008774549   -0.003110136    0.007255569
     13        1           0.000430057   -0.000340744    0.000451558
     14        6           0.003833533   -0.001014495   -0.007510762
     15        1          -0.000074412   -0.000159169   -0.000010713
     16        1          -0.000170310    0.000030464    0.000306912
     17        1          -0.000294738    0.000154297   -0.000335566
     18        1           0.017762763   -0.005514467   -0.012205700
     19        7          -0.012041349    0.004322100   -0.023554162
     20        1           0.000436530   -0.022392041    0.007676861
     21        1           0.008753368    0.006560857    0.009507369
     22        7           0.010141972    0.039037260    0.017734378
     23        1          -0.012451223   -0.021572084   -0.011146132
 -------------------------------------------------------------------
 Cartesian Forces:  Max     0.106287874 RMS     0.026243650
 Leave Link  716 at Fri May 17 16:10:41 2019, MaxMem=   104857600 cpu:               1.4 elap:               0.1
 (Enter /opt/software/gaussian/g16.b01/l103.exe)

 GradGradGradGradGradGradGradGradGradGradGradGradGradGradGradGradGradGrad
 Berny optimization.
 FormGI is forming the generalized inverse of G from B-inverse, IUseBI=4.
 Internal  Forces:  Max     0.115292495 RMS     0.012701789
 Search for a local minimum.
 Step number   1 out of a maximum of  124
 All quantities printed in internal units (Hartrees-Bohrs-Radians)
 RMS Force = .12702D-01 SwitMx=.10000D-02 MixMth= 1
 Mixed Optimization -- RFO/linear search
 Second derivative matrix not updated -- first step.
 ITU=  0
     Eigenvalues ---    0.00581   0.00730   0.01040   0.01137   0.01284
     Eigenvalues ---    0.01295   0.01464   0.01537   0.01837   0.02084
     Eigenvalues ---    0.02101   0.02117   0.02128   0.02139   0.02149
     Eigenvalues ---    0.02164   0.02910   0.04656   0.06123   0.06886
     Eigenvalues ---    0.07262   0.07383   0.10113   0.13582   0.15782
     Eigenvalues ---    0.15998   0.16000   0.16000   0.16000   0.16000
     Eigenvalues ---    0.16000   0.16000   0.16000   0.16000   0.18628
     Eigenvalues ---    0.20956   0.21643   0.22000   0.23386   0.23699
     Eigenvalues ---    0.24999   0.30951   0.32216   0.34256   0.34319
     Eigenvalues ---    0.34359   0.34842   0.35284   0.35308   0.35336
     Eigenvalues ---    0.35517   0.39886   0.41804   0.44877   0.45457
     Eigenvalues ---    0.45621   0.46219   0.46938   0.47688   0.47688
     Eigenvalues ---    0.47688   0.53020   0.88013
 RFO step:  Lambda=-3.10130989D-02 EMin= 5.80693091D-03
 Linear search not attempted -- first point.
 Iteration  1 RMS(Cart)=  0.03709477 RMS(Int)=  0.00152439
 Iteration  2 RMS(Cart)=  0.00158245 RMS(Int)=  0.00024758
 Iteration  3 RMS(Cart)=  0.00000279 RMS(Int)=  0.00024757
 Iteration  4 RMS(Cart)=  0.00000000 RMS(Int)=  0.00024757
 ITry= 1 IFail=0 DXMaxC= 1.43D-01 DCOld= 1.00D+10 DXMaxT= 3.00D-01 DXLimC= 3.00D+00 Rises=F
 Variable       Old X    -DE/DX   Delta X   Delta X   Delta X     New X
                                 (Linear)    (Quad)   (Total)
    R1        2.32206   0.11529   0.00000   0.12600   0.12586   2.44792
    R2        2.86105  -0.00808   0.00000  -0.02374  -0.02374   2.83731
    R3        2.82380  -0.03479   0.00000  -0.09250  -0.09272   2.73108
    R4        1.81414   0.01383   0.00000   0.02799   0.02805   1.84218
    R5        2.06900   0.00056   0.00000   0.00150   0.00150   2.07050
    R6        2.06729   0.00088   0.00000   0.00234   0.00234   2.06963
    R7        2.05932   0.00136   0.00000   0.00360   0.00360   2.06291
    R8        2.65480   0.01740   0.00000   0.03085   0.03080   2.68560
    R9        2.65061   0.01256   0.00000   0.02678   0.02679   2.67740
   R10        2.62779   0.00012   0.00000  -0.00030  -0.00028   2.62752
   R11        2.04953   0.00180   0.00000  -0.00568  -0.00555   2.04398
   R12        2.63595  -0.00644   0.00000  -0.01245  -0.01247   2.62348
   R13        2.04843   0.00023   0.00000   0.00058   0.00058   2.04902
   R14        2.64457  -0.00057   0.00000  -0.00192  -0.00193   2.64264
   R15        2.05178   0.00000   0.00000   0.00001   0.00001   2.05179
   R16        5.73949  -0.00196   0.00000  -0.05563  -0.05561   5.68388
   R17        2.63807   0.00791   0.00000   0.01582   0.01579   2.65385
   R18        2.05132   0.00013   0.00000   0.00035   0.00035   2.05167
   R19        2.05216  -0.00009   0.00000  -0.00023  -0.00023   2.05193
   R20        5.90635  -0.00524   0.00000  -0.12921  -0.12910   5.77725
   R21        1.88973   0.02126   0.00000   0.04186   0.04186   1.93158
   R22        1.88973   0.01378   0.00000   0.02714   0.02714   1.91686
   R23        2.64562   0.00119   0.00000   0.00244   0.00244   2.64805
   R24        1.88973   0.02342   0.00000   0.04610   0.04610   1.93583
    A1        2.09912  -0.01377   0.00000  -0.06002  -0.05996   2.03916
    A2        2.10592   0.00043   0.00000   0.02354   0.02342   2.12933
    A3        2.07812   0.01335   0.00000   0.03645   0.03651   2.11463
    A4        2.09440  -0.01819   0.00000  -0.03936  -0.03943   2.05496
    A5        1.93421  -0.00107   0.00000  -0.00675  -0.00673   1.92749
    A6        1.92520   0.00207   0.00000   0.01206   0.01200   1.93720
    A7        1.90157   0.00298   0.00000   0.01553   0.01547   1.91704
    A8        1.87793  -0.00048   0.00000  -0.00237  -0.00235   1.87558
    A9        1.91725  -0.00172   0.00000  -0.01140  -0.01137   1.90588
   A10        1.90751  -0.00188   0.00000  -0.00754  -0.00768   1.89983
   A11        2.06808   0.00577   0.00000   0.01762   0.01748   2.08556
   A12        2.13471  -0.00278   0.00000  -0.00792  -0.00795   2.12676
   A13        2.08019  -0.00296   0.00000  -0.00941  -0.00934   2.07085
   A14        2.10369  -0.00216   0.00000   0.00070   0.00062   2.10431
   A15        2.06754   0.00934   0.00000   0.01790   0.01815   2.08569
   A16        2.11194  -0.00718   0.00000  -0.01856  -0.01876   2.09318
   A17        2.09921  -0.00030   0.00000  -0.00121  -0.00120   2.09801
   A18        2.10288   0.00037   0.00000   0.00182   0.00180   2.10468
   A19        2.08102  -0.00007   0.00000  -0.00053  -0.00054   2.08048
   A20        2.09261   0.00211   0.00000   0.00318   0.00322   2.09582
   A21        2.09493  -0.00121   0.00000  -0.00242  -0.00243   2.09249
   A22        2.09565  -0.00090   0.00000  -0.00077  -0.00079   2.09485
   A23        1.71124  -0.00462   0.00000  -0.02564  -0.02513   1.68611
   A24        2.09587   0.00236   0.00000   0.00746   0.00744   2.10331
   A25        2.09067  -0.00152   0.00000  -0.00550  -0.00548   2.08519
   A26        2.09663  -0.00084   0.00000  -0.00195  -0.00194   2.09469
   A27        2.09479   0.00095   0.00000  -0.00076  -0.00077   2.09402
   A28        2.09443  -0.00075   0.00000  -0.00105  -0.00105   2.09338
   A29        2.09396  -0.00020   0.00000   0.00181   0.00182   2.09578
   A30        2.38721   0.00040   0.00000   0.00582   0.00555   2.39276
   A31        1.91063  -0.00376   0.00000  -0.01388  -0.01346   1.89717
   A32        1.91063   0.01736   0.00000   0.09376   0.09398   2.00461
   A33        1.91063  -0.00757   0.00000  -0.03673  -0.03649   1.87415
   A34        0.63677   0.00560   0.00000   0.02702   0.02797   0.66475
   A35        2.04794   0.00044   0.00000   0.00394   0.00434   2.05228
   A36        1.65936   0.00665   0.00000   0.03438   0.03455   1.69392
   A37        1.48985  -0.00399   0.00000  -0.02567  -0.02631   1.46354
   A38        1.57433  -0.00191   0.00000  -0.01412  -0.01566   1.55867
   A39        1.91063  -0.01129   0.00000  -0.09081  -0.09087   1.81976
    D1       -2.52428  -0.00401   0.00000  -0.04289  -0.04259  -2.56687
    D2        0.62565  -0.00456   0.00000  -0.03940  -0.03922   0.58644
    D3        2.11147  -0.00051   0.00000  -0.00013  -0.00017   2.11130
    D4       -2.09386  -0.00046   0.00000   0.00037   0.00027  -2.09358
    D5       -0.00000   0.00036   0.00000   0.00817   0.00820   0.00820
    D6       -1.03833  -0.00002   0.00000  -0.00361  -0.00357  -1.04190
    D7        1.03953   0.00002   0.00000  -0.00311  -0.00313   1.03640
    D8        3.13338   0.00084   0.00000   0.00469   0.00480   3.13818
    D9       -0.04345   0.00148   0.00000   0.03108   0.03119  -0.01226
   D10        3.07668   0.00269   0.00000   0.04723   0.04737   3.12405
   D11        3.10639   0.00106   0.00000   0.03497   0.03516   3.14155
   D12       -0.05667   0.00228   0.00000   0.05113   0.05135  -0.00533
   D13        0.59107   0.00363   0.00000   0.03229   0.03206   0.62312
   D14        3.11971   0.00152   0.00000   0.01723   0.01726   3.13698
   D15       -0.01530   0.00140   0.00000   0.00942   0.00948  -0.00583
   D16       -0.00110   0.00035   0.00000   0.00158   0.00159   0.00049
   D17       -3.13612   0.00023   0.00000  -0.00623  -0.00619   3.14088
   D18       -3.11590  -0.00131   0.00000  -0.01353  -0.01340  -3.12929
   D19        0.01166  -0.00076   0.00000  -0.00674  -0.00659   0.00506
   D20        0.00408   0.00003   0.00000   0.00306   0.00298   0.00706
   D21        3.13164   0.00057   0.00000   0.00985   0.00978   3.14142
   D22       -0.00251  -0.00047   0.00000  -0.00518  -0.00513  -0.00764
   D23       -3.14050  -0.00017   0.00000  -0.00304  -0.00298   3.13970
[...]
 6899,0.00019281,-0.00004660,0.00003462,0.00002530,-0.00001658,0.000062
 13,-0.00003250,0.00007536,-0.00001701,-0.00001295,-0.00004968,0.001490
 95,-0.00760374,-0.01027699,-0.02701973,-0.00983280,-0.00248818,0.00101
 219,0.00870363,0.01913031,-0.07352721,-0.11249066,-0.08003227,-0.00512
 819,0.00466472,0.00079317,-0.03730138,-0.08201710,0.03128555,-0.005813
 00,0.00407421,0.00021883,0.26470327,0.29780663,-0.00113661,-0.00101858
 ,-0.00343753,-0.00119313,-0.00078587,0.00041593,0.00018138,0.00014333,
 -0.00055810,0.00022200,0.00008850,0.00017426,0.00008521,0.00022223,0.0
 0024168,0.00004403,0.00005090,-0.00006180,-0.01022554,-0.01089556,-0.0
 6057224,-0.05083224,-0.02669452,0.05524775,0.07365566,0.04401079,0.005
 54187,-0.05249366,-0.04510137,-0.23753282,0.00268593,0.00112155,0.0005
 6487,0.02787953,-0.00354045,-0.32075650,0.00030522,-0.00023334,0.00170
 763,-0.03494152,0.02042820,0.66747786,0.00073602,0.00038957,0.00160471
 ,-0.00017000,-0.00024007,-0.00031051,-0.00047051,-0.00011916,-0.000056
 37,0.00002719,0.00000055,-0.00002434,-0.00001324,0.00000842,0.00003193
 ,-0.00008266,-0.00000141,0.00013652,-0.00202886,-0.00589307,0.00013907
 ,-0.00320602,-0.00164886,0.02660280,-0.00091289,-0.00029565,-0.0004729
 0,-0.07428175,-0.01687981,0.07372565,-0.00039210,0.00233812,-0.0004651
 5,-0.00004175,-0.00445491,-0.00224991,-0.00020434,0.00063473,0.0000549
 8,0.00867506,0.00210317,-0.01852334,0.07238916,0.00011919,0.00055356,0
 .00088367,-0.00017929,0.00000374,-0.00017782,-0.00012848,-0.00034085,0
 .00000283,-0.00001491,-0.00000609,0.00004259,0.00002542,0.00002306,-0.
 00004392,-0.00002410,-0.00004827,0.00008320,-0.00571343,0.00415078,-0.
 00038156,-0.00374412,0.00175251,0.01570406,-0.00025118,-0.00062557,-0.
 00019615,-0.01683536,-0.04533469,0.02341118,0.00236311,-0.00286681,0.0
 0008925,-0.00456906,0.00413589,-0.00195068,0.00063558,-0.00085600,0.00
 012075,0.00412804,0.00435865,-0.01276678,0.02201602,0.03742193,-0.0008
 5354,-0.00063272,-0.00028111,0.00039793,0.00028772,0.00018352,0.000142
 64,0.00011894,0.00001873,0.00000369,-0.00000619,-0.00001324,-0.0000089
 4,-0.00000105,-0.00000870,0.00003697,0.00001594,-0.00006097,0.00141763
 ,0.00035930,0.00168981,-0.00010313,-0.00046951,-0.00270450,-0.00054174
 ,-0.00026587,0.00046554,0.07358876,0.02327446,-0.31706419,-0.00003976,
 0.00035678,0.00073638,-0.00314792,-0.00250744,-0.00097846,0.00005398,0
 .00012087,-0.00008552,0.00840176,0.00360927,-0.01659028,-0.07945287,-0
 .02463040,0.33487021,0.00092654,0.00015906,-0.00127228,-0.00106390,-0.
 00051550,-0.00023514,-0.00008199,-0.00005415,0.00002600,0.00000426,0.0
 0000719,0.00000652,0.00002316,0.00000356,0.00000325,-0.00004281,-0.000
 02465,0.00004503,-0.00156848,-0.00510163,0.00321518,-0.00037043,0.0001
 3633,0.00075550,-0.01072771,-0.00966954,-0.02071300,0.00185369,-0.0029
 4500,0.00230961,-0.00027209,0.00050736,-0.00016141,-0.14271967,-0.0729
 4578,-0.11398401,-0.00044389,0.00223520,-0.00002022,0.00858295,0.00410
 537,0.00820450,0.00038690,0.00010326,0.00044952,0.14600009,0.00023431,
 0.00069342,-0.00080298,-0.00040630,-0.00063849,-0.00010864,-0.00003405
 ,-0.00003825,0.00001824,0.00000739,0.00001672,-0.00000191,-0.00000050,
 0.00000687,0.00000693,-0.00003214,-0.00000134,0.00002766,-0.00530553,0
 .00433757,0.00144040,0.00014410,-0.00036266,0.00046037,-0.00759954,-0.
 00288070,-0.01193686,-0.00284514,0.00537312,0.00050028,0.00050868,-0.0
 0083182,-0.00000832,-0.07295015,-0.08705219,-0.08211946,0.00221560,-0.
 00278686,0.00035678,0.00196358,0.00430073,0.00342053,-0.00001000,0.000
 27621,0.00017053,0.08199695,0.08231794,0.00061325,0.00037136,0.0003263
 7,-0.00003166,-0.00000248,-0.00005360,-0.00005164,-0.00002873,0.000054
 19,-0.00001183,0.00000726,-0.00000345,0.00000559,-0.00001468,-0.000001
 35,-0.00001250,-0.00000740,0.00000349,0.00176110,0.00057532,0.00069991
 ,0.00084410,0.00052327,-0.00034829,0.00627917,0.00431616,0.00927719,0.
 00319230,0.00104264,-0.00417577,-0.00016374,-0.00000759,0.00005843,-0.
 11407570,-0.08219441,-0.20708324,-0.00041228,0.00013692,0.00081719,-0.
 01882482,-0.01286040,-0.01637667,-0.00096021,-0.00067340,-0.00096187,0
 .12179145,0.08844860,0.21685770,-0.00000928,0.00083160,-0.00012249,-0.
 00021567,-0.00030212,0.00004480,-0.00001684,-0.00013539,0.00004809,-0.
 00004384,0.00001591,-0.00000063,0.00003638,0.00002697,-0.00000167,-0.0
 0003181,-0.00000166,0.00001478,0.00011801,0.00041902,-0.00030913,0.001
 54413,-0.00364617,-0.00302794,0.00302655,-0.00245785,0.00170637,-0.010
 03802,-0.00781064,0.00660962,-0.00058364,-0.00028267,0.00037152,-0.002
 93031,-0.00407587,-0.00050656,-0.00030474,-0.00016640,-0.00005459,-0.2
 5208826,-0.12472386,0.05595800,-0.00042741,0.00205348,-0.00032159,-0.0
 0050272,0.00209529,0.00004925,0.26245501,0.00076890,-0.00088379,0.0000
 1814,-0.00029284,0.00006371,0.00003237,-0.00013384,0.00012486,-0.00001
 697,0.00007135,0.00001253,-0.00000478,-0.00002135,-0.00005636,0.000008
 26,-0.00000700,-0.00002332,0.00001516,0.00043204,-0.00032830,-0.000201
 60,-0.00365783,0.00482917,-0.00263999,-0.00254943,0.00579071,0.0000005
 9,-0.00983377,-0.00188056,0.00452156,-0.00036864,-0.00027928,0.0002559
 6,-0.00193467,0.00250278,-0.00078003,-0.00004946,-0.00006440,-0.000046
 47,-0.12476992,-0.11141952,0.03092830,0.00209145,-0.00259877,0.0001556
 2,0.00205166,-0.00269510,0.00041189,0.13818192,0.10694092,-0.00022931,
 -0.00004362,-0.00002435,0.00006050,0.00003986,0.00023164,0.00004359,0.
 00001346,-0.00001239,0.00000718,-0.00004341,0.00001838,-0.00003090,0.0
 0003535,0.00000907,0.00001486,0.00001169,0.00002784,-0.00027173,-0.000
 23786,-0.00120440,-0.00230493,-0.00217020,-0.00314335,0.00097052,-0.00
 042247,-0.00535889,-0.02006525,-0.01169104,0.00982955,-0.00095108,-0.0
 0054497,0.00034800,0.02626589,0.01544537,-0.00179538,0.00132452,0.0007
 7720,-0.00025136,0.05590417,0.03089504,-0.07564768,0.00019275,0.000480
 82,0.00082063,-0.00046118,0.00010123,0.00089321,-0.06047232,-0.0326856
 8,0.07525758,0.00441402,0.00254817,0.00333035,-0.00281738,-0.00225537,
 -0.00213408,-0.00040182,-0.00006145,-0.00007576,-0.00013245,0.00018065
 ,-0.00003284,-0.00002059,-0.00003848,-0.00007040,-0.00004069,0.0000018
 8,0.00005410,-0.00100824,-0.00044851,-0.00015841,-0.00037941,-0.000207
 20,-0.00032717,0.00011241,0.00015525,0.00016062,-0.00014116,0.00007318
 ,0.00009293,0.00033138,-0.00018785,0.00027178,-0.00011028,-0.00006053,
 0.00019927,0.00003265,0.00000444,0.00002711,-0.00003056,-0.00007376,-0
 .00007984,-0.00000745,0.00000579,-0.00000197,-0.00001889,0.00000291,0.
 00000804,0.00001241,0.00001431,0.00000608,0.19810402,-0.00184017,-0.00
 377496,-0.00561061,0.00001153,0.00213568,0.00279682,0.00038115,-0.0001
 7288,0.00019690,0.00016173,-0.00017447,0.00017664,0.00003648,0.0000227
 2,0.00009067,-0.00002133,0.00000295,-0.00001673,0.00034723,0.00060370,
 -0.00013506,-0.00008375,-0.00013144,-0.00013729,-0.00035100,-0.0002075
 1,-0.00041277,-0.00038048,0.00003180,0.00022662,0.00008939,-0.00090633
 ,0.00063606,0.00037938,0.00015143,-0.00021471,-0.00002397,0.00000745,0
 .00006512,0.00019486,0.00010287,0.00029367,0.00004659,0.00003693,-0.00
 007405,0.00006066,0.00004931,0.00002607,0.00007041,0.00002627,0.000017
 33,-0.17501482,0.23147028,-0.00098137,-0.00323239,-0.00342260,0.000223
 56,0.00233914,0.00124532,0.00030134,-0.00010965,0.00030975,-0.00013565
 ,0.00004841,0.00009289,-0.00007919,0.00003533,0.00005530,-0.00002724,0
 .00000301,0.00002216,0.00005102,0.00005133,-0.00005659,0.00013370,0.00
 005651,0.00043214,-0.00011044,0.00000405,-0.00029093,0.00005427,0.0000
 0265,-0.00000596,-0.00010468,0.00031230,-0.00008782,0.00011494,0.00003
 165,-0.00012104,-0.00002880,-0.00001818,0.00001407,0.00007626,0.000062
 66,0.00002410,0.00004082,0.00000822,-0.00003682,0.00004440,0.00002306,
 0.00001302,0.00001552,0.00001770,-0.00000919,0.09870712,-0.07997358,0.
 11785937,-0.00042194,-0.00389271,0.00078136,-0.00114003,0.00209736,-0.
 00182772,0.00018424,0.00162283,0.00076217,-0.00079047,0.00030555,-0.00
 039060,-0.00057800,0.00032118,0.00001950,0.00007038,-0.00009611,-0.000
 06012,0.00025873,-0.00018809,-0.00009486,0.00016260,0.00000270,0.00005
 403,-0.00027167,-0.00054808,-0.00003769,0.00000271,-0.00001708,-0.0000
 1400,-0.00010212,-0.00001510,0.00006178,0.00030252,0.00005876,-0.00017
 693,-0.00008883,0.00001697,-0.00000253,0.00000182,0.00006153,0.0001385
 0,0.00002178,0.00000814,-0.00001881,0.00002595,0.00001477,0.00000214,0
 .00000753,0.00001330,0.00000021,-0.00252772,-0.00392078,-0.03156511,0.
 66941930,-0.00031202,0.00031843,-0.00050794,0.00058638,-0.00069289,0.0
 0033010,0.00026425,-0.00094407,0.00000025,0.00014368,-0.00056124,0.000
 36415,0.00027455,-0.00014633,0.00005146,0.00012835,-0.00005367,0.00002
 384,-0.00030920,-0.00267894,0.00029122,0.00054260,-0.00018456,-0.00093
 738,0.00035520,-0.00097228,0.00081742,-0.00031733,-0.00013029,-0.00020
 147,0.00002305,0.00003995,-0.00001731,0.00012726,0.00011307,0.00013394
 ,0.00004204,0.00013814,0.00006476,-0.00015841,-0.00004769,0.00020987,-
 0.00004966,-0.00001778,0.00006651,-0.00007097,-0.00004028,-0.00003981,
 -0.00004438,-0.00003228,0.00002135,-0.00323559,0.00755404,0.02230623,0
 .02806756,0.28617998,0.00207013,-0.00238633,-0.00047263,-0.00064410,-0
 .00010473,-0.00174496,0.00004092,-0.00098775,-0.00066909,0.00030269,0.
 00008366,0.00085564,0.00038786,-0.00029348,0.00026827,0.00016126,-0.00
 003316,0.00005291,-0.00015537,0.00026753,-0.00023838,-0.00029263,-0.00
 016174,-0.00013956,0.00010070,0.00021466,-0.00021853,0.00022151,0.0000
 2743,0.00017253,-0.00005042,0.00004602,0.00005009,-0.00006672,-0.00011
 244,0.00006751,0.00001992,0.00009419,0.00007683,0.00005941,0.00000256,
 -0.00017701,-0.00000129,0.00000120,-0.00001101,0.00000161,0.00000824,0
 .00001143,-0.00000702,0.00002207,0.00000094,0.00619034,-0.00187754,-0.
 03047292,0.03655164,-0.12726409,0.45592350,0.00054594,-0.00005595,0.00
 017468,-0.00011811,-0.00040473,-0.00008358,-0.00002455,-0.00006466,-0.
 00000644,-0.00000269,0.00003425,0.00003389,0.00001770,-0.00002602,0.00
 000806,-0.00002295,0.00001350,-0.00000120,-0.00000078,0.00001939,-0.00
 003335,-0.00006695,-0.00001951,0.00000041,0.00003669,0.00008437,-0.000
 00480,0.00005911,0.00002853,0.00003485,0.00000184,0.00001102,0.0000027
 3,-0.00006189,-0.00002955,0.00003629,0.00000469,0.00000290,0.00000474,
 0.00001574,-0.00000304,-0.00007255,0.00000060,0.00000072,-0.00000287,0
 .00000027,0.00000005,0.00000361,0.00000020,0.00000300,-0.00000130,0.00
 049078,0.00057324,-0.00066928,-0.25780375,-0.13681594,0.08597200,0.274
 53089,-0.00127677,-0.00088208,0.00048564,0.00041468,0.00065814,-0.0001
 2018,0.00022757,0.00038732,0.00004969,-0.00020205,-0.00023165,-0.00043
 198,-0.00012617,0.00019377,-0.00007637,0.00012046,-0.00003100,-0.00002
 661,0.00021127,-0.00013983,0.00000258,0.00019558,0.00009884,-0.0000333
 1,-0.00001128,-0.00013022,0.00005389,-0.00008389,-0.00004354,-0.000063
 34,-0.00001906,-0.00000975,-0.00000027,0.00013497,0.00006295,-0.000094
 05,-0.00003319,-0.00001255,-0.00001818,-0.00000775,0.00001928,0.000124
 18,0.00000403,0.00000373,-0.00000073,0.00000498,0.00000198,-0.00000420
 ,0.00000124,-0.00000219,0.00000069,-0.00158101,-0.00099222,0.00232622,
 -0.18518403,-0.13900123,0.09489138,0.15822798,0.13310998,-0.00023091,0
 .00030662,0.00011472,0.00003362,-0.00015231,0.00008824,0.00008735,0.00
 004375,0.00004590,-0.00007102,-0.00004394,-0.00002383,-0.00002808,0.00
 004104,-0.00005379,-0.00000849,-0.00000626,0.00000058,-0.00005633,-0.0
 0002257,-0.00001224,0.00001653,-0.00004417,-0.00008419,-0.00001056,-0.
 00006375,0.00004721,-0.00003471,-0.00000252,-0.00001187,0.00002808,-0.
 00002654,0.00004155,0.00004847,0.00001561,-0.00000638,-0.00000427,0.00
 000373,-0.00000010,-0.00002144,-0.00000892,0.00003753,-0.00000294,-0.0
 0000064,0.00000428,-0.00000358,-0.00000136,-0.00000192,0.,-0.00000029,
 0.00000215,0.00196168,-0.00001932,-0.00131095,0.07938281,0.06584240,-0
 .09328944,-0.09814421,-0.07901751,0.11801813,-0.00044148,0.00038410,-0
 .00006600,0.00025159,0.00000232,0.00023111,0.00001384,0.00006166,-0.00
 004150,-0.00000976,-0.00004284,-0.00010468,0.00001209,0.00001128,-0.00
 003345,0.00003130,-0.00001372,-0.00000314,0.00001603,-0.00001707,-0.00
 000391,0.00001760,-0.00000738,0.00002691,-0.00001699,-0.00001927,0.000
 00366,-0.00000669,-0.00000005,-0.00002088,0.00000069,0.00000770,-0.000
 01559,-0.00000411,0.00000467,0.00000845,0.00000040,-0.00000515,-0.0000
 0267,-0.00001892,-0.00000842,0.00000747,-0.00000137,-0.00000119,0.0000
 0391,-0.00000233,-0.00000171,-0.00000286,-0.00000152,-0.00000362,0.000
 00002,0.00177018,-0.00133682,0.00126806,-0.32948695,0.10997676,-0.1073
 7322,-0.02640822,0.01674542,-0.01039589,0.34620910,-0.00049938,0.00273
 051,0.00015431,0.00038800,-0.00100761,0.00055725,-0.00023585,-0.000322
 15,-0.00040676,0.00023963,-0.00010897,0.00015091,0.00020131,-0.0001114
 5,-0.00003484,-0.00001787,0.00003931,0.00000191,-0.00020746,-0.0000131
 7,-0.00000992,0.00007534,-0.00005672,-0.00007968,0.00004277,-0.0000318
 3,0.00011200,-0.00006620,-0.00001307,-0.00008227,0.00003528,0.00002775
 ,-0.00007179,-0.00006611,0.00002653,0.00005094,0.00003700,0.00000366,-
 0.00001428,-0.00008325,-0.00003591,0.00003277,-0.00001904,-0.00000866,
 0.00002432,-0.00002601,-0.00002023,-0.00001313,-0.00001193,-0.00001720
 ,0.00000203,0.00024114,0.00052472,0.00122795,0.15703262,-0.08188559,0.
 07838438,-0.02435554,0.00290932,-0.00832463,-0.12605671,0.07949009,-0.
 00021387,0.00084127,-0.00029207,0.00013447,-0.00018423,0.00047731,-0.0
 0000089,-0.00020174,-0.00004284,0.00003624,0.00003981,0.00012527,0.000
 07166,-0.00005561,-0.00002438,-0.00003475,0.00001650,0.00000494,-0.000
 04875,-0.00002096,-0.00001426,-0.00001588,-0.00004880,-0.00005898,0.00
 001053,-0.00001938,0.00003050,-0.00000935,0.00000048,-0.00000163,0.000
 01834,-0.00001663,0.00002590,-0.00000566,0.00000105,0.00002049,0.00001
 261,0.00000420,0.00000066,-0.00001567,-0.00001537,0.00000093,-0.000004
 56,-0.00000076,0.00000407,-0.00000666,-0.00000312,-0.00000218,-0.00000
 091,-0.00000109,0.00000195,-0.00100093,-0.00287294,-0.00817671,-0.0898
 0793,0.04947730,-0.08625144,0.01226119,-0.00628068,0.00670995,0.112622
 64,-0.06017799,0.11631633,-0.00300961,-0.00058874,-0.00168757,0.000042
 90,0.00373264,0.00213649,0.00022266,0.00009275,0.00001522,0.00000249,-
 0.00014528,-0.00012357,-0.00000308,0.00006944,-0.00000812,0.00004433,-
 0.00001498,-0.00003804,0.00075158,0.00023978,0.00010423,0.00009013,-0.
 00026529,0.00025017,-0.00020351,-0.00014133,-0.00012690,-0.00010219,-0
 .00009461,-0.00007561,-0.00011033,0.00006298,-0.00018106,0.00013825,0.
 00009202,-0.00020512,-0.00002395,-0.00001193,-0.00001634,0.00006736,0.
 00007247,0.00017519,0.00000298,0.00000337,-0.00000486,0.00001176,0.000
 00221,-0.00000247,-0.00000330,-0.00000572,-0.00000280,-0.20251386,0.15
 331215,-0.07473899,-0.07524481,-0.00401995,-0.03164904,0.00707809,0.00
 853152,0.02725441,0.00875711,-0.00457135,-0.03180216,0.33360952,0.0016
 8899,-0.00064201,0.00034602,0.00143187,-0.00251937,-0.00151668,-0.0001
 9443,-0.00026788,-0.00066905,0.00002772,0.00012638,0.00055886,0.000214
 39,-0.00015754,0.00007493,0.00004832,-0.00000884,0.00004035,0.00003151
 ,0.00003302,0.00003937,-0.00052244,0.00000077,-0.00000575,-0.00000305,
 0.00005466,0.00007302,0.00024541,-0.00004581,-0.00000634,-0.00011112,0
 .00002142,-0.00015375,-0.00005524,-0.00004740,-0.00002750,0.00002260,0
 .00004351,0.00001382,-0.00000065,0.00003046,-0.00004764,-0.00000958,-0
 .00000735,0.00001275,-0.00000710,-0.00001625,-0.00000572,-0.00002322,-
 0.00000020,-0.00000072,0.19627118,-0.21044600,0.06014202,0.00596690,-0
 .07246877,-0.03969996,0.00185569,0.00105454,0.02053416,0.00005258,-0.0
 0205308,0.01968272,-0.06739582,0.63893645,-0.00011623,-0.00009528,-0.0
 0004466,-0.00008451,-0.00024529,-0.00000189,-0.00030609,0.00043080,-0.
 00083155,0.00049171,-0.00044120,-0.00043445,0.00005774,-0.00001947,0.0
 0006025,0.00000011,0.00000643,-0.00002314,0.00030198,0.00029780,0.0000
 3136,0.00015205,0.00035458,0.00006242,-0.00027019,-0.00008485,-0.00011
 667,-0.00021274,-0.00011277,-0.00006775,0.00005548,-0.00001444,-0.0001
 1277,0.00010332,0.00004752,-0.00013990,0.00000047,0.00000402,-0.000012
 57,0.00002249,0.00004851,0.00018228,-0.00000825,-0.00001115,0.00001005
 ,0.00000047,-0.00000536,-0.00000560,-0.00000271,-0.00001488,0.00000042
 ,-0.11427973,0.07472072,-0.08114965,0.02026264,0.02614568,-0.21364575,
 0.00146759,-0.01089023,-0.03319147,0.00361170,-0.00965575,-0.02777433,
 0.14251352,-0.00494285,0.42426057,-0.00009228,0.00014677,-0.00004795,-
 0.00010070,0.00003310,0.00011498,0.00010259,-0.00011022,0.00015569,-0.
 00008878,0.00007010,0.00008918,-0.00001918,0.00000198,0.00000155,-0.00
 000660,-0.00000251,0.00000454,-0.00006847,-0.00007733,-0.00001891,-0.0
 0004913,0.00004324,-0.00005331,0.00008044,0.00005515,0.00004224,0.0000
 8085,-0.00000826,0.00001260,-0.00002378,0.00000109,0.00001541,-0.00004
 321,-0.00002181,0.00002481,0.00000160,0.00000091,0.00000127,0.00000882
 ,0.00000150,-0.00004419,0.00000065,-0.00000098,0.00000121,-0.00000066,
 -0.00000079,-0.00000029,-0.00000285,0.00000015,0.00000052,0.00488262,0
 .02730834,0.00740974,-0.00200124,0.00480177,0.00815981,0.00172734,0.00
 370550,0.00019948,-0.00068158,-0.00207640,-0.00219971,-0.06960453,-0.1
 3953451,-0.05376083,0.06589810,-0.00019695,0.00055551,0.00040606,0.000
 23734,-0.00032150,-0.00026918,-0.00012551,0.00010071,-0.00022133,0.000
 09648,-0.00003811,-0.00001813,0.00003625,-0.00000794,0.00000483,0.0000
 1700,-0.00000768,-0.00000131,0.00010577,0.00003710,0.00007877,0.000090
 30,-0.00008830,0.00002177,-0.00000811,-0.00002830,0.00005840,0.0000162
 9,-0.00002002,-0.00005669,-0.00003473,0.00005138,-0.00012835,-0.000015
 07,-0.00000158,-0.00001008,0.00000511,0.00000554,-0.00001132,-0.000019
 90,0.00000300,0.00000930,-0.00001144,-0.00000616,0.00001495,-0.0000112
 5,-0.00000969,-0.00000754,-0.00001366,-0.00000968,-0.00000144,-0.01633
 433,-0.02591436,-0.00566465,-0.00172820,0.00551430,-0.00112211,0.00092
 030,0.00297643,0.00094741,0.00026746,-0.00006626,-0.00016404,-0.088956
 32,-0.35162072,-0.07552254,0.10566320,0.36889633,-0.00044037,0.0003932
 8,-0.00094508,-0.00013679,0.00049534,0.00065021,-0.00000727,-0.0002264
 2,-0.00021562,0.00003489,0.00003200,0.00034736,0.00011668,-0.00007183,
 0.00003787,0.00002079,-0.00000813,0.00001875,-0.00010056,0.00008337,0.
 00002960,-0.00000063,-0.00002990,-0.00006719,-0.00009801,-0.00011041,-
 0.00004877,-0.00013557,-0.00001010,0.00002275,0.00006023,-0.00005955,0
 .00011714,0.00011433,0.00004534,-0.00003189,0.00000712,0.00001967,0.00
 002616,0.00001151,0.00000221,0.00009394,0.00000341,0.00000551,-0.00000
 654,0.00000445,0.00000515,0.00000181,0.00000960,0.00000416,0.00000562,
 0.00715169,0.01209799,0.00507306,-0.01402050,-0.03717847,-0.03014892,-
 0.00098046,-0.00087663,0.00287592,0.00027983,-0.00182773,-0.00107949,-
 0.03178656,-0.05444203,-0.06705519,0.03989217,0.08165719,0.09029848\\0
 .00002150,0.00002201,-0.00000048,-0.00003448,-0.00001655,-0.00002295,-
 0.00000059,-0.00000083,-0.00000138,-0.00000075,-0.00000028,0.00000036,
 0.00000318,0.00000289,0.00000589,-0.00000074,0.00000486,0.00000477,0.0
 0000230,-0.00000903,0.00001663,0.00001920,-0.00000935,-0.00002193,0.00
 000045,0.00000257,-0.00000801,-0.00001109,-0.00000920,-0.00000398,-0.0
 0000321,0.00003219,0.00000778,0.00000820,-0.00000154,-0.00000045,0.000
 00291,-0.00000144,-0.00000024,0.00000566,0.00000049,0.00000459,0.00000
 079,-0.00000041,-0.00000088,0.00000444,-0.00000370,-0.00000121,0.00000
 335,-0.00000434,-0.00000124,-0.00001488,0.00002594,0.00007663,-0.00001
 260,-0.00000271,0.00000420,0.00000570,0.00000003,-0.00000502,-0.000005
 02,0.00000696,0.00000744,-0.00000797,-0.00004584,-0.00006447,0.0000136
 4,0.00000726,0.00000396\\\@


 IT IS BY LOGIC THAT WE PROVE, BUT BY INTUITION THAT WE DISCOVER.
     -- J.H.POINCARE (1854-1912)
 Job cpu time:       0 days  0 hours 39 minutes 39.2 seconds.
 Elapsed time:       0 days  0 hours  1 minutes 16.2 seconds.
 File lengths (MBytes):  RWF=    183 Int=      0 D2E=      0 Chk=     14 Scr=      1
 Normal termination of Gaussian 16 at Fri May 17 16:24:39 2019.
