 Entering Gaussian System, Link 0=g16
 Initial command:
 /opt/software/gaussian/g16.b01/l1.exe "/localscratch/rzk.14592655.0/Gau-1086.inp" -scrdir="/localscratch/rzk.14592655.0/"
 Entering Link 1 = /opt/software/gaussian/g16.b01/l1.exe PID=      1093.
  
 Copyright (c) 1988-2017, Gaussian, Inc.  All Rights Reserved.
  
 This is part of the Gaussian(R) 16 program.  It is based on
 the Gaussian(R) 09 system (copyright 2009, Gaussian, Inc.),
 the Gaussian(R) 03 system (copyright 2003, Gaussian, Inc.),
 the Gaussian(R) 98 system (copyright 1998, Gaussian, Inc.),
 the Gaussian(R) 94 system (copyright 1995, Gaussian, Inc.),
 the Gaussian 92(TM) system (copyright 1992, Gaussian, Inc.),
 the Gaussian 90(TM) system (copyright 1990, Gaussian, Inc.),
 the Gaussian 88(TM) system (copyright 1988, Gaussian, Inc.),
 the Gaussian 86(TM) system (copyright 1986, Carnegie Mellon
 University), and the Gaussian 82(TM) system (copyright 1983,
 Carnegie Mellon University). Gaussian is a federally registered
 trademark of Gaussian, Inc.
  
 This software contains proprietary and confidential information,
 including trade secrets, belonging to Gaussian, Inc.
  
 This software is provided under written license and may be
 used, copied, transmitted, or stored only in accord with that
 written license.
  
 The following legend is applicable only to US Government
 contracts under FAR:
  
                    RESTRICTED RIGHTS LEGEND
  
 Use, reproduction and disclosure by the US Government is
 subject to restrictions as set forth in subparagraphs (a)
 and (c) of the Commercial Computer Software - Restricted
 Rights clause in FAR 52.227-19.
  
 Gaussian, Inc.
 340 Quinnipiac St., Bldg. 40, Wallingford CT 06492
  
  
 ---------------------------------------------------------------
 Warning -- This program may not be used in any manner that
 competes with the business of Gaussian, Inc. or will provide
 assistance to any competitor of Gaussian, Inc.  The licensee
 of this program is prohibited from giving any competitor of
 Gaussian, Inc. access to this program.  By using this program,
 the user acknowledges that Gaussian, Inc. is engaged in the
 business of creating and licensing software in the field of
 computational chemistry and represents and warrants to the
 licensee that it is not a competitor of Gaussian, Inc. and that
 it will not use this program in any manner prohibited above.
 ---------------------------------------------------------------
  

 Cite this work as:
 Gaussian 16, Revision B.01,
 M. J. Frisch, G. W. Trucks, H. B. Schlegel, G. E. Scuseria, 
 M. A. Robb, J. R. Cheeseman, G. Scalmani, V. Barone, 
 G. A. Petersson, H. Nakatsuji, X. Li, M. Caricato, A. V. Marenich, 
 J. Bloino, B. G. Janesko, R. Gomperts, B. Mennucci, H. P. Hratchian, 
 J. V. Ortiz, A. F. Izmaylov, J. L. Sonnenberg, D. Williams-Young, 
 F. Ding, F. Lipparini, F. Egidi, J. Goings, B. Peng, A. Petrone, 
 T. Henderson, D. Ranasinghe, V. G. Zakrzewski, J. Gao, N. Rega, 
 G. Zheng, W. Liang, M. Hada, M. Ehara, K. Toyota, R. Fukuda, 
 J. Hasegawa, M. Ishida, T. Nakajima, Y. Honda, O. Kitao, H. Nakai, 
 T. Vreven, K. Throssell, J. A. Montgomery, Jr., J. E. Peralta, 
 F. Ogliaro, M. J. Bearpark, J. J. Heyd, E. N. Brothers, K. N. Kudin, 
 V. N. Staroverov, T. A. Keith, R. Kobayashi, J. Normand, 
 K. Raghavachari, A. P. Rendell, J. C. Burant, S. S. Iyengar, 
 J. Tomasi, M. Cossi, J. M. Millam, M. Klene, C. Adamo, R. Cammi, 
 J. W. Ochterski, R. L. Martin, K. Morokuma, O. Farkas, 
 J. B. Foresman, and D. J. Fox, Gaussian, Inc., Wallingford CT, 2016.
 
 ******************************************
 Gaussian 16:  ES64L-G16RevB.01 20-Dec-2017
                10-May-2019 
 ******************************************
 %NProcShared=32
 Will use up to   32 processors via shared memory.
 %chk=AH-Opt-State-07.chk
 ----------------------------------------------------------------------
 #p opt td=(50-50,nstates=12,root=07) ub3lyp/6-31g(d,p) scrf=(iefpcm,so
 lvent=acetonitrile) guess=(core,mix,always) empiricaldispersion=gd3
 ----------------------------------------------------------------------
 1/18=20,19=15,26=3,38=1/1,3;
 2/9=110,12=2,17=6,18=5,40=1/2;
 3/5=1,6=6,7=101,11=2,25=1,30=1,70=2201,71=1,72=2,74=-5,116=2,124=31/1,2,3,8;
 4/5=2,13=-1/1;
 5/5=2,38=5,53=2/2;
 8/6=1,10=2,107=7,108=12/1;
 9/8=7,15=2,41=12,42=1,48=2,70=2/14;
 10/5=4,28=7/2;
 6/7=2,8=2,9=2,10=2/1;
 7/12=6,13=5,14=7/1,2,3,16;
 1/18=20,19=15,26=3/3(2);
 2/9=110/2;
 99//99;
 2/9=110/2;
 3/5=1,6=6,7=101,11=2,25=1,30=1,70=2205,71=1,72=2,74=-5,116=2,124=31/1,2,3,8;
 4/5=2,13=-1/1;
 5/5=2,38=5,53=2/2;
 8/6=1,10=2,107=7,108=12/1;
 9/8=7,15=2,41=12,42=1,48=2,49=4,70=2/14;
 10/5=4,28=7/2;
 7/12=6,13=5,14=7/1,2,3,16;
 1/18=20,19=15,26=3/3(-8);
 2/9=110/2;
 6/7=2,8=2,9=2,10=2/1;
 99/9=10/99;
 Leave Link    1 at Fri May 10 12:31:19 2019, MaxMem=           0 cpu:               4.2 elap:               0.1
 (Enter /opt/software/gaussian/g16.b01/l101.exe)
 -------------------
 Title Card Required
 -------------------
 Symbolic Z-matrix:
 Charge =  0 Multiplicity = 1
 C                    -1.69731  -0.2014   -0.00002 
 O                    -2.21791  -1.31224  -0.00003 
 C                    -2.55327   1.04945  -0.00002 
 H                    -2.34332   1.66352   0.88201 
 H                    -2.34287   1.66396  -0.88163 
 H                    -3.60462   0.76106  -0.0004 
 C                    -0.20697  -0.05671   0.00006 
 C                     0.57802  -1.22203   0.00005 
 C                     0.42835   1.19547   0.00008 
 C                     1.96697  -1.13917  0. 
 H                     0.07595  -2.18349   0. 
 C                     1.82098   1.27802  0. 
 H                    -0.15524   2.10952  -0.00004 
 C                     2.59142   0.1129   -0.00003 
 H                     2.56501  -2.04535  -0.00008 
 H                     2.30385   2.25026  -0.00014 
 H                     3.6753    0.17925  -0.00013 
 
 ITRead=  0  0  0  0  0  0  0  0  0  0  0  0  0  0  0  0  0
 MicOpt= -1 -1 -1 -1 -1 -1 -1 -1 -1 -1 -1 -1 -1 -1 -1 -1 -1
 NAtoms=     17 NQM=       17 NQMF=       0 NMMI=      0 NMMIF=      0
                NMic=       0 NMicF=      0.
                    Isotopes and Nuclear Properties:
 (Nuclear quadrupole moments (NQMom) in fm**2, nuclear magnetic moments (NMagM)
  in nuclear magnetons)

  Atom         1           2           3           4           5           6           7           8           9          10
 IAtWgt=          12          16          12           1           1           1          12          12          12          12
 AtmWgt=  12.0000000  15.9949146  12.0000000   1.0078250   1.0078250   1.0078250  12.0000000  12.0000000  12.0000000  12.0000000
 NucSpn=           0           0           0           1           1           1           0           0           0           0
 AtZEff=  -0.0000000  -0.0000000  -0.0000000  -0.0000000  -0.0000000  -0.0000000  -0.0000000  -0.0000000  -0.0000000  -0.0000000
 NQMom=    0.0000000   0.0000000   0.0000000   0.0000000   0.0000000   0.0000000   0.0000000   0.0000000   0.0000000   0.0000000
 NMagM=    0.0000000   0.0000000   0.0000000   2.7928460   2.7928460   2.7928460   0.0000000   0.0000000   0.0000000   0.0000000
 AtZNuc=   6.0000000   8.0000000   6.0000000   1.0000000   1.0000000   1.0000000   6.0000000   6.0000000   6.0000000   6.0000000

  Atom        11          12          13          14          15          16          17
 IAtWgt=           1          12           1          12           1           1           1
 AtmWgt=   1.0078250  12.0000000   1.0078250  12.0000000   1.0078250   1.0078250   1.0078250
 NucSpn=           1           0           1           0           1           1           1
 AtZEff=  -0.0000000  -0.0000000  -0.0000000  -0.0000000  -0.0000000  -0.0000000  -0.0000000
 NQMom=    0.0000000   0.0000000   0.0000000   0.0000000   0.0000000   0.0000000   0.0000000
 NMagM=    2.7928460   0.0000000   2.7928460   0.0000000   2.7928460   2.7928460   2.7928460
 AtZNuc=   1.0000000   6.0000000   1.0000000   6.0000000   1.0000000   1.0000000   1.0000000
 Leave Link  101 at Fri May 10 12:31:19 2019, MaxMem=   104857600 cpu:               5.3 elap:               0.2
 (Enter /opt/software/gaussian/g16.b01/l103.exe)

 GradGradGradGradGradGradGradGradGradGradGradGradGradGradGradGradGradGrad
 Berny optimization.
 Initialization pass.
                           ----------------------------
                           !    Initial Parameters    !
                           ! (Angstroms and Degrees)  !
 --------------------------                            --------------------------
 ! Name  Definition              Value          Derivative Info.                !
 --------------------------------------------------------------------------------
 ! R1    R(1,2)                  1.2268         estimate D2E/DX2                !
 ! R2    R(1,3)                  1.5157         estimate D2E/DX2                !
 ! R3    R(1,7)                  1.4973         estimate D2E/DX2                !
 ! R4    R(3,4)                  1.0951         estimate D2E/DX2                !
 ! R5    R(3,5)                  1.095          estimate D2E/DX2                !
 ! R6    R(3,6)                  1.0902         estimate D2E/DX2                !
 ! R7    R(7,8)                  1.4051         estimate D2E/DX2                !
 ! R8    R(7,9)                  1.4041         estimate D2E/DX2                !
 ! R9    R(8,10)                 1.3914         estimate D2E/DX2                !
 ! R10   R(8,11)                 1.0847         estimate D2E/DX2                !
 ! R11   R(9,12)                 1.3951         estimate D2E/DX2                !
 ! R12   R(9,13)                 1.0845         estimate D2E/DX2                !
 ! R13   R(10,14)                1.3991         estimate D2E/DX2                !
 ! R14   R(10,15)                1.0857         estimate D2E/DX2                !
 ! R15   R(12,14)                1.3968         estimate D2E/DX2                !
 ! R16   R(12,16)                1.0856         estimate D2E/DX2                !
 ! R17   R(14,17)                1.0859         estimate D2E/DX2                !
 ! A1    A(2,1,3)              120.5057         estimate D2E/DX2                !
 ! A2    A(2,1,7)              120.6555         estimate D2E/DX2                !
 ! A3    A(3,1,7)              118.8388         estimate D2E/DX2                !
 ! A4    A(1,3,4)              110.7628         estimate D2E/DX2                !
 ! A5    A(1,3,5)              110.7696         estimate D2E/DX2                !
 ! A6    A(1,3,6)              109.0446         estimate D2E/DX2                !
 ! A7    A(4,3,5)              107.2746         estimate D2E/DX2                !
 ! A8    A(4,3,6)              109.4827         estimate D2E/DX2                !
 ! A9    A(5,3,6)              109.4796         estimate D2E/DX2                !
 ! A10   A(1,7,8)              118.42           estimate D2E/DX2                !
 ! A11   A(1,7,9)              122.4471         estimate D2E/DX2                !
 ! A12   A(8,7,9)              119.1329         estimate D2E/DX2                !
 ! A13   A(7,8,10)             120.5516         estimate D2E/DX2                !
 ! A14   A(7,8,11)             118.4615         estimate D2E/DX2                !
 ! A15   A(10,8,11)            120.9869         estimate D2E/DX2                !
 ! A16   A(7,9,12)             120.294          estimate D2E/DX2                !
 ! A17   A(7,9,13)             120.5415         estimate D2E/DX2                !
 ! A18   A(12,9,13)            119.1645         estimate D2E/DX2                !
 ! A19   A(8,10,14)            119.9207         estimate D2E/DX2                !
 ! A20   A(8,10,15)            120.0096         estimate D2E/DX2                !
 ! A21   A(14,10,15)           120.0697         estimate D2E/DX2                !
 ! A22   A(9,12,14)            120.0826         estimate D2E/DX2                !
 ! A23   A(9,12,16)            119.8039         estimate D2E/DX2                !
 ! A24   A(14,12,16)           120.1135         estimate D2E/DX2                !
 ! A25   A(10,14,12)           120.0182         estimate D2E/DX2                !
 ! A26   A(10,14,17)           120.0103         estimate D2E/DX2                !
 ! A27   A(12,14,17)           119.9715         estimate D2E/DX2                !
 ! D1    D(2,1,3,4)            120.5247         estimate D2E/DX2                !
 ! D2    D(2,1,3,5)           -120.5655         estimate D2E/DX2                !
 ! D3    D(2,1,3,6)             -0.0202         estimate D2E/DX2                !
 ! D4    D(7,1,3,4)            -59.4729         estimate D2E/DX2                !
 ! D5    D(7,1,3,5)             59.437          estimate D2E/DX2                !
 ! D6    D(7,1,3,6)            179.9823         estimate D2E/DX2                !
 ! D7    D(2,1,7,8)              0.003          estimate D2E/DX2                !
 ! D8    D(2,1,7,9)           -179.9999         estimate D2E/DX2                !
 ! D9    D(3,1,7,8)           -179.9994         estimate D2E/DX2                !
 ! D10   D(3,1,7,9)             -0.0023         estimate D2E/DX2                !
 ! D11   D(1,7,8,10)           179.9943         estimate D2E/DX2                !
 ! D12   D(1,7,8,11)            -0.0009         estimate D2E/DX2                !
 ! D13   D(9,7,8,10)            -0.003          estimate D2E/DX2                !
 ! D14   D(9,7,8,11)          -179.9981         estimate D2E/DX2                !
 ! D15   D(1,7,9,12)          -179.993          estimate D2E/DX2                !
 ! D16   D(1,7,9,13)            -0.0045         estimate D2E/DX2                !
 ! D17   D(8,7,9,12)             0.0041         estimate D2E/DX2                !
 ! D18   D(8,7,9,13)           179.9926         estimate D2E/DX2                !
 ! D19   D(7,8,10,14)            0.0009         estimate D2E/DX2                !
 ! D20   D(7,8,10,15)         -179.9956         estimate D2E/DX2                !
 ! D21   D(11,8,10,14)         179.9959         estimate D2E/DX2                !
 ! D22   D(11,8,10,15)          -0.0005         estimate D2E/DX2                !
 ! D23   D(7,9,12,14)           -0.0033         estimate D2E/DX2                !
 ! D24   D(7,9,12,16)          179.9907         estimate D2E/DX2                !
 ! D25   D(13,9,12,14)        -179.9919         estimate D2E/DX2                !
 ! D26   D(13,9,12,16)           0.002          estimate D2E/DX2                !
 ! D27   D(8,10,14,12)           0.0            estimate D2E/DX2                !
 ! D28   D(8,10,14,17)        -179.9966         estimate D2E/DX2                !
 ! D29   D(15,10,14,12)        179.9965         estimate D2E/DX2                !
 ! D30   D(15,10,14,17)         -0.0001         estimate D2E/DX2                !
 ! D31   D(9,12,14,10)           0.0011         estimate D2E/DX2                !
 ! D32   D(9,12,14,17)         179.9978         estimate D2E/DX2                !
 ! D33   D(16,12,14,10)       -179.9927         estimate D2E/DX2                !
 ! D34   D(16,12,14,17)          0.0039         estimate D2E/DX2                !
 --------------------------------------------------------------------------------
 Trust Radius=3.00D-01 FncErr=1.00D-07 GrdErr=1.00D-06 EigMax=2.50D+02 EigMin=1.00D-04
 Number of steps in this run=     88 maximum allowed number of steps=    102.
 GradGradGradGradGradGradGradGradGradGradGradGradGradGradGradGradGradGrad

 Leave Link  103 at Fri May 10 12:31:20 2019, MaxMem=   104857600 cpu:               1.9 elap:               0.1
 (Enter /opt/software/gaussian/g16.b01/l202.exe)
                          Input orientation:                          
 ---------------------------------------------------------------------
 Center     Atomic      Atomic             Coordinates (Angstroms)
 Number     Number       Type             X           Y           Z
 ---------------------------------------------------------------------
      1          6           0       -1.697308   -0.201402   -0.000018
      2          8           0       -2.217905   -1.312239   -0.000029
      3          6           0       -2.553274    1.049452   -0.000024
      4          1           0       -2.343318    1.663518    0.882011
      5          1           0       -2.342868    1.663956   -0.881626
      6          1           0       -3.604616    0.761060   -0.000401
      7          6           0       -0.206967   -0.056710    0.000057
      8          6           0        0.578022   -1.222025    0.000049
      9          6           0        0.428351    1.195472    0.000075
     10          6           0        1.966970   -1.139173   -0.000003
     11          1           0        0.075953   -2.183491    0.000004
     12          6           0        1.820979    1.278019   -0.000002
     13          1           0       -0.155236    2.109523   -0.000039
     14          6           0        2.591420    0.112896   -0.000029
     15          1           0        2.565010   -2.045346   -0.000081
     16          1           0        2.303854    2.250264   -0.000141
     17          1           0        3.675304    0.179252   -0.000125
 ---------------------------------------------------------------------
                    Distance matrix (angstroms):
                    1          2          3          4          5
     1  C    0.000000
     2  O    1.226776   0.000000
     3  C    1.515689   2.385384   0.000000
     4  H    2.161766   3.106260   1.095054   0.000000
     5  H    2.161837   3.106536   1.095038   1.763637   0.000000
     6  H    2.136389   2.494301   1.090179   1.784364   1.784317
     7  C    1.497348   2.370701   2.593984   2.881150   2.880995
     8  C    2.493752   2.797382   3.868413   4.199815   4.199742
     9  C    2.543557   3.645722   2.985198   2.946019   2.945595
    10  C    3.782373   4.188452   5.022219   5.216475   5.216272
    11  H    2.659536   2.453745   4.167104   4.629286   4.629343
    12  C    3.816678   4.798127   4.380221   4.274099   4.273620
    13  H    2.778194   3.995380   2.621896   2.400966   2.400304
    14  C    4.300229   5.016036   5.229246   5.247291   5.246923
    15  H    4.644081   4.838773   5.981188   6.214937   6.214765
    16  H    4.692543   5.756538   5.003363   4.766411   4.765795
    17  H    5.386080   6.079018   6.289072   6.261391   6.260973
                    6          7          8          9         10
     6  H    0.000000
     7  C    3.494677   0.000000
     8  C    4.628940   1.405050   0.000000
     9  C    4.056296   1.404133   2.422126   0.000000
    10  C    5.886719   2.428524   1.391417   2.796054   0.000000
    11  H    4.713488   2.145517   1.084661   3.397289   2.160219
    12  C    5.450168   2.427770   2.791982   1.395072   2.421597
    13  H    3.703589   2.166851   3.411287   1.084464   3.880436
    14  C    6.229846   2.803522   2.415737   2.418851   1.399148
    15  H    6.777920   3.411529   2.150809   3.881780   1.085726
    16  H    6.093254   3.409744   3.877536   2.151766   3.406138
    17  H    7.303132   3.889435   3.399520   3.402265   2.157927
                   11         12         13         14         15
    11  H    0.000000
    12  C    3.876489   0.000000
    13  H    4.299235   2.144021   0.000000
    14  C    3.406019   1.396815   3.395679   0.000000
    15  H    2.492888   3.405633   4.966153   2.158404   0.000000
    16  H    4.962028   1.085555   2.463114   2.156626   4.303541
    17  H    4.305564   2.155414   4.289404   1.085913   2.486280
                   16         17
    16  H    0.000000
    17  H    2.483942   0.000000
 Stoichiometry    C8H8O
 Framework group  C1[X(C8H8O)]
 Deg. of freedom    45
 Full point group                 C1      NOp   1
 Largest Abelian subgroup         C1      NOp   1
 Largest concise Abelian subgroup C1      NOp   1
                         Standard orientation:                         
 ---------------------------------------------------------------------
 Center     Atomic      Atomic             Coordinates (Angstroms)
 Number     Number       Type             X           Y           Z
 ---------------------------------------------------------------------
      1          6           0       -1.697308   -0.201402   -0.000018
      2          8           0       -2.217905   -1.312239   -0.000029
      3          6           0       -2.553274    1.049452   -0.000024
      4          1           0       -2.343318    1.663518    0.882011
      5          1           0       -2.342868    1.663956   -0.881626
      6          1           0       -3.604616    0.761060   -0.000401
      7          6           0       -0.206967   -0.056710    0.000057
      8          6           0        0.578022   -1.222025    0.000049
      9          6           0        0.428351    1.195472    0.000075
     10          6           0        1.966970   -1.139173   -0.000003
     11          1           0        0.075953   -2.183491    0.000004
     12          6           0        1.820979    1.278019   -0.000002
     13          1           0       -0.155236    2.109523   -0.000039
     14          6           0        2.591420    0.112896   -0.000029
     15          1           0        2.565010   -2.045346   -0.000081
     16          1           0        2.303854    2.250264   -0.000141
     17          1           0        3.675304    0.179252   -0.000125
 ---------------------------------------------------------------------
 Rotational constants (GHZ):           3.6751930           1.2126784           0.9169999
 Leave Link  202 at Fri May 10 12:31:20 2019, MaxMem=   104857600 cpu:               1.5 elap:               0.1
 (Enter /opt/software/gaussian/g16.b01/l301.exe)
 Standard basis: 6-31G(d,p) (6D, 7F)
 Ernie: Thresh=  0.10000D-02 Tol=  0.10000D-05 Strict=F.
 There are   175 symmetry adapted cartesian basis functions of A   symmetry.
 There are   175 symmetry adapted basis functions of A   symmetry.
   175 basis functions,   308 primitive gaussians,   175 cartesian basis functions
    32 alpha electrons       32 beta electrons
       nuclear repulsion energy       400.5229786133 Hartrees.
 IExCor=  402 DFT=T Ex+Corr=B3LYP ExCW=0 ScaHFX=  0.200000
 ScaDFX=  0.800000  0.720000  1.000000  0.810000 ScalE2=  1.000000  1.000000
 IRadAn=      5 IRanWt=     -1 IRanGd=            0 ICorTp=0 IEmpDi=131
 NAtoms=   17 NActive=   17 NUniq=   17 SFac= 1.00D+00 NAtFMM=   60 NAOKFM=F Big=F
 Integral buffers will be    131072 words long.
 Raffenetti 2 integral format.
 Two-electron integral symmetry is turned on.
 R6Disp:  Grimme-D3 Dispersion energy=       -0.0112399629 Hartrees.
 Nuclear repulsion after empirical dispersion term =      400.5117386504 Hartrees.
 ------------------------------------------------------------------------------
 Polarizable Continuum Model (PCM)
 =================================
 Model                : PCM.
 Atomic radii         : UFF (Universal Force Field).
 Polarization charges : Total charges.
 Charge compensation  : None.
 Solution method      : On-the-fly selection.
 Cavity type          : Scaled VdW (van der Waals Surface) (Alpha=1.100).
 Cavity algorithm     : GePol (No added spheres)
                        Default sphere list used, NSphG=   17.
                        Lebedev-Laikov grids with approx.  5.0 points / Ang**2.
                        Smoothing algorithm: York/Karplus (Gamma=1.0000).
                        Polarization charges: spherical gaussians, with
                                              point-specific exponents (IZeta= 3).
                        Self-potential: point-specific (ISelfS= 7).
                        Self-field    : sphere-specific E.n sum rule (ISelfD= 2).
 1st derivatives      : Analytical E(r).r(x)/FMM algorithm (CHGder, D1EAlg=3).
                        Cavity 1st derivative terms included.
 Solvent              : Acetonitrile, Eps=  35.688000 Eps(inf)=   1.806874
 ------------------------------------------------------------------------------
 Spheres list:
 ISph  on   Nord     Re0    Alpha      Xe            Ye            Ze
    1   C      1    1.9255  1.100     -1.697308     -0.201402     -0.000018
    2   O      2    1.7500  1.100     -2.217905     -1.312239     -0.000029
    3   C      3    1.9255  1.100     -2.553274      1.049452     -0.000024
    4   H      4    1.4430  1.100     -2.343318      1.663518      0.882011
    5   H      5    1.4430  1.100     -2.342868      1.663956     -0.881626
    6   H      6    1.4430  1.100     -3.604616      0.761060     -0.000401
    7   C      7    1.9255  1.100     -0.206967     -0.056710      0.000057
    8   C      8    1.9255  1.100      0.578022     -1.222025      0.000049
    9   C      9    1.9255  1.100      0.428351      1.195472      0.000075
   10   C     10    1.9255  1.100      1.966970     -1.139173     -0.000003
   11   H     11    1.4430  1.100      0.075953     -2.183491      0.000004
   12   C     12    1.9255  1.100      1.820979      1.278019     -0.000002
   13   H     13    1.4430  1.100     -0.155236      2.109523     -0.000039
   14   C     14    1.9255  1.100      2.591420      0.112896     -0.000029
   15   H     15    1.4430  1.100      2.565010     -2.045346     -0.000081
   16   H     16    1.4430  1.100      2.303854      2.250264     -0.000141
   17   H     17    1.4430  1.100      3.675304      0.179252     -0.000125
 ------------------------------------------------------------------------------
 GePol: Number of generator spheres                  =      17
 GePol: Total number of spheres                      =      17
 GePol: Number of exposed spheres                    =      17 (100.00%)
 GePol: Number of points                             =    1447
 GePol: Average weight of points                     =       0.13
 GePol: Minimum weight of points                     =   0.90D-07
 GePol: Maximum weight of points                     =    0.20577
 GePol: Number of points with low weight             =      84
 GePol: Fraction of low-weight points (<1% of avg)   =       5.81%
 GePol: Cavity surface area                          =    189.225 Ang**2
 GePol: Cavity volume                                =    188.062 Ang**3
 Leave Link  301 at Fri May 10 12:31:20 2019, MaxMem=   104857600 cpu:               4.0 elap:               0.2
 (Enter /opt/software/gaussian/g16.b01/l302.exe)
 NPDir=0 NMtPBC=     1 NCelOv=     1 NCel=       1 NClECP=     1 NCelD=      1
         NCelK=      1 NCelE2=     1 NClLst=     1 CellRange=     0.0.
 One-electron integrals computed using PRISM.
 One-electron integral symmetry used in STVInt
 PrsmSu:  requested number of processors reduced to:  30 ShMem   1 Linda.
 NBasis=   175 RedAO= T EigKep=  4.70D-04  NBF=   175
 NBsUse=   175 1.00D-06 EigRej= -1.00D+00 NBFU=   175
 Precomputing XC quadrature grid using
 IXCGrd= 4 IRadAn=           5 IRanWt=          -1 IRanGd=           0 AccXCQ= 0.00D+00.
 Generated NRdTot=       0 NPtTot=           0 NUsed=           0 NTot=          32
 NSgBfM=   175   175   175   175   175 MxSgAt=    17 MxSgA2=    17.
 Leave Link  302 at Fri May 10 12:31:21 2019, MaxMem=   104857600 cpu:               7.5 elap:               0.3
 (Enter /opt/software/gaussian/g16.b01/l303.exe)
 DipDrv:  MaxL=1.
 Leave Link  303 at Fri May 10 12:31:21 2019, MaxMem=   104857600 cpu:               2.0 elap:               0.1
 (Enter /opt/software/gaussian/g16.b01/l308.exe)
 Leave Link  308 at Fri May 10 12:31:21 2019, MaxMem=   104857600 cpu:               2.3 elap:               0.1
 (Enter /opt/software/gaussian/g16.b01/l401.exe)
 Core hamiltonian diagonalized for initial guess.
 JPrj=0 DoOrth=F DoCkMO=T.
 Mixing orbitals, IMix= 1 IMixAn=  0 NRI=1 NE=   32 Coef=  7.07106781D-01  7.07106781D-01
 Mixing orbitals, IMix= 1 IMixAn=  0 NRI=1 NE=   32 Coef= -7.07106781D-01  7.07106781D-01
 Initial guess <Sx>= 0.0000 <Sy>= 0.0000 <Sz>= 0.0000 <S**2>= 1.0000 S= 0.6180
 Leave Link  401 at Fri May 10 12:31:21 2019, MaxMem=   104857600 cpu:               4.7 elap:               0.2
 (Enter /opt/software/gaussian/g16.b01/l502.exe)
 Integral symmetry usage will be decided dynamically.
 UHF open shell SCF:
 Using DIIS extrapolation, IDIIS=  1040.
 NGot=   104857600 LenX=   104788772 LenY=   104757706
 Requested convergence on RMS density matrix=1.00D-08 within 128 cycles.
 Requested convergence on MAX density matrix=1.00D-06.
 Requested convergence on             energy=1.00D-06.
 No special actions if energy rises.
 Fock matrices will be formed incrementally for  20 cycles.

 Cycle   1  Pass 1  IDiag  1:
 FoFJK:  IHMeth= 1 ICntrl=       0 DoSepK=F KAlg= 0 I1Cent=           0 FoldK=F
 IRaf= 920000000 NMat=       1 IRICut=       1 DoRegI=T DoRafI=F ISym2E= 0 IDoP0=0 IntGTp=1.
 FoFCou: FMM=F IPFlag=           0 FMFlag=      100000 FMFlg1=           0
         NFxFlg=           0 DoJE=F BraDBF=F KetDBF=F FulRan=T
         wScrn=  0.000000 ICntrl=         0 IOpCl=  1 I1Cent=           0 NGrid=           0
         NMat0=    1 NMatS0=      1 NMatT0=    0 NMatD0=    1 NMtDS0=    0 NMtDT0=    0
 Symmetry not used in FoFCou.
 Inv3:  Mode=1 IEnd=     6281427.
 Iteration    1 A*A^-1 deviation from unit magnitude is 3.11D-15 for   1370.
 Iteration    1 A*A^-1 deviation from orthogonality  is 2.10D-15 for   1164    192.
 Iteration    1 A^-1*A deviation from unit magnitude is 3.11D-15 for   1370.
 Iteration    1 A^-1*A deviation from orthogonality  is 2.97D-15 for   1120    190.
 E= -305.541273211789    
 DIIS: error= 4.89D-01 at cycle   1 NSaved=   1.
 NSaved= 1 IEnMin= 1 EnMin= -305.541273211789     IErMin= 1 ErrMin= 4.89D-01
 ErrMax= 4.89D-01  0.00D+00 EMaxC= 1.00D-01 BMatC= 1.76D+02 BMatP= 1.76D+02
 IDIUse=3 WtCom= 0.00D+00 WtEn= 1.00D+00
 Coeff-Com:  0.100D+01
 Coeff-En:   0.100D+01
 Coeff:      0.100D+01
 Gap=     0.160 Goal=   None    Shift=    0.000
 Gap=     0.138 Goal=   None    Shift=    0.000
 GapD=    0.138 DampG=1.000 DampE=0.250 DampFc=0.2500 IDamp=-1.
 Damping current iteration by 2.50D-01
 RMSDP=2.31D-01 MaxDP=1.12D+01              OVMax= 9.98D-01

 Cycle   2  Pass 1  IDiag  1:
 RMSU=  5.60D-02    CP:  8.41D-01
 E= -343.246453277451     Delta-E=      -37.705180065662 Rises=F Damp=T
 DIIS: error= 3.08D-01 at cycle   2 NSaved=   2.
 NSaved= 2 IEnMin= 2 EnMin= -343.246453277451     IErMin= 2 ErrMin= 3.08D-01
 ErrMax= 3.08D-01  0.00D+00 EMaxC= 1.00D-01 BMatC= 6.60D+01 BMatP= 1.76D+02
 IDIUse=3 WtCom= 0.00D+00 WtEn= 1.00D+00
 Coeff-Com: -0.132D+01 0.232D+01
 Coeff-En:   0.000D+00 0.100D+01
 Coeff:      0.000D+00 0.100D+01
 Gap=     0.200 Goal=   None    Shift=    0.000
 Gap=     0.199 Goal=   None    Shift=    0.000
 RMSDP=1.41D-01 MaxDP=4.06D+00 DE=-3.77D+01 OVMax= 9.52D-01

 Cycle   3  Pass 1  IDiag  1:
 RMSU=  1.29D-01    CP:  2.15D-01  1.11D+00
 E= -339.977475875050     Delta-E=        3.268977402401 Rises=F Damp=F
 DIIS: error= 1.56D-01 at cycle   3 NSaved=   3.
 NSaved= 3 IEnMin= 2 EnMin= -343.246453277451     IErMin= 3 ErrMin= 1.56D-01
 ErrMax= 1.56D-01  0.00D+00 EMaxC= 1.00D-01 BMatC= 6.20D+01 BMatP= 6.60D+01
 IDIUse=3 WtCom= 0.00D+00 WtEn= 1.00D+00
 EnCoef did   100 forward-backward iterations
 Coeff-Com: -0.112D+01 0.201D+01 0.114D+00
 Coeff-En:   0.373D+00 0.250D-01 0.602D+00
 Coeff:      0.373D+00 0.250D-01 0.602D+00
 Gap=     0.371 Goal=   None    Shift=    0.000
 Gap=     0.380 Goal=   None    Shift=    0.000
 RMSDP=1.44D-01 MaxDP=4.54D+00 DE= 3.27D+00 OVMax= 9.99D-01

 Cycle   4  Pass 1  IDiag  1:
 RMSU=  2.61D-02    CP:  1.06D-01  5.50D-02  1.20D-02
 E= -379.380797773108     Delta-E=      -39.403321898057 Rises=F Damp=F
 DIIS: error= 1.42D-01 at cycle   4 NSaved=   4.
 NSaved= 4 IEnMin= 4 EnMin= -379.380797773108     IErMin= 4 ErrMin= 1.42D-01
 ErrMax= 1.42D-01  0.00D+00 EMaxC= 1.00D-01 BMatC= 1.65D+01 BMatP= 6.20D+01
 IDIUse=3 WtCom= 0.00D+00 WtEn= 1.00D+00
 Coeff-Com: -0.613D+00 0.104D+01 0.108D+00 0.464D+00
 Coeff-En:   0.000D+00 0.000D+00 0.122D+00 0.878D+00
 Coeff:      0.000D+00 0.000D+00 0.122D+00 0.878D+00
 Gap=    -0.474 Goal=   None    Shift=    0.000
 Gap=    -0.478 Goal=   None    Shift=    0.000
 RMSDP=5.81D-02 MaxDP=3.06D+00 DE=-3.94D+01 OVMax= 9.78D-01

 Cycle   5  Pass 1  IDiag  1:
 RMSU=  4.96D-02    CP:  1.08D-01  5.16D-01  3.24D-02  4.03D-01
 E= -362.222148686060     Delta-E=       17.158649087048 Rises=F Damp=F
 DIIS: error= 1.45D-01 at cycle   5 NSaved=   5.
 NSaved= 5 IEnMin= 4 EnMin= -379.380797773108     IErMin= 4 ErrMin= 1.42D-01
 ErrMax= 1.45D-01  0.00D+00 EMaxC= 1.00D-01 BMatC= 4.23D+01 BMatP= 1.65D+01
 IDIUse=2 WtCom= 0.00D+00 WtEn= 1.00D+00
 Coeff-En:   0.000D+00 0.000D+00 0.000D+00 0.744D+00 0.256D+00
 Coeff:      0.000D+00 0.000D+00 0.000D+00 0.744D+00 0.256D+00
 Gap=    -0.069 Goal=   None    Shift=    0.000
 Gap=    -0.069 Goal=   None    Shift=    0.000
 RMSDP=5.49D-02 MaxDP=2.96D+00 DE= 1.72D+01 OVMax= 9.34D-01

 Cycle   6  Pass 1  IDiag  1:
 RMSU=  1.82D-02    CP:  1.04D-01  7.43D-02  3.37D-02  5.41D-01  8.53D-02
 E= -383.493351857447     Delta-E=      -21.271203171388 Rises=F Damp=F
 DIIS: error= 7.81D-02 at cycle   6 NSaved=   6.
 NSaved= 6 IEnMin= 6 EnMin= -383.493351857447     IErMin= 6 ErrMin= 7.81D-02
 ErrMax= 7.81D-02  0.00D+00 EMaxC= 1.00D-01 BMatC= 5.05D+00 BMatP= 1.65D+01
 IDIUse=3 WtCom= 2.19D-01 WtEn= 7.81D-01
 Coeff-Com: -0.110D+00 0.216D+00-0.420D-01 0.266D+00 0.614D-01 0.608D+00
 Coeff-En:   0.000D+00 0.000D+00 0.000D+00 0.201D+00 0.000D+00 0.799D+00
 Coeff:     -0.239D-01 0.472D-01-0.918D-02 0.215D+00 0.134D-01 0.758D+00
 Gap=     0.190 Goal=   None    Shift=    0.000
 Gap=     0.190 Goal=   None    Shift=    0.000
 RMSDP=1.41D-02 MaxDP=3.23D-01 DE=-2.13D+01 OVMax= 5.64D-01

 Cycle   7  Pass 1  IDiag  1:
 RMSU=  9.67D-03    CP:  9.76D-02  2.47D-02  1.55D-02  6.56D-01  7.69D-02
                    CP:  5.04D-01
 E= -384.159060259965     Delta-E=       -0.665708402518 Rises=F Damp=F
 DIIS: error= 6.23D-02 at cycle   7 NSaved=   7.
 NSaved= 7 IEnMin= 7 EnMin= -384.159060259965     IErMin= 7 ErrMin= 6.23D-02
 ErrMax= 6.23D-02  0.00D+00 EMaxC= 1.00D-01 BMatC= 2.86D+00 BMatP= 5.05D+00
 IDIUse=3 WtCom= 3.77D-01 WtEn= 6.23D-01
 Coeff-Com: -0.610D-01 0.102D+00-0.198D-01 0.891D-01 0.101D-01 0.424D+00
 Coeff-Com:  0.456D+00
 Coeff-En:   0.000D+00 0.000D+00 0.000D+00 0.000D+00 0.000D+00 0.361D+00
 Coeff-En:   0.639D+00
 Coeff:     -0.230D-01 0.386D-01-0.747D-02 0.336D-01 0.381D-02 0.385D+00
 Coeff:      0.570D+00
 Gap=     0.308 Goal=   None    Shift=    0.000
 Gap=     0.308 Goal=   None    Shift=    0.000
 RMSDP=6.45D-03 MaxDP=2.01D-01 DE=-6.66D-01 OVMax= 3.49D-01

 Cycle   8  Pass 1  IDiag  1:
 RMSU=  4.30D-03    CP:  9.07D-02  2.88D-02  1.67D-02  6.23D-01  7.62D-02
                    CP:  6.30D-01  5.78D-01
 E= -384.805401471572     Delta-E=       -0.646341211607 Rises=F Damp=F
 DIIS: error= 2.81D-02 at cycle   8 NSaved=   8.
 NSaved= 8 IEnMin= 8 EnMin= -384.805401471572     IErMin= 8 ErrMin= 2.81D-02
 ErrMax= 2.81D-02  0.00D+00 EMaxC= 1.00D-01 BMatC= 5.15D-01 BMatP= 2.86D+00
 IDIUse=3 WtCom= 7.19D-01 WtEn= 2.81D-01
 Coeff-Com: -0.876D-02 0.894D-02-0.313D-02-0.194D-01-0.684D-03 0.137D+00
 Coeff-Com:  0.323D+00 0.563D+00
 Coeff-En:   0.000D+00 0.000D+00 0.000D+00 0.000D+00 0.000D+00 0.000D+00
 Coeff-En:   0.102D+00 0.898D+00
 Coeff:     -0.629D-02 0.643D-02-0.225D-02-0.140D-01-0.492D-03 0.985D-01
 Coeff:      0.261D+00 0.657D+00
 Gap=     0.221 Goal=   None    Shift=    0.000
 Gap=     0.220 Goal=   None    Shift=    0.000
 RMSDP=3.39D-03 MaxDP=1.18D-01 DE=-6.46D-01 OVMax= 1.70D-01

 Cycle   9  Pass 1  IDiag  1:
 RMSU=  1.98D-03    CP:  8.90D-02  2.83D-02  1.67D-02  6.28D-01  7.60D-02
                    CP:  6.18D-01  7.46D-01  4.90D-01
 E= -384.872743212811     Delta-E=       -0.067341741239 Rises=F Damp=F
 DIIS: error= 2.39D-02 at cycle   9 NSaved=   9.
 NSaved= 9 IEnMin= 9 EnMin= -384.872743212811     IErMin= 9 ErrMin= 2.39D-02
 ErrMax= 2.39D-02  0.00D+00 EMaxC= 1.00D-01 BMatC= 2.45D-01 BMatP= 5.15D-01
 IDIUse=3 WtCom= 7.61D-01 WtEn= 2.39D-01
 Coeff-Com: -0.451D-03-0.189D-02-0.608D-04-0.141D-01 0.268D-02 0.211D-01
 Coeff-Com:  0.101D+00 0.447D+00 0.444D+00
 Coeff-En:   0.000D+00 0.000D+00 0.000D+00 0.000D+00 0.000D+00 0.000D+00
 Coeff-En:   0.000D+00 0.332D+00 0.668D+00
 Coeff:     -0.343D-03-0.144D-02-0.463D-04-0.108D-01 0.204D-02 0.160D-01
 Coeff:      0.769D-01 0.420D+00 0.498D+00
 Gap=     0.208 Goal=   None    Shift=    0.000
 Gap=     0.208 Goal=   None    Shift=    0.000
 RMSDP=1.72D-03 MaxDP=6.84D-02 DE=-6.73D-02 OVMax= 9.59D-02

 Cycle  10  Pass 1  IDiag  1:
 RMSU=  5.88D-04    CP:  8.97D-02  2.68D-02  1.67D-02  6.23D-01  7.77D-02
                    CP:  6.18D-01  6.97D-01  7.10D-01  3.92D-01
 E= -384.919951358960     Delta-E=       -0.047208146149 Rises=F Damp=F
 DIIS: error= 9.74D-03 at cycle  10 NSaved=  10.
 NSaved=10 IEnMin=10 EnMin= -384.919951358960     IErMin=10 ErrMin= 9.74D-03
 ErrMax= 9.74D-03  0.00D+00 EMaxC= 1.00D-01 BMatC= 2.81D-02 BMatP= 2.45D-01
 IDIUse=3 WtCom= 9.03D-01 WtEn= 9.74D-02
 Coeff-Com:  0.895D-03-0.190D-02-0.299D-03-0.536D-02 0.189D-02-0.417D-03
 Coeff-Com: -0.511D-02 0.157D+00 0.324D+00 0.529D+00
 Coeff-En:   0.000D+00 0.000D+00 0.000D+00 0.000D+00 0.000D+00 0.000D+00
 Coeff-En:   0.000D+00 0.000D+00 0.615D-01 0.939D+00
 Coeff:      0.808D-03-0.172D-02-0.270D-03-0.484D-02 0.171D-02-0.376D-03
 Coeff:     -0.461D-02 0.142D+00 0.298D+00 0.569D+00
 Gap=     0.200 Goal=   None    Shift=    0.000
 Gap=     0.200 Goal=   None    Shift=    0.000
 RMSDP=4.55D-04 MaxDP=2.15D-02 DE=-4.72D-02 OVMax= 2.65D-02

 Cycle  11  Pass 1  IDiag  1:
 RMSU=  1.86D-04    CP:  8.95D-02  2.75D-02  1.67D-02  6.22D-01  7.74D-02
                    CP:  6.23D-01  6.93D-01  6.95D-01  5.33D-01  5.26D-01
 E= -384.925267215178     Delta-E=       -0.005315856217 Rises=F Damp=F
 DIIS: error= 1.40D-03 at cycle  11 NSaved=  11.
 NSaved=11 IEnMin=11 EnMin= -384.925267215178     IErMin=11 ErrMin= 1.40D-03
 ErrMax= 1.40D-03  0.00D+00 EMaxC= 1.00D-01 BMatC= 1.44D-03 BMatP= 2.81D-02
 IDIUse=3 WtCom= 9.86D-01 WtEn= 1.40D-02
 Coeff-Com: -0.342D-03 0.755D-03-0.209D-03-0.302D-03 0.227D-03 0.826D-03
 Coeff-Com: -0.962D-02 0.128D-01 0.844D-01 0.284D+00 0.628D+00
 Coeff-En:   0.000D+00 0.000D+00 0.000D+00 0.000D+00 0.000D+00 0.000D+00
 Coeff-En:   0.000D+00 0.000D+00 0.000D+00 0.000D+00 0.100D+01
 Coeff:     -0.337D-03 0.745D-03-0.206D-03-0.298D-03 0.223D-03 0.814D-03
 Coeff:     -0.949D-02 0.126D-01 0.832D-01 0.280D+00 0.633D+00
 Gap=     0.196 Goal=   None    Shift=    0.000
 Gap=     0.196 Goal=   None    Shift=    0.000
 RMSDP=9.00D-05 MaxDP=3.22D-03 DE=-5.32D-03 OVMax= 5.30D-03

 Cycle  12  Pass 1  IDiag  1:
 RMSU=  4.47D-05    CP:  8.95D-02  2.74D-02  1.67D-02  6.22D-01  7.74D-02
                    CP:  6.23D-01  6.94D-01  6.94D-01  5.32D-01  6.29D-01
                    CP:  7.43D-01
 E= -384.925570659217     Delta-E=       -0.000303444039 Rises=F Damp=F
 DIIS: error= 1.76D-04 at cycle  12 NSaved=  12.
 NSaved=12 IEnMin=12 EnMin= -384.925570659217     IErMin=12 ErrMin= 1.76D-04
 ErrMax= 1.76D-04  0.00D+00 EMaxC= 1.00D-01 BMatC= 4.45D-05 BMatP= 1.44D-03
 IDIUse=3 WtCom= 9.98D-01 WtEn= 1.76D-03
 Coeff-Com: -0.217D-04 0.110D-03 0.132D-04 0.105D-04-0.561D-04 0.657D-05
 Coeff-Com: -0.327D-02 0.241D-02 0.291D-01 0.105D+00 0.277D+00 0.590D+00
 Coeff-En:   0.000D+00 0.000D+00 0.000D+00 0.000D+00 0.000D+00 0.000D+00
 Coeff-En:   0.000D+00 0.000D+00 0.000D+00 0.000D+00 0.000D+00 0.100D+01
 Coeff:     -0.216D-04 0.109D-03 0.131D-04 0.105D-04-0.560D-04 0.656D-05
 Coeff:     -0.326D-02 0.241D-02 0.290D-01 0.105D+00 0.276D+00 0.591D+00
 Gap=     0.196 Goal=   None    Shift=    0.000
 Gap=     0.196 Goal=   None    Shift=    0.000
 RMSDP=2.24D-05 MaxDP=7.84D-04 DE=-3.03D-04 OVMax= 1.99D-03

 Cycle  13  Pass 1  IDiag  1:
 RMSU=  1.64D-05    CP:  8.95D-02  2.74D-02  1.67D-02  6.22D-01  7.74D-02
                    CP:  6.23D-01  6.94D-01  6.93D-01  5.33D-01  6.23D-01
                    CP:  7.70D-01  7.22D-01
 E= -384.925579829205     Delta-E=       -0.000009169988 Rises=F Damp=F
 DIIS: error= 8.90D-05 at cycle  13 NSaved=  13.
 NSaved=13 IEnMin=13 EnMin= -384.925579829205     IErMin=13 ErrMin= 8.90D-05
 ErrMax= 8.90D-05  0.00D+00 EMaxC= 1.00D-01 BMatC= 9.01D-06 BMatP= 4.45D-05
 IDIUse=1 WtCom= 1.00D+00 WtEn= 0.00D+00
 Coeff-Com:  0.401D-04-0.559D-04 0.292D-04 0.728D-04-0.644D-04-0.241D-03
 Coeff-Com: -0.840D-03 0.576D-03 0.796D-02 0.319D-01 0.903D-01 0.322D+00
 Coeff-Com:  0.548D+00
 Coeff:      0.401D-04-0.559D-04 0.292D-04 0.728D-04-0.644D-04-0.241D-03
 Coeff:     -0.840D-03 0.576D-03 0.796D-02 0.319D-01 0.903D-01 0.322D+00
 Coeff:      0.548D+00
 Gap=     0.196 Goal=   None    Shift=    0.000
 Gap=     0.196 Goal=   None    Shift=    0.000
 RMSDP=9.17D-06 MaxDP=3.24D-04 DE=-9.17D-06 OVMax= 8.24D-04

 Cycle  14  Pass 1  IDiag  1:
 RMSU=  5.75D-06    CP:  8.95D-02  2.74D-02  1.67D-02  6.22D-01  7.74D-02
                    CP:  6.22D-01  6.94D-01  6.93D-01  5.33D-01  6.25D-01
                    CP:  7.66D-01  7.79D-01  6.17D-01
 E= -384.925581972710     Delta-E=       -0.000002143505 Rises=F Damp=F
 DIIS: error= 5.03D-05 at cycle  14 NSaved=  14.
 NSaved=14 IEnMin=14 EnMin= -384.925581972710     IErMin=14 ErrMin= 5.03D-05
 ErrMax= 5.03D-05  0.00D+00 EMaxC= 1.00D-01 BMatC= 1.01D-06 BMatP= 9.01D-06
 IDIUse=1 WtCom= 1.00D+00 WtEn= 0.00D+00
 Coeff-Com: -0.245D-05 0.481D-05-0.221D-06 0.319D-04-0.150D-04-0.164D-03
 Coeff-Com: -0.884D-04 0.853D-03 0.951D-03 0.470D-02 0.524D-02 0.212D-01
 Coeff-Com:  0.151D+00 0.816D+00
 Coeff:     -0.245D-05 0.481D-05-0.221D-06 0.319D-04-0.150D-04-0.164D-03
 Coeff:     -0.884D-04 0.853D-03 0.951D-03 0.470D-02 0.524D-02 0.212D-01
 Coeff:      0.151D+00 0.816D+00
 Gap=     0.196 Goal=   None    Shift=    0.000
 Gap=     0.196 Goal=   None    Shift=    0.000
 RMSDP=3.94D-06 MaxDP=1.07D-04 DE=-2.14D-06 OVMax= 2.39D-04

 Cycle  15  Pass 1  IDiag  1:
 RMSU=  2.56D-06    CP:  8.95D-02  2.74D-02  1.67D-02  6.22D-01  7.74D-02
                    CP:  6.22D-01  6.94D-01  6.94D-01  5.32D-01  6.25D-01
                    CP:  7.64D-01  7.69D-01  7.04D-01  1.01D+00
 E= -384.925582164267     Delta-E=       -0.000000191557 Rises=F Damp=F
 DIIS: error= 1.60D-05 at cycle  15 NSaved=  15.
 NSaved=15 IEnMin=15 EnMin= -384.925582164267     IErMin=15 ErrMin= 1.60D-05
 ErrMax= 1.60D-05  0.00D+00 EMaxC= 1.00D-01 BMatC= 1.87D-07 BMatP= 1.01D-06
 IDIUse=1 WtCom= 1.00D+00 WtEn= 0.00D+00
 Coeff-Com: -0.466D-05 0.745D-05-0.339D-06 0.905D-05-0.225D-05-0.966D-04
 Coeff-Com:  0.565D-04 0.601D-03-0.265D-03-0.833D-03-0.829D-02-0.301D-01
 Coeff-Com:  0.219D-01 0.482D+00 0.535D+00
 Coeff:     -0.466D-05 0.745D-05-0.339D-06 0.905D-05-0.225D-05-0.966D-04
 Coeff:      0.565D-04 0.601D-03-0.265D-03-0.833D-03-0.829D-02-0.301D-01
 Coeff:      0.219D-01 0.482D+00 0.535D+00
 Gap=     0.196 Goal=   None    Shift=    0.000
 Gap=     0.196 Goal=   None    Shift=    0.000
 RMSDP=1.55D-06 MaxDP=5.76D-05 DE=-1.92D-07 OVMax= 1.32D-04

 Cycle  16  Pass 1  IDiag  1:
 RMSU=  9.70D-07    CP:  8.95D-02  2.74D-02  1.67D-02  6.22D-01  7.74D-02
                    CP:  6.22D-01  6.94D-01  6.94D-01  5.32D-01  6.25D-01
                    CP:  7.63D-01  7.73D-01  7.03D-01  1.12D+00  8.08D-01
 E= -384.925582211283     Delta-E=       -0.000000047016 Rises=F Damp=F
 DIIS: error= 3.15D-06 at cycle  16 NSaved=  16.
 NSaved=16 IEnMin=16 EnMin= -384.925582211283     IErMin=16 ErrMin= 3.15D-06
 ErrMax= 3.15D-06  0.00D+00 EMaxC= 1.00D-01 BMatC= 5.29D-09 BMatP= 1.87D-07
 IDIUse=1 WtCom= 1.00D+00 WtEn= 0.00D+00
 Coeff-Com:  0.132D-05-0.221D-05-0.223D-06-0.254D-06 0.773D-06-0.618D-06
 Coeff-Com:  0.108D-04 0.575D-05-0.105D-03-0.391D-03-0.105D-02-0.882D-02
 Coeff-Com: -0.116D-01 0.107D-01 0.146D+00 0.865D+00
 Coeff:      0.132D-05-0.221D-05-0.223D-06-0.254D-06 0.773D-06-0.618D-06
 Coeff:      0.108D-04 0.575D-05-0.105D-03-0.391D-03-0.105D-02-0.882D-02
 Coeff:     -0.116D-01 0.107D-01 0.146D+00 0.865D+00
 Gap=     0.196 Goal=   None    Shift=    0.000
 Gap=     0.196 Goal=   None    Shift=    0.000
 RMSDP=2.55D-07 MaxDP=1.45D-05 DE=-4.70D-08 OVMax= 2.88D-05

 Cycle  17  Pass 1  IDiag  1:
 RMSU=  1.72D-07    CP:  8.95D-02  2.74D-02  1.67D-02  6.22D-01  7.74D-02
                    CP:  6.22D-01  6.94D-01  6.94D-01  5.32D-01  6.25D-01
                    CP:  7.63D-01  7.72D-01  7.06D-01  1.13D+00  8.61D-01
                    CP:  9.18D-01
 E= -384.925582212986     Delta-E=       -0.000000001703 Rises=F Damp=F
 DIIS: error= 6.94D-07 at cycle  17 NSaved=  17.
 NSaved=17 IEnMin=17 EnMin= -384.925582212986     IErMin=17 ErrMin= 6.94D-07
 ErrMax= 6.94D-07  0.00D+00 EMaxC= 1.00D-01 BMatC= 2.56D-10 BMatP= 5.29D-09
 IDIUse=1 WtCom= 1.00D+00 WtEn= 0.00D+00
 Coeff-Com:  0.683D-07-0.257D-06 0.117D-06 0.661D-07-0.581D-07 0.183D-05
 Coeff-Com:  0.286D-05-0.227D-04-0.253D-04-0.514D-04 0.121D-03-0.557D-03
 Coeff-Com: -0.175D-02-0.768D-02 0.120D-01 0.149D+00 0.849D+00
 Coeff:      0.683D-07-0.257D-06 0.117D-06 0.661D-07-0.581D-07 0.183D-05
 Coeff:      0.286D-05-0.227D-04-0.253D-04-0.514D-04 0.121D-03-0.557D-03
 Coeff:     -0.175D-02-0.768D-02 0.120D-01 0.149D+00 0.849D+00
 Gap=     0.196 Goal=   None    Shift=    0.000
 Gap=     0.196 Goal=   None    Shift=    0.000
 RMSDP=7.99D-08 MaxDP=3.09D-06 DE=-1.70D-09 OVMax= 6.05D-06

 Cycle  18  Pass 1  IDiag  1:
 RMSU=  6.67D-08    CP:  8.95D-02  2.74D-02  1.67D-02  6.22D-01  7.74D-02
                    CP:  6.22D-01  6.94D-01  6.94D-01  5.32D-01  6.25D-01
                    CP:  7.63D-01  7.72D-01  7.06D-01  1.13D+00  8.61D-01
                    CP:  9.30D-01  1.18D+00
 E= -384.925582213097     Delta-E=       -0.000000000111 Rises=F Damp=F
 DIIS: error= 4.77D-07 at cycle  18 NSaved=  18.
 NSaved=18 IEnMin=18 EnMin= -384.925582213097     IErMin=18 ErrMin= 4.77D-07
 ErrMax= 4.77D-07  0.00D+00 EMaxC= 1.00D-01 BMatC= 1.21D-10 BMatP= 2.56D-10
 IDIUse=1 WtCom= 1.00D+00 WtEn= 0.00D+00
 Coeff-Com: -0.203D-07-0.909D-08 0.192D-07-0.161D-06-0.281D-07 0.178D-05
 Coeff-Com: -0.110D-05-0.111D-04 0.529D-05 0.335D-04 0.183D-03 0.119D-02
 Coeff-Com:  0.873D-03-0.615D-02-0.264D-01-0.124D+00 0.408D+00 0.746D+00
 Coeff:     -0.203D-07-0.909D-08 0.192D-07-0.161D-06-0.281D-07 0.178D-05
 Coeff:     -0.110D-05-0.111D-04 0.529D-05 0.335D-04 0.183D-03 0.119D-02
 Coeff:      0.873D-03-0.615D-02-0.264D-01-0.124D+00 0.408D+00 0.746D+00
 Gap=     0.196 Goal=   None    Shift=    0.000
 Gap=     0.196 Goal=   None    Shift=    0.000
 RMSDP=5.05D-08 MaxDP=2.26D-06 DE=-1.11D-10 OVMax= 4.55D-06

 Cycle  19  Pass 1  IDiag  1:
 RMSU=  3.54D-08    CP:  8.95D-02  2.74D-02  1.67D-02  6.22D-01  7.74D-02
                    CP:  6.22D-01  6.94D-01  6.94D-01  5.32D-01  6.25D-01
                    CP:  7.63D-01  7.72D-01  7.06D-01  1.13D+00  8.64D-01
                    CP:  9.36D-01  1.37D+00  1.00D+00
 E= -384.925582213146     Delta-E=       -0.000000000050 Rises=F Damp=F
 DIIS: error= 1.67D-07 at cycle  19 NSaved=  19.
 NSaved=19 IEnMin=19 EnMin= -384.925582213146     IErMin=19 ErrMin= 1.67D-07
 ErrMax= 1.67D-07  0.00D+00 EMaxC= 1.00D-01 BMatC= 1.74D-11 BMatP= 1.21D-10
 IDIUse=1 WtCom= 1.00D+00 WtEn= 0.00D+00
 Coeff-Com: -0.224D-07 0.738D-07-0.901D-09-0.851D-07 0.511D-08 0.158D-06
 Coeff-Com: -0.124D-05 0.228D-05 0.795D-05 0.227D-04 0.239D-04 0.675D-03
 Coeff-Com:  0.823D-03-0.600D-03-0.117D-01-0.797D-01-0.587D-01 0.289D+00
 Coeff-Com:  0.860D+00
 Coeff:     -0.224D-07 0.738D-07-0.901D-09-0.851D-07 0.511D-08 0.158D-06
 Coeff:     -0.124D-05 0.228D-05 0.795D-05 0.227D-04 0.239D-04 0.675D-03
 Coeff:      0.823D-03-0.600D-03-0.117D-01-0.797D-01-0.587D-01 0.289D+00
 Coeff:      0.860D+00
 Gap=     0.196 Goal=   None    Shift=    0.000
 Gap=     0.196 Goal=   None    Shift=    0.000
 RMSDP=2.41D-08 MaxDP=1.34D-06 DE=-4.98D-11 OVMax= 2.44D-06

 Cycle  20  Pass 1  IDiag  1:
 RMSU=  1.00D-08    CP:  8.95D-02  2.74D-02  1.67D-02  6.22D-01  7.74D-02
                    CP:  6.22D-01  6.94D-01  6.94D-01  5.32D-01  6.25D-01
                    CP:  7.63D-01  7.72D-01  7.06D-01  1.13D+00  8.64D-01
                    CP:  9.38D-01  1.47D+00  1.19D+00  1.00D+00
 E= -384.925582213157     Delta-E=       -0.000000000011 Rises=F Damp=F
 DIIS: error= 5.40D-08 at cycle  20 NSaved=  20.
 NSaved=20 IEnMin=20 EnMin= -384.925582213157     IErMin=20 ErrMin= 5.40D-08
 ErrMax= 5.40D-08  0.00D+00 EMaxC= 1.00D-01 BMatC= 6.21D-13 BMatP= 1.74D-11
 IDIUse=1 WtCom= 1.00D+00 WtEn= 0.00D+00
 Coeff-Com: -0.434D-08 0.827D-08-0.225D-08 0.535D-08 0.279D-08-0.119D-06
 Coeff-Com:  0.811D-07 0.696D-06 0.300D-07-0.233D-05-0.148D-04-0.107D-04
 Coeff-Com: -0.190D-05 0.286D-03 0.723D-03-0.201D-03-0.349D-01-0.119D-01
 Coeff-Com:  0.593D-01 0.987D+00
 Coeff:     -0.434D-08 0.827D-08-0.225D-08 0.535D-08 0.279D-08-0.119D-06
 Coeff:      0.811D-07 0.696D-06 0.300D-07-0.233D-05-0.148D-04-0.107D-04
 Coeff:     -0.190D-05 0.286D-03 0.723D-03-0.201D-03-0.349D-01-0.119D-01
 Coeff:      0.593D-01 0.987D+00
 Gap=     0.196 Goal=   None    Shift=    0.000
 Gap=     0.196 Goal=   None    Shift=    0.000
 RMSDP=6.61D-09 MaxDP=3.85D-07 DE=-1.11D-11 OVMax= 7.60D-07

 Error on total polarization charges =  0.00756
 SCF Done:  E(UB3LYP) =  -384.925582213     A.U. after   20 cycles
            NFock= 20  Conv=0.66D-08     -V/T= 2.0097
 <Sx>= 0.0000 <Sy>= 0.0000 <Sz>= 0.0000 <S**2>= 0.0000 S= 0.0000
 <L.S>=  0.00000000000    
 KE= 3.812319387701D+02 PE=-1.695278713315D+03 EE= 5.286094536811D+02
 Annihilation of the first spin contaminant:
 S**2 before annihilation     0.0000,   after    -0.0000
 Leave Link  502 at Fri May 10 12:31:33 2019, MaxMem=   104857600 cpu:             356.5 elap:              11.4
 (Enter /opt/software/gaussian/g16.b01/l801.exe)
 DoSCS=F DFT=T ScalE2(SS,OS)=  1.000000  1.000000
 ExpMin= 1.61D-01 ExpMax= 5.48D+03 ExpMxC= 8.25D+02 IAcc=3 IRadAn=         5 AccDes= 0.00D+00
 HarFok:  IExCor=  205 AccDes= 0.00D+00 IRadAn=         5 IDoV=-2 UseB2=F ITyADJ=14
 ICtDFT= 12500011 ScaDFX=  1.000000  1.000000  1.000000  1.000000
 Largest valence mixing into a core orbital is  5.78D-05
 Largest core mixing into a valence orbital is  1.22D-05
 Largest valence mixing into a core orbital is  5.78D-05
 Largest core mixing into a valence orbital is  1.22D-05
 Range of M.O.s used for correlation:    10   175
 NBasis=   175 NAE=    32 NBE=    32 NFC=     9 NFV=     0
 NROrb=    166 NOA=    23 NOB=    23 NVA=   143 NVB=   143
 Leave Link  801 at Fri May 10 12:31:33 2019, MaxMem=   104857600 cpu:               3.5 elap:               0.2
 (Enter /opt/software/gaussian/g16.b01/l914.exe)
 UHF ground state
 Ignoring spin specification with unrestricted ground state.
 Two-electron integrals replicated using symmetry.
 MDV=   104857600 DFT=T DoStab=F Mixed=T DoRPA=T DoScal=F NonHer=T
 NEqPCM:  Using equilibrium solvation (IEInf=0, Eps=  35.6880, EpsInf=   1.8069)
 Making orbital integer symmetry assigments:
 Orbital symmetries:
 Alpha Orbitals:
       Occupied  (A) (A) (A) (A) (A) (A) (A) (A) (A) (A) (A) (A)
                 (A) (A) (A) (A) (A) (A) (A) (A) (A) (A) (A) (A)
                 (A) (A) (A) (A) (A) (A) (A) (A)
       Virtual   (A) (A) (A) (A) (A) (A) (A) (A) (A) (A) (A) (A)
                 (A) (A) (A) (A) (A) (A) (A) (A) (A) (A) (A) (A)
                 (A) (A) (A) (A) (A) (A) (A) (A) (A) (A) (A) (A)
                 (A) (A) (A) (A) (A) (A) (A) (A) (A) (A) (A) (A)
                 (A) (A) (A) (A) (A) (A) (A) (A) (A) (A) (A) (A)
                 (A) (A) (A) (A) (A) (A) (A) (A) (A) (A) (A) (A)
                 (A) (A) (A) (A) (A) (A) (A) (A) (A) (A) (A) (A)
                 (A) (A) (A) (A) (A) (A) (A) (A) (A) (A) (A) (A)
                 (A) (A) (A) (A) (A) (A) (A) (A) (A) (A) (A) (A)
                 (A) (A) (A) (A) (A) (A) (A) (A) (A) (A) (A) (A)
                 (A) (A) (A) (A) (A) (A) (A) (A) (A) (A) (A) (A)
                 (A) (A) (A) (A) (A) (A) (A) (A) (A) (A) (A)
 Beta  Orbitals:
       Occupied  (A) (A) (A) (A) (A) (A) (A) (A) (A) (A) (A) (A)
                 (A) (A) (A) (A) (A) (A) (A) (A) (A) (A) (A) (A)
                 (A) (A) (A) (A) (A) (A) (A) (A)
       Virtual   (A) (A) (A) (A) (A) (A) (A) (A) (A) (A) (A) (A)
                 (A) (A) (A) (A) (A) (A) (A) (A) (A) (A) (A) (A)
                 (A) (A) (A) (A) (A) (A) (A) (A) (A) (A) (A) (A)
                 (A) (A) (A) (A) (A) (A) (A) (A) (A) (A) (A) (A)
                 (A) (A) (A) (A) (A) (A) (A) (A) (A) (A) (A) (A)
                 (A) (A) (A) (A) (A) (A) (A) (A) (A) (A) (A) (A)
                 (A) (A) (A) (A) (A) (A) (A) (A) (A) (A) (A) (A)
                 (A) (A) (A) (A) (A) (A) (A) (A) (A) (A) (A) (A)
                 (A) (A) (A) (A) (A) (A) (A) (A) (A) (A) (A) (A)
                 (A) (A) (A) (A) (A) (A) (A) (A) (A) (A) (A) (A)
                 (A) (A) (A) (A) (A) (A) (A) (A) (A) (A) (A) (A)
                 (A) (A) (A) (A) (A) (A) (A) (A) (A) (A) (A)
    48 initial guesses have been made.
 Convergence on wavefunction:    0.000001000000000
 Davidson Disk Diagonalization:  ConvIn= 1.00D-06 SkipCon=T Conv= 1.00D-06.
 Max sub-space:  2000 roots to seek:    48 dimension of matrix:         6578
 Iteration     1 Dimension    48 NMult     0 NNew     48
 CISAX will form    10 AO SS matrices at one time.
 NMat=    10 NSing=    10 JSym2X= 0.
 FoFJK:  IHMeth= 1 ICntrl=       0 DoSepK=F KAlg= 0 I1Cent=           0 FoldK=F
 IRaf= 920000000 NMat=      20 IRICut=      25 DoRegI=T DoRafI=T ISym2E= 0 IDoP0=0 IntGTp=1.
 FoFCou: FMM=F IPFlag=           0 FMFlag=      100000 FMFlg1=           0
         NFxFlg=           0 DoJE=F BraDBF=F KetDBF=F FulRan=T
         wScrn=  0.000000 ICntrl=         0 IOpCl=  1 I1Cent=           0 NGrid=           0
         NMat0=   20 NMatS0=     10 NMatT0=    0 NMatD0=   20 NMtDS0=    0 NMtDT0=    0
 Symmetry not used in FoFCou.
 Raff kept on since  89.02% of shell-pairs survive, threshold=   0.20 IRatSp=89.
 NMat=    10 NSing=    10 JSym2X= 0.
 NMat=    10 NSing=    10 JSym2X= 0.
 NMat=    10 NSing=    10 JSym2X= 0.
 NMat=     8 NSing=     8 JSym2X= 0.
 New state      2 was old state      3
 New state      3 was old state      2
 New state      4 was old state      5
 New state      5 was old state      9
 New state      6 was old state      4
 New state      7 was old state     12
 New state      8 was old state      6
 New state      9 was old state      8
 New state     10 was old state      7
 New state     11 was old state     17
 New state     12 was old state     11
 Excitation Energies [eV] at current iteration:
 Root      1 :     3.402310421727423
 Root      2 :     3.675344354658496
 Root      3 :     3.869578696994889
 Root      4 :     4.048571909450019
 Root      5 :     4.636409179451010
 Root      6 :     4.847791364034114
 Root      7 :     5.190602174993234
 Root      8 :     5.570356433901128
 Root      9 :     5.789198241369816
 Root     10 :     5.808077302761792
 Root     11 :     5.908705263389023
 Root     12 :     6.541350143737889
 Root     13 :     6.543664382247017
 Root     14 :     6.582484526144154
 Root     15 :     6.675310179428072
 Root     16 :     6.754369188450394
 Root     17 :     6.787072776931176
 Root     18 :     6.788404519447491
 Root     19 :     6.913772717813437
 Root     20 :     7.085016373840700
 Root     21 :     7.324760193335554
 Root     22 :     7.369120261691100
 Root     23 :     7.575607210772104
 Root     24 :     7.765762490899855
 Root     25 :     7.851845986523310
 Root     26 :     7.874598559198491
 Root     27 :     7.911565577201362
 Root     28 :     7.979014875257081
 Root     29 :     8.016341460766593
 Root     30 :     8.172185885995400
 Root     31 :     8.201823387338882
 Root     32 :     8.224220856420892
 Root     33 :     8.483351058724883
 Root     34 :     8.516143558920767
 Root     35 :     8.551332671818393
 Root     36 :     8.557409744256779
 Root     37 :     8.601362275600140
 Root     38 :     8.614416781767991
 Root     39 :     8.673912549519637
 Root     40 :     8.687931035816794
 Root     41 :     8.843867756465709
 Root     42 :     8.863850299042443
 Root     43 :     8.924568332134367
 Root     44 :     8.934263883413628
 Root     45 :     9.124614179335749
 Root     46 :     9.301712004860374
 Root     47 :     9.706780713206124
 Root     48 :    10.005936361312651
 Iteration     2 Dimension    72 NMult    48 NNew     24
 CISAX will form     8 AO SS matrices at one time.
 NMat=     8 NSing=     8 JSym2X= 0.
 NMat=     8 NSing=     8 JSym2X= 0.
 NMat=     8 NSing=     8 JSym2X= 0.
 Root      1 not converged, maximum delta is    0.032957074391897
 Root      2 not converged, maximum delta is    0.110248998875906
 Root      3 not converged, maximum delta is    0.019111854083071
 Root      4 not converged, maximum delta is    0.027617914408512
 Root      5 not converged, maximum delta is    0.074131297918276
 Root      6 not converged, maximum delta is    0.048550999663252
 New state      7 was old state      8
 Root      7 not converged, maximum delta is    0.062016228324391
 New state      8 was old state      7
 Root      8 not converged, maximum delta is    0.047063609862232
 New state      9 was old state     11
 Root      9 not converged, maximum delta is    0.153214738401892
 New state     10 was old state      9
 Root     10 not converged, maximum delta is    0.016327991021868
 New state     11 was old state     10
 Root     11 not converged, maximum delta is    0.010138152534688
 Root     12 not converged, maximum delta is    0.100162014113418
 Excitation Energies [eV] at current iteration:
 Root      1 :     3.312080823827122   Change is   -0.090229597900300
 Root      2 :     3.359832241031646   Change is   -0.315512113626850
 Root      3 :     3.824697711580849   Change is   -0.044880985414040
 Root      4 :     3.997200592496506   Change is   -0.051371316953513
 Root      5 :     4.462810871301122   Change is   -0.173598308149887
 Root      6 :     4.716790771496184   Change is   -0.131000592537930
 Root      7 :     5.074289833750477   Change is   -0.496066600150651
 Root      8 :     5.150119481358552   Change is   -0.040482693634682
 Root      9 :     5.420524628290190   Change is   -0.488180635098833
 Root     10 :     5.773268141982602   Change is   -0.015930099387213
 Root     11 :     5.800142315902538   Change is   -0.007934986859254
 Root     12 :     6.238475577755832   Change is   -0.302874565982057
 Iteration     3 Dimension    96 NMult    72 NNew     24
 CISAX will form     8 AO SS matrices at one time.
 NMat=     8 NSing=     8 JSym2X= 0.
 NMat=     8 NSing=     8 JSym2X= 0.
 NMat=     8 NSing=     8 JSym2X= 0.
 Root      1 not converged, maximum delta is    0.002239732072578
 Root      2 not converged, maximum delta is    0.011370970036792
 Root      3 not converged, maximum delta is    0.002384970386468
 Root      4 not converged, maximum delta is    0.002520825743888
 Root      5 not converged, maximum delta is    0.003374516608578
 Root      6 not converged, maximum delta is    0.004199026205886
 Root      7 not converged, maximum delta is    0.010059902658753
 Root      8 not converged, maximum delta is    0.006321392975778
 Root      9 not converged, maximum delta is    0.024217170499352
 Root     10 not converged, maximum delta is    0.001899727763253
 Root     11 not converged, maximum delta is    0.001028267640082
 Root     12 not converged, maximum delta is    0.017514338219028
 Excitation Energies [eV] at current iteration:
 Root      1 :     3.310977115212511   Change is   -0.001103708614612
 Root      2 :     3.351917082029736   Change is   -0.007915159001910
 Root      3 :     3.823286595321687   Change is   -0.001411116259163
 Root      4 :     3.995812623255576   Change is   -0.001387969240931
 Root      5 :     4.459539132502457   Change is   -0.003271738798665
 Root      6 :     4.712903136476531   Change is   -0.003887635019653
 Root      7 :     5.058347578336318   Change is   -0.015942255414159
 Root      8 :     5.148919891165384   Change is   -0.001199590193168
 Root      9 :     5.391784141225485   Change is   -0.028740487064705
 Root     10 :     5.772715745237151   Change is   -0.000552396745451
 Root     11 :     5.799917443509060   Change is   -0.000224872393478
 Root     12 :     6.223547773659032   Change is   -0.014927804096800
 Iteration     4 Dimension   120 NMult    96 NNew     24
 CISAX will form     8 AO SS matrices at one time.
 NMat=     8 NSing=     8 JSym2X= 0.
 NMat=     8 NSing=     8 JSym2X= 0.
 NMat=     8 NSing=     8 JSym2X= 0.
 Root      1 not converged, maximum delta is    0.000359935554257
 Root      2 not converged, maximum delta is    0.000803108098034
 Root      3 not converged, maximum delta is    0.000325543755990
 Root      4 not converged, maximum delta is    0.000289805005500
 Root      5 not converged, maximum delta is    0.000590656697083
 Root      6 not converged, maximum delta is    0.000715224398690
 Root      7 not converged, maximum delta is    0.003931673560019
 Root      8 not converged, maximum delta is    0.000394835944875
 Root      9 not converged, maximum delta is    0.004300311167196
 Root     10 not converged, maximum delta is    0.000510114204367
 Root     11 not converged, maximum delta is    0.000150586734781
 Root     12 not converged, maximum delta is    0.003901789357473
 Excitation Energies [eV] at current iteration:
 Root      1 :     3.310955973070945   Change is   -0.000021142141565
 Root      2 :     3.351756859902574   Change is   -0.000160222127162
 Root      3 :     3.823252443816475   Change is   -0.000034151505212
 Root      4 :     3.995788733447792   Change is   -0.000023889807784
 Root      5 :     4.459468903402488   Change is   -0.000070229099969
 Root      6 :     4.712709501269621   Change is   -0.000193635206911
 Root      7 :     5.056841107667902   Change is   -0.001506470668416
 Root      8 :     5.148875314089677   Change is   -0.000044577075707
 Root      9 :     5.390527036844052   Change is   -0.001257104381433
 Root     10 :     5.772682380738286   Change is   -0.000033364498865
 Root     11 :     5.799906788616112   Change is   -0.000010654892948
 Root     12 :     6.222625934763861   Change is   -0.000921838895170
 Iteration     5 Dimension   144 NMult   120 NNew     24
 CISAX will form     8 AO SS matrices at one time.
 NMat=     8 NSing=     8 JSym2X= 0.
 NMat=     8 NSing=     8 JSym2X= 0.
 NMat=     8 NSing=     8 JSym2X= 0.
 Root      1 not converged, maximum delta is    0.000052518714597
 Root      2 not converged, maximum delta is    0.000100878677004
 Root      3 not converged, maximum delta is    0.000055313900267
 Root      4 not converged, maximum delta is    0.000046614805694
 Root      5 not converged, maximum delta is    0.000092624176231
 Root      6 not converged, maximum delta is    0.000221026129626
 Root      7 not converged, maximum delta is    0.001133898607446
 Root      8 not converged, maximum delta is    0.000097945485927
 Root      9 not converged, maximum delta is    0.000718357914798
 Root     10 not converged, maximum delta is    0.000054963293774
 Root     11 not converged, maximum delta is    0.000034135527723
 Root     12 not converged, maximum delta is    0.003422262026590
 Excitation Energies [eV] at current iteration:
 Root      1 :     3.310955406088028   Change is   -0.000000566982918
 Root      2 :     3.351753853968070   Change is   -0.000003005934504
 Root      3 :     3.823251595672397   Change is   -0.000000848144078
 Root      4 :     3.995788130703166   Change is   -0.000000602744626
 Root      5 :     4.459466846878853   Change is   -0.000002056523635
 Root      6 :     4.712693999937672   Change is   -0.000015501331949
 Root      7 :     5.056736670657004   Change is   -0.000104437010898
 Root      8 :     5.148873605834778   Change is   -0.000001708254899
 Root      9 :     5.390462876084065   Change is   -0.000064160759987
 Root     10 :     5.772680328619833   Change is   -0.000002052118453
 Root     11 :     5.799906172261036   Change is   -0.000000616355076
 Root     12 :     6.222458261846590   Change is   -0.000167672917271
 Iteration     6 Dimension   168 NMult   144 NNew     24
 CISAX will form     8 AO SS matrices at one time.
 NMat=     8 NSing=     8 JSym2X= 0.
 NMat=     8 NSing=     8 JSym2X= 0.
 NMat=     8 NSing=     8 JSym2X= 0.
 Root      1 not converged, maximum delta is    0.000005040482155
 Root      2 not converged, maximum delta is    0.000013882667519
 Root      3 not converged, maximum delta is    0.000006670761496
 Root      4 not converged, maximum delta is    0.000005659802534
 Root      5 not converged, maximum delta is    0.000015450331560
 Root      6 not converged, maximum delta is    0.000022533409224
 Root      7 not converged, maximum delta is    0.000128697778833
 Root      8 not converged, maximum delta is    0.000012670967332
 Root      9 not converged, maximum delta is    0.000142013940394
 Root     10 not converged, maximum delta is    0.000020146186033
 Root     11 not converged, maximum delta is    0.000009078451350
 Root     12 not converged, maximum delta is    0.001433354807400
 Excitation Energies [eV] at current iteration:
 Root      1 :     3.310955393613670   Change is   -0.000000012474358
 Root      2 :     3.351753801465102   Change is   -0.000000052502968
 Root      3 :     3.823251574379880   Change is   -0.000000021292517
 Root      4 :     3.995788118006492   Change is   -0.000000012696674
 Root      5 :     4.459466781336938   Change is   -0.000000065541916
 Root      6 :     4.712693580936207   Change is   -0.000000419001464
 Root      7 :     5.056730931136597   Change is   -0.000005739520406
 Root      8 :     5.148873535142354   Change is   -0.000000070692424
 Root      9 :     5.390459833826124   Change is   -0.000003042257941
 Root     10 :     5.772680203729076   Change is   -0.000000124890757
 Root     11 :     5.799906126135324   Change is   -0.000000046125712
 Root     12 :     6.222441904349076   Change is   -0.000016357497515
 Iteration     7 Dimension   192 NMult   168 NNew     24
 CISAX will form     8 AO SS matrices at one time.
 NMat=     8 NSing=     8 JSym2X= 0.
 NMat=     8 NSing=     8 JSym2X= 0.
 NMat=     8 NSing=     8 JSym2X= 0.
 Root      1 has converged.
 Root      2 not converged, maximum delta is    0.000002464459849
 Root      3 not converged, maximum delta is    0.000001345691583
 Root      4 has converged.
 Root      5 not converged, maximum delta is    0.000003166196468
 Root      6 not converged, maximum delta is    0.000005944627020
 Root      7 not converged, maximum delta is    0.000023264662188
 Root      8 not converged, maximum delta is    0.000003003518888
 Root      9 not converged, maximum delta is    0.000035413393283
 Root     10 not converged, maximum delta is    0.000006594726928
 Root     11 not converged, maximum delta is    0.000002724606030
 Root     12 not converged, maximum delta is    0.000115660144693
 Excitation Energies [eV] at current iteration:
 Root      1 :     3.310955393380998   Change is   -0.000000000232672
 Root      2 :     3.351753800667051   Change is   -0.000000000798051
 Root      3 :     3.823251573952679   Change is   -0.000000000427201
 Root      4 :     3.995788117721096   Change is   -0.000000000285396
 Root      5 :     4.459466779594612   Change is   -0.000000001742326
 Root      6 :     4.712693567581615   Change is   -0.000000013354592
 Root      7 :     5.056730659123116   Change is   -0.000000272013482
 Root      8 :     5.148873532634827   Change is   -0.000000002507526
 Root      9 :     5.390459699663388   Change is   -0.000000134162737
 Root     10 :     5.772680192812828   Change is   -0.000000010916247
 Root     11 :     5.799906123196514   Change is   -0.000000002938810
 Root     12 :     6.222440938961362   Change is   -0.000000965387714
 Iteration     8 Dimension   212 NMult   192 NNew     20
 CISAX will form    10 AO SS matrices at one time.
 NMat=    10 NSing=    10 JSym2X= 0.
 NMat=    10 NSing=    10 JSym2X= 0.
 Root      1 has converged.
 Root      2 has converged.
 Root      3 has converged.
 Root      4 has converged.
 Root      5 has converged.
 Root      6 not converged, maximum delta is    0.000001559932670
 Root      7 not converged, maximum delta is    0.000003493838664
 Root      8 has converged.
 Root      9 not converged, maximum delta is    0.000007506168473
 Root     10 not converged, maximum delta is    0.000001472072134
 Root     11 has converged.
 Root     12 not converged, maximum delta is    0.000012439432762
 Excitation Energies [eV] at current iteration:
 Root      1 :     3.310955393380874   Change is   -0.000000000000124
 Root      2 :     3.351753800650275   Change is   -0.000000000016776
 Root      3 :     3.823251573942466   Change is   -0.000000000010213
 Root      4 :     3.995788117719265   Change is   -0.000000000001831
 Root      5 :     4.459466779530552   Change is   -0.000000000064060
 Root      6 :     4.712693567077942   Change is   -0.000000000503674
 Root      7 :     5.056730649308491   Change is   -0.000000009814624
 Root      8 :     5.148873532512288   Change is   -0.000000000122540
 Root      9 :     5.390459692097861   Change is   -0.000000007565527
 Root     10 :     5.772680191914491   Change is   -0.000000000898338
 Root     11 :     5.799906122981326   Change is   -0.000000000215189
 Root     12 :     6.222440882699892   Change is   -0.000000056261469
 Iteration     9 Dimension   222 NMult   212 NNew     10
 CISAX will form    10 AO SS matrices at one time.
 NMat=    10 NSing=    10 JSym2X= 0.
 Root      1 has converged.
 Root      2 has converged.
 Root      3 has converged.
 Root      4 has converged.
 Root      5 has converged.
 Root      6 has converged.
 Root      7 has converged.
 Root      8 has converged.
 Root      9 not converged, maximum delta is    0.000001051253605
 Root     10 has converged.
 Root     11 has converged.
 Root     12 not converged, maximum delta is    0.000005131385138
 Excitation Energies [eV] at current iteration:
 Root      1 :     3.310955393380749   Change is   -0.000000000000124
 Root      2 :     3.351753800650030   Change is   -0.000000000000245
 Root      3 :     3.823251573942466   Change is    0.000000000000000
 Root      4 :     3.995788117719121   Change is   -0.000000000000144
 Root      5 :     4.459466779529539   Change is   -0.000000000001014
 Root      6 :     4.712693567059172   Change is   -0.000000000018770
 Root      7 :     5.056730648965907   Change is   -0.000000000342585
 Root      8 :     5.148873532511297   Change is   -0.000000000000990
 Root      9 :     5.390459691755669   Change is   -0.000000000342192
 Root     10 :     5.772680191859550   Change is   -0.000000000054940
 Root     11 :     5.799906122981311   Change is   -0.000000000000014
 Root     12 :     6.222440879155470   Change is   -0.000000003544423
 Iteration    10 Dimension   226 NMult   222 NNew      4
 CISAX will form     4 AO SS matrices at one time.
 NMat=     4 NSing=     4 JSym2X= 0.
 Root      1 has converged.
 Root      2 has converged.
 Root      3 has converged.
 Root      4 has converged.
 Root      5 has converged.
 Root      6 has converged.
 Root      7 has converged.
 Root      8 has converged.
 Root      9 has converged.
 Root     10 has converged.
 Root     11 has converged.
 Root     12 not converged, maximum delta is    0.000001223291390
 Excitation Energies [eV] at current iteration:
 Root      1 :     3.310955393380824   Change is    0.000000000000074
 Root      2 :     3.351753800650055   Change is    0.000000000000025
 Root      3 :     3.823251573942336   Change is   -0.000000000000129
 Root      4 :     3.995788117719038   Change is   -0.000000000000082
 Root      5 :     4.459466779529465   Change is   -0.000000000000074
 Root      6 :     4.712693567058841   Change is   -0.000000000000332
 Root      7 :     5.056730648965647   Change is   -0.000000000000260
 Root      8 :     5.148873532510707   Change is   -0.000000000000591
 Root      9 :     5.390459691738863   Change is   -0.000000000016806
 Root     10 :     5.772680191859536   Change is   -0.000000000000014
 Root     11 :     5.799906122981283   Change is   -0.000000000000029
 Root     12 :     6.222440878864633   Change is   -0.000000000290837
 Iteration    11 Dimension   228 NMult   226 NNew      2
 CISAX will form     2 AO SS matrices at one time.
 NMat=     2 NSing=     2 JSym2X= 0.
 Root      1 has converged.
 Root      2 has converged.
 Root      3 has converged.
 Root      4 has converged.
 Root      5 has converged.
 Root      6 has converged.
 Root      7 has converged.
 Root      8 has converged.
 Root      9 has converged.
 Root     10 has converged.
 Root     11 has converged.
 Root     12 has converged.
 Excitation Energies [eV] at current iteration:
 Root      1 :     3.310955393380799   Change is   -0.000000000000025
 Root      2 :     3.351753800650005   Change is   -0.000000000000049
 Root      3 :     3.823251573942509   Change is    0.000000000000172
 Root      4 :     3.995788117719141   Change is    0.000000000000103
 Root      5 :     4.459466779529484   Change is    0.000000000000019
 Root      6 :     4.712693567058806   Change is   -0.000000000000035
 Root      7 :     5.056730648965257   Change is   -0.000000000000390
 Root      8 :     5.148873532510659   Change is   -0.000000000000048
 Root      9 :     5.390459691738909   Change is    0.000000000000046
 Root     10 :     5.772680191859493   Change is   -0.000000000000043
 Root     11 :     5.799906122981311   Change is    0.000000000000029
 Root     12 :     6.222440878845476   Change is   -0.000000000019157
 Convergence achieved on expansion vectors.
 ***********************************************************************
 Excited states from <AA,BB:AA,BB> singles matrix:
 ***********************************************************************
 
 ExtSpn:  IState=     1 X2= 1.003 Y2= 0.003 X2-Y2-1=-1.11D-16
          S2Grnd=  0.000 Ra=  0.500 Rb=  0.500 T=  1.000 S2Ext=  2.000 S2=  2.000
 ExtSpn:  IState=     2 X2= 1.037 Y2= 0.037 X2-Y2-1=-3.33D-16
          S2Grnd=  0.000 Ra=  0.500 Rb=  0.500 T=  1.000 S2Ext=  2.000 S2=  2.000
 ExtSpn:  IState=     3 X2= 1.001 Y2= 0.001 X2-Y2-1= 4.44D-16
          S2Grnd=  0.000 Ra=  0.500 Rb=  0.500 T= -1.000 S2Ext=  0.000 S2=  0.000
 ExtSpn:  IState=     4 X2= 1.004 Y2= 0.004 X2-Y2-1=-1.11D-16
          S2Grnd=  0.000 Ra=  0.500 Rb=  0.500 T=  1.000 S2Ext=  2.000 S2=  2.000
 ExtSpn:  IState=     5 X2= 1.013 Y2= 0.013 X2-Y2-1=-2.22D-16
          S2Grnd=  0.000 Ra=  0.500 Rb=  0.500 T=  1.000 S2Ext=  2.000 S2=  2.000
 ExtSpn:  IState=     6 X2= 1.004 Y2= 0.004 X2-Y2-1=-8.88D-16
          S2Grnd=  0.000 Ra=  0.500 Rb=  0.500 T= -1.000 S2Ext= -0.000 S2=  0.000
 ExtSpn:  IState=     7 X2= 1.009 Y2= 0.009 X2-Y2-1= 2.22D-16
          S2Grnd=  0.000 Ra=  0.500 Rb=  0.500 T= -1.000 S2Ext= -0.000 S2=  0.000
 ExtSpn:  IState=     8 X2= 1.003 Y2= 0.003 X2-Y2-1=-9.99D-16
          S2Grnd=  0.000 Ra=  0.500 Rb=  0.500 T=  1.000 S2Ext=  2.000 S2=  2.000
 ExtSpn:  IState=     9 X2= 1.017 Y2= 0.017 X2-Y2-1=-3.33D-16
          S2Grnd=  0.000 Ra=  0.500 Rb=  0.500 T=  1.000 S2Ext=  2.000 S2=  2.000
 ExtSpn:  IState=    10 X2= 1.000 Y2= 0.000 X2-Y2-1=-1.11D-16
          S2Grnd=  0.000 Ra=  0.500 Rb=  0.500 T=  1.000 S2Ext=  2.000 S2=  2.000
 ExtSpn:  IState=    11 X2= 1.000 Y2= 0.000 X2-Y2-1= 4.44D-16
          S2Grnd=  0.000 Ra=  0.500 Rb=  0.500 T= -1.000 S2Ext=  0.000 S2=  0.000
 ExtSpn:  IState=    12 X2= 1.009 Y2= 0.009 X2-Y2-1= 2.22D-16
          S2Grnd=  0.000 Ra=  0.500 Rb=  0.500 T= -1.000 S2Ext= -0.000 S2=  0.000
 1PDM for each excited state written to RWF  633
 Ground to excited state transition densities written to RWF  633
 Ground to excited state transition electric dipole moments (Au):
       state          X           Y           Z        Dip. S.      Osc.
         1        -0.0000      0.0000      0.0000      0.0000      0.0000
         2        -0.0000     -0.0000     -0.0000      0.0000      0.0000
         3        -0.0000      0.0000     -0.0217      0.0005      0.0000
         4         0.0000     -0.0000     -0.0000      0.0000      0.0000
         5         0.0000      0.0000     -0.0000      0.0000      0.0000
         6        -0.1973      0.5865      0.0000      0.3829      0.0442
         7        -1.8530     -0.2588     -0.0000      3.5006      0.4337
         8         0.0000      0.0000     -0.0000      0.0000      0.0000
         9        -0.0000     -0.0000     -0.0000      0.0000      0.0000
        10         0.0000     -0.0000      0.0000      0.0000      0.0000
        11        -0.0000     -0.0001      0.0017      0.0000      0.0000
        12        -0.0588     -1.2266     -0.0000      1.5080      0.2299
 Ground to excited state transition velocity dipole moments (Au):
       state          X           Y           Z        Dip. S.      Osc.
         1         0.0000      0.0000     -0.0000      0.0000      0.0000
         2         0.0000     -0.0000      0.0000      0.0000      0.0000
         3         0.0000      0.0000      0.0014      0.0000      0.0000
         4        -0.0000      0.0000     -0.0000      0.0000      0.0000
         5        -0.0000     -0.0000      0.0000      0.0000      0.0000
         6         0.0340     -0.1048     -0.0000      0.0121      0.0467
         7         0.3351      0.0422     -0.0000      0.1141      0.4092
         8        -0.0000     -0.0000     -0.0000      0.0000      0.0000
         9         0.0000      0.0000      0.0000      0.0000      0.0000
        10         0.0000      0.0000     -0.0000      0.0000      0.0000
        11        -0.0000      0.0000     -0.0030      0.0000      0.0000
        12         0.0078      0.2799      0.0000      0.0784      0.2286
 Ground to excited state transition magnetic dipole moments (Au):
       state          X           Y           Z
         1         0.0000      0.0000      0.0000
         2        -0.0000     -0.0000     -0.0000
         3         0.4298      0.7301      0.0000
         4        -0.0000     -0.0000     -0.0000
         5         0.0000      0.0000     -0.0000
         6        -0.0000     -0.0000     -0.5200
         7        -0.0000     -0.0000     -0.0684
         8        -0.0000     -0.0000     -0.0000
         9        -0.0000     -0.0000     -0.0000
        10         0.0000      0.0000      0.0000
        11         0.0955      0.0143      0.0001
        12         0.0000     -0.0000      0.9077
 Ground to excited state transition velocity quadrupole moments (Au):
       state          XX          YY          ZZ          XY          XZ          YZ
         1         0.0000      0.0000     -0.0000     -0.0000     -0.0000      0.0000
         2         0.0000      0.0000     -0.0000     -0.0000     -0.0000      0.0000
         3         0.0000      0.0000      0.0000     -0.0000     -0.0501      0.0296
         4        -0.0000      0.0000     -0.0000      0.0000      0.0000     -0.0000
         5        -0.0000     -0.0000      0.0000     -0.0000     -0.0000      0.0000
         6         0.0248      0.0039      0.0053     -0.2086     -0.0000     -0.0000
         7         0.2746     -0.0358      0.0099     -0.1113      0.0000     -0.0000
         8        -0.0000      0.0000     -0.0000      0.0000      0.0000     -0.0000
         9         0.0000     -0.0000      0.0000     -0.0000      0.0000     -0.0000
        10        -0.0000      0.0000     -0.0000      0.0000     -0.0000      0.0000
        11         0.0000     -0.0000     -0.0000      0.0001     -0.0214      0.0161
        12         0.0182      0.0220     -0.0063      0.6713      0.0000      0.0000
 <0|del|b> * <b|rxdel|0> + <0|del|b> * <b|delr+rdel|0>
 Rotatory Strengths (R) in cgs (10**-40 erg-esu-cm/Gauss)
       state          XX          YY          ZZ    R(velocity)    E-M Angle
         1         0.0000      0.0000      0.0000      0.0000       90.00
         2        -0.0000     -0.0000     -0.0000     -0.0000       90.00
         3         0.0033      0.0036      0.0058      0.0042       90.00
         4        -0.0000      0.0000     -0.0000     -0.0000       90.00
         5        -0.0000     -0.0000      0.0000     -0.0000       90.00
[...]
     8  C   -0.000000   0.000002  -0.000000   0.000000  -0.000000  -0.000000
     9  C    0.000000  -0.000000   0.000000   0.000000  -0.000000  -0.000000
    10  C   -0.000000   0.000000   0.000000  -0.000001   0.000000   0.000000
    11  H   -0.000000  -0.000000  -0.000000   0.000000  -0.000000  -0.000000
    12  C    0.000000  -0.000000  -0.000000   0.000000  -0.000000  -0.000001
    13  H   -0.000000   0.000000  -0.000000  -0.000000   0.000000  -0.000000
    14  C   -0.000000  -0.000000  -0.000000  -0.000000  -0.000000   0.000000
    15  H    0.000000  -0.000000   0.000000   0.000000   0.000000  -0.000000
    16  H   -0.000000   0.000000   0.000000  -0.000000   0.000000  -0.000000
    17  H   -0.000000   0.000000  -0.000000   0.000000   0.000000   0.000000
              13         14         15         16         17
     1  C   -0.000000   0.000000  -0.000000  -0.000000  -0.000000
     2  O   -0.000000  -0.000000   0.000000   0.000000  -0.000000
     3  C   -0.000000  -0.000000  -0.000000   0.000000   0.000000
     4  H   -0.000000  -0.000000  -0.000000  -0.000000   0.000000
     5  H   -0.000000  -0.000000  -0.000000  -0.000000   0.000000
     6  H    0.000000   0.000000  -0.000000  -0.000000  -0.000000
     7  C   -0.000000  -0.000000   0.000000  -0.000000  -0.000000
     8  C    0.000000  -0.000000  -0.000000   0.000000   0.000000
     9  C   -0.000000  -0.000000   0.000000   0.000000  -0.000000
    10  C   -0.000000  -0.000000   0.000000  -0.000000   0.000000
    11  H    0.000000  -0.000000   0.000000   0.000000   0.000000
    12  C   -0.000000   0.000000  -0.000000  -0.000000   0.000000
    13  H    0.000000   0.000000   0.000000  -0.000000   0.000000
    14  C    0.000000   0.000001  -0.000000  -0.000000   0.000000
    15  H    0.000000  -0.000000   0.000000  -0.000000   0.000000
    16  H   -0.000000  -0.000000  -0.000000   0.000000  -0.000000
    17  H    0.000000   0.000000   0.000000  -0.000000  -0.000000
 Mulliken charges and spin densities:
               1          2
     1  C    0.389299   0.000001
     2  O   -0.527384  -0.000001
     3  C   -0.400928  -0.000000
     4  H    0.151594   0.000000
     5  H    0.151557   0.000000
     6  H    0.133217   0.000000
     7  C    0.075511  -0.000001
     8  C   -0.117094   0.000002
     9  C   -0.140015   0.000000
    10  C   -0.104044  -0.000001
    11  H    0.112298  -0.000000
    12  C   -0.107473  -0.000001
    13  H    0.112909   0.000000
    14  C   -0.075851   0.000001
    15  H    0.111679   0.000000
    16  H    0.111882   0.000000
    17  H    0.122844  -0.000000
 Sum of Mulliken charges =  -0.00000   0.00000
 Mulliken charges and spin densities with hydrogens summed into heavy atoms:
               1          2
     1  C    0.389299   0.000001
     2  O   -0.527384  -0.000001
     3  C    0.035439  -0.000000
     7  C    0.075511  -0.000001
     8  C   -0.004796   0.000002
     9  C   -0.027107   0.000000
    10  C    0.007635  -0.000001
    12  C    0.004409  -0.000001
    14  C    0.046994   0.000001
 Electronic spatial extent (au):  <R**2>=           1259.6586
 Charge=             -0.0000 electrons
 Dipole moment (field-independent basis, Debye):
    X=              2.6828    Y=              3.4322    Z=              0.0003  Tot=              4.3563
 Quadrupole moment (field-independent basis, Debye-Ang):
   XX=            -49.3141   YY=            -49.7707   ZZ=            -54.2521
   XY=             -7.9987   XZ=             -0.0018   YZ=              0.0004
 Traceless Quadrupole moment (field-independent basis, Debye-Ang):
   XX=              1.7982   YY=              1.3416   ZZ=             -3.1398
   XY=             -7.9987   XZ=             -0.0018   YZ=              0.0004
 Octapole moment (field-independent basis, Debye-Ang**2):
  XXX=             24.8367  YYY=              4.8160  ZZZ=              0.0015  XYY=              9.8108
  XXY=             17.9419  XXZ=             -0.0037  XZZ=             -8.8524  YZZ=             -0.5585
  YYZ=              0.0025  XYZ=             -0.0016
 Hexadecapole moment (field-independent basis, Debye-Ang**3):
 XXXX=          -1100.1652 YYYY=           -400.2221 ZZZZ=            -60.2799 XXXY=            -34.9958
 XXXZ=             -0.0063 YYYX=             -8.1551 YYYZ=             -0.0019 ZZZX=              0.0028
 ZZZY=              0.0007 XXYY=           -267.6430 XXZZ=           -214.5233 YYZZ=            -83.3336
 XXYZ=              0.0039 YYXZ=             -0.0035 ZZXY=              0.7417
 N-N= 3.967192890941D+02 E-N=-1.687385421332D+03  KE= 3.808650795978D+02
                          Isotropic Fermi Contact Couplings
        Atom                 a.u.       MegaHertz       Gauss      10(-4) cm-1
     1  C(13)              0.00000       0.00010       0.00003       0.00003
     2  O(17)             -0.00000       0.00004       0.00001       0.00001
     3  C(13)             -0.00000      -0.00001      -0.00000      -0.00000
     4  H(1)              -0.00000      -0.00001      -0.00000      -0.00000
     5  H(1)              -0.00000      -0.00001      -0.00000      -0.00000
     6  H(1)               0.00000       0.00000       0.00000       0.00000
     7  C(13)             -0.00000      -0.00008      -0.00003      -0.00003
     8  C(13)             -0.00000      -0.00019      -0.00007      -0.00006
     9  C(13)              0.00000       0.00031       0.00011       0.00010
    10  C(13)              0.00000       0.00014       0.00005       0.00005
    11  H(1)               0.00000       0.00008       0.00003       0.00003
    12  C(13)             -0.00000      -0.00022      -0.00008      -0.00007
    13  H(1)              -0.00000      -0.00013      -0.00005      -0.00004
    14  C(13)              0.00000       0.00004       0.00001       0.00001
    15  H(1)              -0.00000      -0.00005      -0.00002      -0.00002
    16  H(1)               0.00000       0.00009       0.00003       0.00003
    17  H(1)              -0.00000      -0.00003      -0.00001      -0.00001
 --------------------------------------------------------
       Center         ----  Spin Dipole Couplings  ----
                      3XX-RR        3YY-RR        3ZZ-RR
 --------------------------------------------------------
     1   Atom       -0.000000     -0.000000      0.000001
     2   Atom        0.000001      0.000001     -0.000001
     3   Atom        0.000000     -0.000000     -0.000000
     4   Atom        0.000000     -0.000000     -0.000000
     5   Atom        0.000000     -0.000000     -0.000000
     6   Atom        0.000000     -0.000000     -0.000000
     7   Atom        0.000000      0.000000     -0.000001
     8   Atom        0.000003      0.000003     -0.000005
     9   Atom       -0.000003     -0.000003      0.000006
    10   Atom       -0.000002     -0.000001      0.000003
    11   Atom        0.000000     -0.000000     -0.000000
    12   Atom        0.000002      0.000001     -0.000003
    13   Atom       -0.000000      0.000000      0.000000
    14   Atom        0.000000      0.000000     -0.000000
    15   Atom       -0.000000      0.000000      0.000000
    16   Atom        0.000000     -0.000000     -0.000000
    17   Atom        0.000000     -0.000000     -0.000000
 --------------------------------------------------------
                        XY            XZ            YZ
 --------------------------------------------------------
     1   Atom        0.000000     -0.000000      0.000000
     2   Atom       -0.000000     -0.000000     -0.000000
     3   Atom        0.000000     -0.000000      0.000000
     4   Atom       -0.000000     -0.000000     -0.000000
     5   Atom       -0.000000      0.000000      0.000000
     6   Atom        0.000000      0.000000      0.000000
     7   Atom        0.000000      0.000000      0.000000
     8   Atom       -0.000000     -0.000000     -0.000000
     9   Atom       -0.000000      0.000000     -0.000000
    10   Atom       -0.000000     -0.000000     -0.000000
    11   Atom       -0.000000      0.000000      0.000000
    12   Atom       -0.000000     -0.000000     -0.000000
    13   Atom       -0.000000     -0.000000      0.000000
    14   Atom        0.000000     -0.000000      0.000000
    15   Atom       -0.000000     -0.000000      0.000000
    16   Atom       -0.000000     -0.000000     -0.000000
    17   Atom        0.000000      0.000000      0.000000
 --------------------------------------------------------


 ---------------------------------------------------------------------------------
              Anisotropic Spin Dipole Couplings in Principal Axis System
 ---------------------------------------------------------------------------------

       Atom             a.u.   MegaHertz   Gauss  10(-4) cm-1        Axes

              Baa    -0.0000    -0.000    -0.000    -0.000 -0.6322  0.7748 -0.0007
     1 C(13)  Bbb    -0.0000    -0.000    -0.000    -0.000  0.7748  0.6322  0.0003
              Bcc     0.0000     0.000     0.000     0.000 -0.0007  0.0004  1.0000
 
              Baa    -0.0000     0.000     0.000     0.000  0.0018  0.0005  1.0000
     2 O(17)  Bbb     0.0000    -0.000    -0.000    -0.000  0.7713  0.6364 -0.0017
              Bcc     0.0000    -0.000    -0.000    -0.000 -0.6364  0.7713  0.0008
 
              Baa    -0.0000    -0.000    -0.000    -0.000  0.0009 -0.0018  1.0000
     3 C(13)  Bbb    -0.0000    -0.000    -0.000    -0.000 -0.3216  0.9469  0.0020
              Bcc     0.0000     0.000     0.000     0.000  0.9469  0.3216 -0.0003
 
              Baa    -0.0000    -0.000    -0.000    -0.000  0.2245  0.7208  0.6558
     4 H(1)   Bbb    -0.0000    -0.000    -0.000    -0.000  0.1676 -0.6915  0.7026
              Bcc     0.0000     0.000     0.000     0.000  0.9600 -0.0478 -0.2760
 
              Baa    -0.0000    -0.000    -0.000    -0.000  0.2249  0.7211 -0.6553
     5 H(1)   Bbb    -0.0000    -0.000    -0.000    -0.000 -0.1675  0.6911  0.7030
              Bcc     0.0000     0.000     0.000     0.000  0.9599 -0.0483  0.2762
 
              Baa    -0.0000    -0.000    -0.000    -0.000 -0.1582  0.9874 -0.0001
     6 H(1)   Bbb    -0.0000    -0.000    -0.000    -0.000 -0.0008 -0.0000  1.0000
              Bcc     0.0000     0.000     0.000     0.000  0.9874  0.1582  0.0008
 
              Baa    -0.0000    -0.000    -0.000    -0.000 -0.0001 -0.0007  1.0000
     7 C(13)  Bbb     0.0000     0.000     0.000     0.000  0.7364 -0.6765 -0.0004
              Bcc     0.0000     0.000     0.000     0.000  0.6765  0.7364  0.0006
 
              Baa    -0.0000    -0.001    -0.000    -0.000  0.0000  0.0005  1.0000
     8 C(13)  Bbb     0.0000     0.000     0.000     0.000  0.1483  0.9889 -0.0005
              Bcc     0.0000     0.000     0.000     0.000  0.9889 -0.1483  0.0001
 
              Baa    -0.0000    -0.000    -0.000    -0.000  0.7918  0.6107  0.0001
     9 C(13)  Bbb    -0.0000    -0.000    -0.000    -0.000 -0.6107  0.7918  0.0005
              Bcc     0.0000     0.001     0.000     0.000  0.0002 -0.0005  1.0000
 
              Baa    -0.0000    -0.000    -0.000    -0.000  0.9746  0.2238  0.0001
    10 C(13)  Bbb    -0.0000    -0.000    -0.000    -0.000 -0.2238  0.9746  0.0002
              Bcc     0.0000     0.000     0.000     0.000 -0.0001 -0.0002  1.0000
 
              Baa    -0.0000    -0.000    -0.000    -0.000  0.4122  0.9111 -0.0004
    11 H(1)   Bbb    -0.0000    -0.000    -0.000    -0.000  0.0001  0.0004  1.0000
              Bcc     0.0000     0.000     0.000     0.000  0.9111 -0.4122  0.0000
 
              Baa    -0.0000    -0.000    -0.000    -0.000  0.0003  0.0001  1.0000
    12 C(13)  Bbb     0.0000     0.000     0.000     0.000  0.1278  0.9918 -0.0001
              Bcc     0.0000     0.000     0.000     0.000  0.9918 -0.1278 -0.0003
 
              Baa    -0.0000    -0.000    -0.000    -0.000  0.8773  0.4800 -0.0001
    13 H(1)   Bbb     0.0000     0.000     0.000     0.000  0.0003 -0.0005  1.0000
              Bcc     0.0000     0.000     0.000     0.000 -0.4800  0.8773  0.0006
 
              Baa    -0.0000    -0.000    -0.000    -0.000  0.1465 -0.1475  0.9782
    14 C(13)  Bbb    -0.0000    -0.000    -0.000    -0.000  0.7464 -0.6325 -0.2071
              Bcc     0.0000     0.000     0.000     0.000  0.6492  0.7604  0.0174
 
              Baa    -0.0000    -0.000    -0.000    -0.000  0.9292  0.3696  0.0001
    15 H(1)   Bbb     0.0000     0.000     0.000     0.000  0.0003 -0.0010  1.0000
              Bcc     0.0000     0.000     0.000     0.000 -0.3696  0.9292  0.0010
 
              Baa    -0.0000    -0.000    -0.000    -0.000  0.2693  0.9631  0.0002
    16 H(1)   Bbb    -0.0000    -0.000    -0.000    -0.000  0.0002 -0.0002  1.0000
              Bcc     0.0000     0.000     0.000     0.000  0.9631 -0.2693 -0.0003
 
              Baa    -0.0000    -0.000    -0.000    -0.000 -0.6703  0.7421 -0.0005
    17 H(1)   Bbb    -0.0000    -0.000    -0.000    -0.000 -0.0016 -0.0007  1.0000
              Bcc     0.0000     0.000     0.000     0.000  0.7421  0.6703  0.0016
 

 ---------------------------------------------------------------------------------

 No NMR shielding tensors so no spin-rotation constants.
 Leave Link  601 at Fri May 10 13:00:22 2019, MaxMem=   104857600 cpu:               8.3 elap:               0.3
 (Enter /opt/software/gaussian/g16.b01/l9999.exe)
 Electronic transition elements 
                 1             2             3             4             5 
      1  -0.384805D+03 -0.384803D+03 -0.384787D+03 -0.384786D+03 -0.384768D+03
      2   0.000000D+00  0.000000D+00  0.188794D-05 -0.148556D-03  0.000000D+00
      3   0.000000D+00  0.000000D+00  0.000000D+00 -0.109695D-03  0.417267D-05
      4   0.000000D+00  0.000000D+00  0.000000D+00 -0.285737D-01  0.000000D+00
      5   0.000000D+00  0.000000D+00  0.000000D+00  0.148932D-04  0.000000D+00
      6   0.000000D+00  0.000000D+00  0.000000D+00  0.221925D-04  0.000000D+00
      7   0.000000D+00  0.000000D+00  0.000000D+00  0.206093D-02  0.000000D+00
      8  -0.107160D-05  0.000000D+00  0.000000D+00  0.410535D+00  0.000000D+00
      9  -0.201855D-05  0.000000D+00  0.000000D+00  0.757354D+00  0.000000D+00
     10   0.000000D+00  0.000000D+00  0.000000D+00  0.162256D-03 -0.324397D-05
     11   0.000000D+00  0.000000D+00  0.000000D+00  0.279596D-04  0.000000D+00
     12   0.000000D+00  0.000000D+00  0.000000D+00  0.000000D+00  0.000000D+00
     13   0.000000D+00  0.000000D+00  0.000000D+00  0.147241D-04  0.000000D+00
     14   0.000000D+00  0.000000D+00  0.000000D+00 -0.246520D-04  0.000000D+00
     15   0.000000D+00  0.000000D+00  0.000000D+00 -0.467934D-01  0.000000D+00
     16   0.000000D+00  0.000000D+00  0.000000D+00  0.261791D-01  0.000000D+00
                 6             7             8             9            10 
      1  -0.384737D+03 -0.384761D+03 -0.384735D+03 -0.384729D+03 -0.384707D+03
      2  -0.192562D+01  0.236027D+00 -0.116627D-04 -0.503024D-05  0.000000D+00
      3  -0.305737D+00 -0.655361D+00  0.000000D+00 -0.117126D-05  0.000000D+00
      4  -0.205875D-04 -0.686733D-05  0.000000D+00  0.000000D+00  0.000000D+00
      5   0.335921D+00 -0.369776D-01  0.206235D-05  0.000000D+00  0.000000D+00
      6   0.484911D-01  0.107120D+00  0.000000D+00  0.000000D+00  0.000000D+00
      7   0.461003D-05  0.000000D+00  0.000000D+00  0.000000D+00  0.000000D+00
      8  -0.856452D-04 -0.904132D-04  0.000000D+00  0.000000D+00  0.203433D-05
      9  -0.985733D-04 -0.134623D-03  0.000000D+00  0.000000D+00  0.000000D+00
     10  -0.112167D+00  0.568158D+00 -0.106428D-05  0.000000D+00  0.000000D+00
     11   0.186621D+00 -0.204589D-01  0.148255D-05  0.000000D+00  0.000000D+00
     12  -0.438328D-01  0.175955D-02  0.000000D+00  0.000000D+00  0.000000D+00
     13   0.157468D-01 -0.546804D-02  0.000000D+00  0.000000D+00  0.000000D+00
     14  -0.144254D+00  0.216500D+00  0.000000D+00  0.000000D+00  0.000000D+00
     15  -0.482364D-05  0.167082D-04  0.000000D+00  0.000000D+00  0.000000D+00
     16  -0.142488D-04  0.306243D-04  0.000000D+00  0.000000D+00  0.000000D+00
                11            12 
      1  -0.384706D+03 -0.384694D+03
      2   0.549515D-03 -0.479583D+00
      3  -0.369367D-03 -0.105201D+01
      4   0.394333D-02  0.169261D-04
      5  -0.110030D-03  0.992787D-01
      6   0.757018D-04  0.232927D+00
      7  -0.411637D-02 -0.530693D-05
      8   0.109057D+00 -0.240400D-03
      9   0.138592D-01 -0.740160D-04
     10   0.331236D-03  0.777724D+00
     11  -0.188584D-03  0.258291D+00
     12  -0.605436D-05  0.289169D-01
     13  -0.206248D-04 -0.522726D-02
     14   0.220610D-03  0.534247D+00
     15  -0.198395D-01  0.181263D-04
     16   0.176841D-01 -0.727198D-05
 1\1\GINC-GRA492\FOpt\UB3LYP TD-FC\6-31G(d,p)\C8H8O1\RZK\10-May-2019\0\
 \#p opt td=(50-50,nstates=12,root=07) ub3lyp/6-31g(d,p) scrf=(iefpcm,s
 olvent=acetonitrile) guess=(core,mix,always) empiricaldispersion=gd3\\
 Title Card Required\\0,1\C,-1.7155500175,-0.199793587,-0.0000719131\O,
 -2.2328731001,-1.3609438419,-0.0000403488\C,-2.5746983854,1.0497723982
 ,-0.0000685219\H,-2.3961816236,1.6830319532,0.881100693\H,-2.395234258
 1,1.6836918701,-0.8805593264\H,-3.6251259251,0.7515585523,-0.000717320
 1\C,-0.2675365219,-0.0457832629,-0.0000627414\C,0.567130985,-1.2005990
 562,0.0000771399\C,0.4230007555,1.1865445731,0.0001343571\C,1.99755873
 34,-1.124153834,-0.0000993669\H,0.0821541252,-2.1705037203,0.000411921
 8\C,1.8613023313,1.2581214412,-0.0000657542\H,-0.125374995,2.122008036
 2,0.0005249321\C,2.6632304997,0.108309462,-0.0001467194\H,2.5598238359
 ,-2.0523365537,-0.0002216179\H,2.3194485789,2.2418941742,-0.0001760912
 \H,3.7432959819,0.1722073956,-0.0003413225\\Version=ES64L-G16RevB.01\S
 tate=1-A\HF=-384.91653\S2=0.\S2-1=0.\S2A=0.\RMSD=7.483e-09\RMSF=1.567e
 -05\Dipole=3.0416524,1.4687644,0.0001199\PG=C01 [X(C8H8O1)]\\@


 "THE ACADEMIC HIERARCHY"


 THE PRESIDENT:
   LEAPS TALL BUILDINGS IN A SINGLE BOUND,
     IS MORE POWERFUL THAN A LOCOMOTIVE,
       IS FASTER THAN A SPEEDING BULLET,
         WALKS ON WATER,
           GIVES POLICY TO GOD.

 THE VICE PRESIDENT FOR ACADEMIC AFFAIRS:
   LEAPS SHORT BUILDINGS IN A SINGLE BOUND,
     IS MORE POWERFUL THAN A SWITCH ENGINE,
       IS JUST AS FAST AS A SPEEDING BULLET,
         WALKS ON WATER IF SEA IS CALM,
           TALKS WITH GOD.

 PROFESSOR:
   LEAPS SHORT BUILDINGS WITH A RUNNING START AND FAVORABLE WINDS,
     IS ALMOST AS POWERFUL AS A SWITCH ENGINE,
       CAN FIRE A SPEEDING BULLET,
         WALKS ON WATER IN AN INDOOR SWIMMING POOL,
          TALKS WITH GOD IF SPECIAL REQUEST IS APPROVED.

 ASSOCIATE PROFESSOR:
   BARELY CLEARS A QUONSET HUT,
     LOSES TUG OF WAR WITH LOCOMOTIVE,
       MISFIRES FREQUENTLY,
         SWIMS WELL,
           IS OCCASIONALLY ADDRESSED BY GOD.

 ASSISTANT PROFESSOR:
   MAKES HIGH MARKS ON WALLS WHEN TRYING TO LEAP TALL BUILDINGS,
     IS RUN OVER BY LOCOMOTIVES,
       CAN SOMETIMES HANDLE A GUN WITHOUT INFLICTING SELF INJURY,
         DOG PADDLES,
           TALKS TO ANIMALS.

 GRADUATE STUDENT:
   RUNS INTO BUILDINGS,
     RECOGNIZES LOCOMOTIVES TWO OUT OF THREE TIMES,
       IS NOT ISSUED AMMUNITION,
         CAN STAY AFLOAT WITH A LIFE JACKET,
           TALKS TO WALLS.

 UNDERGRADUATE AND WORK STUDY STUDENT:
   FALLS OVER DOORSTEP WHEN TRYING TO ENTER BUILDINGS,
     SAYS, "LOOK AT THE CHOO-CHOO,"
       WETS HIMSELF WITH A WATER PISTOL,
        PLAYS IN MUD PUDDLES,
          MUMBLES TO HIMSELF.

 DEPARTMENT SECRETARY:
   LIFTS TALL BUILDINGS AND WALKS UNDER THEM,
     KICKS LOCOMOTIVES OFF THE TRACKS,
       CATCHES SPEEDING BULLETS IN HER TEETH AND EATS THEM,
         FREEZES WATER WITH A SINGLE GLANCE,
           IS GOD.
 Job cpu time:       0 days 15 hours 20 minutes 11.6 seconds.
 Elapsed time:       0 days  0 hours 28 minutes 58.8 seconds.
 File lengths (MBytes):  RWF=    328 Int=      0 D2E=      0 Chk=     21 Scr=      1
 Normal termination of Gaussian 16 at Fri May 10 13:00:22 2019.
