 Entering Gaussian System, Link 0=g16
 Initial command:
 /opt/software/gaussian/g16.b01/l1.exe "/localscratch/hpham196.14857899.0/Gau-19763.inp" -scrdir="/localscratch/hpham196.14857899.0/"
 Entering Link 1 = /opt/software/gaussian/g16.b01/l1.exe PID=     19764.
  
 Copyright (c) 1988-2017, Gaussian, Inc.  All Rights Reserved.
  
 This is part of the Gaussian(R) 16 program.  It is based on
 the Gaussian(R) 09 system (copyright 2009, Gaussian, Inc.),
 the Gaussian(R) 03 system (copyright 2003, Gaussian, Inc.),
 the Gaussian(R) 98 system (copyright 1998, Gaussian, Inc.),
 the Gaussian(R) 94 system (copyright 1995, Gaussian, Inc.),
 the Gaussian 92(TM) system (copyright 1992, Gaussian, Inc.),
 the Gaussian 90(TM) system (copyright 1990, Gaussian, Inc.),
 the Gaussian 88(TM) system (copyright 1988, Gaussian, Inc.),
 the Gaussian 86(TM) system (copyright 1986, Carnegie Mellon
 University), and the Gaussian 82(TM) system (copyright 1983,
 Carnegie Mellon University). Gaussian is a federally registered
 trademark of Gaussian, Inc.
  
 This software contains proprietary and confidential information,
 including trade secrets, belonging to Gaussian, Inc.
  
 This software is provided under written license and may be
 used, copied, transmitted, or stored only in accord with that
 written license.
  
 The following legend is applicable only to US Government
 contracts under FAR:
  
                    RESTRICTED RIGHTS LEGEND
  
 Use, reproduction and disclosure by the US Government is
 subject to restrictions as set forth in subparagraphs (a)
 and (c) of the Commercial Computer Software - Restricted
 Rights clause in FAR 52.227-19.
  
 Gaussian, Inc.
 340 Quinnipiac St., Bldg. 40, Wallingford CT 06492
  
  
 ---------------------------------------------------------------
 Warning -- This program may not be used in any manner that
 competes with the business of Gaussian, Inc. or will provide
 assistance to any competitor of Gaussian, Inc.  The licensee
 of this program is prohibited from giving any competitor of
 Gaussian, Inc. access to this program.  By using this program,
 the user acknowledges that Gaussian, Inc. is engaged in the
 business of creating and licensing software in the field of
 computational chemistry and represents and warrants to the
 licensee that it is not a competitor of Gaussian, Inc. and that
 it will not use this program in any manner prohibited above.
 ---------------------------------------------------------------
  

 Cite this work as:
 Gaussian 16, Revision B.01,
 M. J. Frisch, G. W. Trucks, H. B. Schlegel, G. E. Scuseria, 
 M. A. Robb, J. R. Cheeseman, G. Scalmani, V. Barone, 
 G. A. Petersson, H. Nakatsuji, X. Li, M. Caricato, A. V. Marenich, 
 J. Bloino, B. G. Janesko, R. Gomperts, B. Mennucci, H. P. Hratchian, 
 J. V. Ortiz, A. F. Izmaylov, J. L. Sonnenberg, D. Williams-Young, 
 F. Ding, F. Lipparini, F. Egidi, J. Goings, B. Peng, A. Petrone, 
 T. Henderson, D. Ranasinghe, V. G. Zakrzewski, J. Gao, N. Rega, 
 G. Zheng, W. Liang, M. Hada, M. Ehara, K. Toyota, R. Fukuda, 
 J. Hasegawa, M. Ishida, T. Nakajima, Y. Honda, O. Kitao, H. Nakai, 
 T. Vreven, K. Throssell, J. A. Montgomery, Jr., J. E. Peralta, 
 F. Ogliaro, M. J. Bearpark, J. J. Heyd, E. N. Brothers, K. N. Kudin, 
 V. N. Staroverov, T. A. Keith, R. Kobayashi, J. Normand, 
 K. Raghavachari, A. P. Rendell, J. C. Burant, S. S. Iyengar, 
 J. Tomasi, M. Cossi, J. M. Millam, M. Klene, C. Adamo, R. Cammi, 
 J. W. Ochterski, R. L. Martin, K. Morokuma, O. Farkas, 
 J. B. Foresman, and D. J. Fox, Gaussian, Inc., Wallingford CT, 2016.
 
 ******************************************
 Gaussian 16:  ES64L-G16RevB.01 20-Dec-2017
                16-May-2019 
 ******************************************
 %NProcShared=32
 Will use up to   32 processors via shared memory.
 %chk=AH-BnoH-opt.chk
 ----------------------------------------------------------------------
 #p opt freq ub3lyp/6-31g(d,p) scrf=(iefpcm,solvent=acetonitrile) empir
 icaldispersion=gd3
 ----------------------------------------------------------------------
 1/18=20,19=15,26=3,38=1/1,3;
 2/9=110,12=2,17=6,18=5,40=1/2;
 3/5=1,6=6,7=101,11=2,25=1,30=1,70=2201,71=1,72=2,74=-5,116=2,124=31/1,2,3;
 4//1;
 5/5=2,38=5,53=2/2;
 6/7=2,8=2,9=2,10=2,28=1/1;
 7//1,2,3,16;
 1/18=20,19=15,26=3/3(2);
 2/9=110/2;
 99//99;
 2/9=110/2;
 3/5=1,6=6,7=101,11=2,25=1,30=1,70=2205,71=1,72=2,74=-5,116=2,124=31/1,2,3;
 4/5=5,16=3,69=1/1;
 5/5=2,38=5,53=2/2;
 7//1,2,3,16;
 1/18=20,19=15,26=3/3(-5);
 2/9=110/2;
 6/7=2,8=2,9=2,10=2,19=2,28=1/1;
 99/9=1/99;
 Leave Link    1 at Thu May 16 18:01:23 2019, MaxMem=           0 cpu:               3.9 elap:               0.1
 (Enter /opt/software/gaussian/g16.b01/l101.exe)
 -------------------
 Title Card Required
 -------------------
 Symbolic Z-matrix:
 Charge =  0 Multiplicity = 1
 C                    -0.06092  -1.87351   0.64592 
 O                    -0.68654  -2.51634  -0.19389 
 C                    -0.59005  -1.74531   2.05864 
 H                     0.12902  -2.14462   2.7813 
 H                    -0.75885  -0.69332   2.30681 
 H                    -1.53158  -2.28871   2.1346 
 C                     1.22381  -1.19957   0.28792 
 C                     1.72564  -1.36192  -1.01417 
 C                     1.92687  -0.39486   1.19652 
 C                     2.90394  -0.73274  -1.40071 
 H                     1.16988  -1.98251  -1.70864 
 C                     3.10693   0.2391    0.80759 
 H                     1.55395  -0.24763   2.20364 
 C                     3.59663   0.07185  -0.48896 
 H                     3.28387  -0.86304  -2.40944 
 H                     3.64045   0.86639   1.51483 
 H                     4.51471   0.56743  -0.79033 
 H                    -0.21537  -3.02473  -0.85807 
 N                     1.98431  -5.30776   0.12699 
 H                     2.31763  -6.25057   0.12699 
 H                     2.31765  -4.83636   0.94349 
 N                     2.45099  -4.6478   -1.0161 
 H                     2.11914  -5.12025  -1.8326 
 
 Add virtual bond connecting atoms N22        and H11        Dist= 5.74D+00.
 Add virtual bond connecting atoms N22        and H18        Dist= 5.91D+00.
 ITRead=  0  0  0  0  0  0  0  0  0  0  0  0  0  0  0  0  0  0  0  0
 ITRead=  0  0  0
 MicOpt= -1 -1 -1 -1 -1 -1 -1 -1 -1 -1 -1 -1 -1 -1 -1 -1 -1 -1 -1 -1
 MicOpt= -1 -1 -1
 NAtoms=     23 NQM=       23 NQMF=       0 NMMI=      0 NMMIF=      0
                NMic=       0 NMicF=      0.
                    Isotopes and Nuclear Properties:
 (Nuclear quadrupole moments (NQMom) in fm**2, nuclear magnetic moments (NMagM)
  in nuclear magnetons)

  Atom         1           2           3           4           5           6           7           8           9          10
 IAtWgt=          12          16          12           1           1           1          12          12          12          12
 AtmWgt=  12.0000000  15.9949146  12.0000000   1.0078250   1.0078250   1.0078250  12.0000000  12.0000000  12.0000000  12.0000000
 NucSpn=           0           0           0           1           1           1           0           0           0           0
 AtZEff=  -0.0000000  -0.0000000  -0.0000000  -0.0000000  -0.0000000  -0.0000000  -0.0000000  -0.0000000  -0.0000000  -0.0000000
 NQMom=    0.0000000   0.0000000   0.0000000   0.0000000   0.0000000   0.0000000   0.0000000   0.0000000   0.0000000   0.0000000
 NMagM=    0.0000000   0.0000000   0.0000000   2.7928460   2.7928460   2.7928460   0.0000000   0.0000000   0.0000000   0.0000000
 AtZNuc=   6.0000000   8.0000000   6.0000000   1.0000000   1.0000000   1.0000000   6.0000000   6.0000000   6.0000000   6.0000000

  Atom        11          12          13          14          15          16          17          18          19          20
 IAtWgt=           1          12           1          12           1           1           1           1          14           1
 AtmWgt=   1.0078250  12.0000000   1.0078250  12.0000000   1.0078250   1.0078250   1.0078250   1.0078250  14.0030740   1.0078250
 NucSpn=           1           0           1           0           1           1           1           1           2           1
 AtZEff=  -0.0000000  -0.0000000  -0.0000000  -0.0000000  -0.0000000  -0.0000000  -0.0000000  -0.0000000  -0.0000000  -0.0000000
 NQMom=    0.0000000   0.0000000   0.0000000   0.0000000   0.0000000   0.0000000   0.0000000   0.0000000   2.0440000   0.0000000
 NMagM=    2.7928460   0.0000000   2.7928460   0.0000000   2.7928460   2.7928460   2.7928460   2.7928460   0.4037610   2.7928460
 AtZNuc=   1.0000000   6.0000000   1.0000000   6.0000000   1.0000000   1.0000000   1.0000000   1.0000000   7.0000000   1.0000000

  Atom        21          22          23
 IAtWgt=           1          14           1
 AtmWgt=   1.0078250  14.0030740   1.0078250
 NucSpn=           1           2           1
 AtZEff=  -0.0000000  -0.0000000  -0.0000000
 NQMom=    0.0000000   2.0440000   0.0000000
 NMagM=    2.7928460   0.4037610   2.7928460
 AtZNuc=   1.0000000   7.0000000   1.0000000
 Leave Link  101 at Thu May 16 18:01:24 2019, MaxMem=   104857600 cpu:               4.8 elap:               0.2
 (Enter /opt/software/gaussian/g16.b01/l103.exe)

 GradGradGradGradGradGradGradGradGradGradGradGradGradGradGradGradGradGrad
 Berny optimization.
 Initialization pass.
                           ----------------------------
                           !    Initial Parameters    !
                           ! (Angstroms and Degrees)  !
 --------------------------                            --------------------------
 ! Name  Definition              Value          Derivative Info.                !
 --------------------------------------------------------------------------------
 ! R1    R(1,2)                  1.2288         estimate D2E/DX2                !
 ! R2    R(1,3)                  1.514          estimate D2E/DX2                !
 ! R3    R(1,7)                  1.4943         estimate D2E/DX2                !
 ! R4    R(2,18)                 0.96           estimate D2E/DX2                !
 ! R5    R(3,4)                  1.0949         estimate D2E/DX2                !
 ! R6    R(3,5)                  1.094          estimate D2E/DX2                !
 ! R7    R(3,6)                  1.0897         estimate D2E/DX2                !
 ! R8    R(7,8)                  1.4049         estimate D2E/DX2                !
 ! R9    R(7,9)                  1.4026         estimate D2E/DX2                !
 ! R10   R(8,10)                 1.3906         estimate D2E/DX2                !
 ! R11   R(8,11)                 1.0846         estimate D2E/DX2                !
 ! R12   R(9,12)                 1.3949         estimate D2E/DX2                !
 ! R13   R(9,13)                 1.084          estimate D2E/DX2                !
 ! R14   R(10,14)                1.3994         estimate D2E/DX2                !
 ! R15   R(10,15)                1.0858         estimate D2E/DX2                !
 ! R16   R(11,22)                3.0372         estimate D2E/DX2                !
 ! R17   R(12,14)                1.396          estimate D2E/DX2                !
 ! R18   R(12,16)                1.0855         estimate D2E/DX2                !
 ! R19   R(14,17)                1.086          estimate D2E/DX2                !
 ! R20   R(18,22)                3.1255         estimate D2E/DX2                !
 ! R21   R(19,20)                1.0            estimate D2E/DX2                !
 ! R22   R(19,21)                1.0            estimate D2E/DX2                !
 ! R23   R(19,22)                1.4            estimate D2E/DX2                !
 ! R24   R(22,23)                1.0            estimate D2E/DX2                !
 ! A1    A(2,1,3)              120.2708         estimate D2E/DX2                !
 ! A2    A(2,1,7)              120.6602         estimate D2E/DX2                !
 ! A3    A(3,1,7)              119.0674         estimate D2E/DX2                !
 ! A4    A(1,2,18)             120.0            estimate D2E/DX2                !
 ! A5    A(1,3,4)              110.8223         estimate D2E/DX2                !
 ! A6    A(1,3,5)              110.3057         estimate D2E/DX2                !
 ! A7    A(1,3,6)              108.9518         estimate D2E/DX2                !
 ! A8    A(4,3,5)              107.5977         estimate D2E/DX2                !
 ! A9    A(4,3,6)              109.8506         estimate D2E/DX2                !
 ! A10   A(5,3,6)              109.2923         estimate D2E/DX2                !
 ! A11   A(1,7,8)              118.4924         estimate D2E/DX2                !
 ! A12   A(1,7,9)              122.31           estimate D2E/DX2                !
 ! A13   A(8,7,9)              119.1863         estimate D2E/DX2                !
 ! A14   A(7,8,10)             120.5326         estimate D2E/DX2                !
 ! A15   A(7,8,11)             118.4612         estimate D2E/DX2                !
 ! A16   A(10,8,11)            121.0052         estimate D2E/DX2                !
 ! A17   A(7,9,12)             120.2758         estimate D2E/DX2                !
 ! A18   A(7,9,13)             120.4859         estimate D2E/DX2                !
 ! A19   A(12,9,13)            119.2334         estimate D2E/DX2                !
 ! A20   A(8,10,14)            119.8975         estimate D2E/DX2                !
 ! A21   A(8,10,15)            120.0305         estimate D2E/DX2                !
 ! A22   A(14,10,15)           120.0716         estimate D2E/DX2                !
 ! A23   A(8,11,22)             98.0468         estimate D2E/DX2                !
 ! A24   A(9,12,14)            120.0845         estimate D2E/DX2                !
 ! A25   A(9,12,16)            119.7866         estimate D2E/DX2                !
 ! A26   A(14,12,16)           120.1283         estimate D2E/DX2                !
 ! A27   A(10,14,12)           120.0228         estimate D2E/DX2                !
 ! A28   A(10,14,17)           120.002          estimate D2E/DX2                !
 ! A29   A(12,14,17)           119.9752         estimate D2E/DX2                !
 ! A30   A(2,18,22)            136.7769         estimate D2E/DX2                !
 ! A31   A(20,19,21)           109.4712         estimate D2E/DX2                !
 ! A32   A(20,19,22)           109.4712         estimate D2E/DX2                !
 ! A33   A(21,19,22)           109.4713         estimate D2E/DX2                !
 ! A34   A(11,22,18)            36.4844         estimate D2E/DX2                !
 ! A35   A(11,22,19)           117.3385         estimate D2E/DX2                !
 ! A36   A(11,22,23)            95.0746         estimate D2E/DX2                !
 ! A37   A(18,22,19)            85.3621         estimate D2E/DX2                !
 ! A38   A(18,22,23)            90.2024         estimate D2E/DX2                !
 ! A39   A(19,22,23)           109.4712         estimate D2E/DX2                !
 ! D1    D(3,1,2,18)          -144.6307         estimate D2E/DX2                !
 ! D2    D(7,1,2,18)            35.8472         estimate D2E/DX2                !
 ! D3    D(2,1,3,4)            120.9782         estimate D2E/DX2                !
 ! D4    D(2,1,3,5)           -119.9691         estimate D2E/DX2                !
 ! D5    D(2,1,3,6)              0.0            estimate D2E/DX2                !
 ! D6    D(7,1,3,4)            -59.4921         estimate D2E/DX2                !
 ! D7    D(7,1,3,5)             59.5606         estimate D2E/DX2                !
 ! D8    D(7,1,3,6)            179.5297         estimate D2E/DX2                !
 ! D9    D(2,1,7,8)             -2.4894         estimate D2E/DX2                !
 ! D10   D(2,1,7,9)            176.2807         estimate D2E/DX2                !
 ! D11   D(3,1,7,8)            177.9828         estimate D2E/DX2                !
 ! D12   D(3,1,7,9)             -3.2471         estimate D2E/DX2                !
 ! D13   D(1,2,18,22)           33.8657         estimate D2E/DX2                !
 ! D14   D(1,7,8,10)           178.7464         estimate D2E/DX2                !
 ! D15   D(1,7,8,11)            -0.8769         estimate D2E/DX2                !
 ! D16   D(9,7,8,10)            -0.063          estimate D2E/DX2                !
 ! D17   D(9,7,8,11)          -179.6863         estimate D2E/DX2                !
 ! D18   D(1,7,9,12)          -178.5279         estimate D2E/DX2                !
 ! D19   D(1,7,9,13)             0.6679         estimate D2E/DX2                !
 ! D20   D(8,7,9,12)             0.234          estimate D2E/DX2                !
 ! D21   D(8,7,9,13)           179.4298         estimate D2E/DX2                !
 ! D22   D(7,8,10,14)           -0.1436         estimate D2E/DX2                !
 ! D23   D(7,8,10,15)         -179.9374         estimate D2E/DX2                !
 ! D24   D(11,8,10,14)         179.47           estimate D2E/DX2                !
 ! D25   D(11,8,10,15)          -0.3239         estimate D2E/DX2                !
 ! D26   D(7,8,11,22)          -88.2909         estimate D2E/DX2                !
 ! D27   D(10,8,11,22)          92.0877         estimate D2E/DX2                !
 ! D28   D(7,9,12,14)           -0.1983         estimate D2E/DX2                !
 ! D29   D(7,9,12,16)          179.5158         estimate D2E/DX2                !
 ! D30   D(13,9,12,14)        -179.4041         estimate D2E/DX2                !
 ! D31   D(13,9,12,16)           0.31           estimate D2E/DX2                !
 ! D32   D(8,10,14,12)           0.1808         estimate D2E/DX2                !
 ! D33   D(8,10,14,17)        -179.737          estimate D2E/DX2                !
 ! D34   D(15,10,14,12)        179.9746         estimate D2E/DX2                !
 ! D35   D(15,10,14,17)          0.0567         estimate D2E/DX2                !
 ! D36   D(8,11,22,18)         111.9613         estimate D2E/DX2                !
 ! D37   D(8,11,22,19)          80.4082         estimate D2E/DX2                !
 ! D38   D(8,11,22,23)        -164.591          estimate D2E/DX2                !
 ! D39   D(9,12,14,10)          -0.0103         estimate D2E/DX2                !
 ! D40   D(9,12,14,17)         179.9076         estimate D2E/DX2                !
 ! D41   D(16,12,14,10)       -179.7235         estimate D2E/DX2                !
 ! D42   D(16,12,14,17)          0.1944         estimate D2E/DX2                !
 ! D43   D(2,18,22,11)        -100.1678         estimate D2E/DX2                !
 ! D44   D(2,18,22,19)          52.0334         estimate D2E/DX2                !
 ! D45   D(2,18,22,23)         161.5538         estimate D2E/DX2                !
 ! D46   D(20,19,22,11)        166.6509         estimate D2E/DX2                !
 ! D47   D(20,19,22,18)        148.4608         estimate D2E/DX2                !
 ! D48   D(20,19,22,23)         59.8889         estimate D2E/DX2                !
 ! D49   D(21,19,22,11)        -73.3491         estimate D2E/DX2                !
 ! D50   D(21,19,22,18)        -91.5392         estimate D2E/DX2                !
 ! D51   D(21,19,22,23)        179.8889         estimate D2E/DX2                !
 --------------------------------------------------------------------------------
 Trust Radius=3.00D-01 FncErr=1.00D-07 GrdErr=1.00D-06 EigMax=2.50D+02 EigMin=1.00D-04
 Number of steps in this run=    124 maximum allowed number of steps=    138.
 GradGradGradGradGradGradGradGradGradGradGradGradGradGradGradGradGradGrad

 Leave Link  103 at Thu May 16 18:01:24 2019, MaxMem=   104857600 cpu:               0.5 elap:               0.0
 (Enter /opt/software/gaussian/g16.b01/l202.exe)
                          Input orientation:                          
 ---------------------------------------------------------------------
 Center     Atomic      Atomic             Coordinates (Angstroms)
 Number     Number       Type             X           Y           Z
 ---------------------------------------------------------------------
      1          6           0       -0.060921   -1.873512    0.645917
      2          8           0       -0.686544   -2.516338   -0.193889
      3          6           0       -0.590049   -1.745309    2.058644
      4          1           0        0.129016   -2.144621    2.781296
      5          1           0       -0.758850   -0.693322    2.306807
      6          1           0       -1.531584   -2.288709    2.134602
      7          6           0        1.223811   -1.199566    0.287918
      8          6           0        1.725636   -1.361920   -1.014173
      9          6           0        1.926867   -0.394857    1.196524
     10          6           0        2.903939   -0.732737   -1.400711
     11          1           0        1.169876   -1.982506   -1.708641
     12          6           0        3.106927    0.239095    0.807591
     13          1           0        1.553948   -0.247629    2.203638
     14          6           0        3.596626    0.071845   -0.488962
     15          1           0        3.283870   -0.863037   -2.409441
     16          1           0        3.640448    0.866394    1.514832
     17          1           0        4.514708    0.567430   -0.790326
     18          1           0       -0.215373   -3.024731   -0.858068
     19          7           0        1.984311   -5.307757    0.126991
     20          1           0        2.317633   -6.250571    0.126991
     21          1           0        2.317651   -4.836357    0.943488
     22          7           0        2.450986   -4.647797   -1.016104
     23          1           0        2.119141   -5.120253   -1.832599
 ---------------------------------------------------------------------
                    Distance matrix (angstroms):
                    1          2          3          4          5
     1  C    0.000000
     2  O    1.228781   0.000000
     3  C    1.514005   2.382793   0.000000
     4  H    2.160884   3.107256   1.094865   0.000000
     5  H    2.153720   3.095496   1.093963   1.766271   0.000000
     6  H    2.133406   2.487524   1.089744   1.787895   1.781020
     7  C    1.494290   2.369701   2.592951   2.882471   2.874568
     8  C    2.491869   2.797170   3.866728   4.191348   4.201024
     9  C    2.537891   3.641956   2.983595   2.967397   2.921453
    10  C    3.778948   4.186791   5.019999   5.213712   5.211839
    11  H    2.659076   2.454739   4.164857   4.611855   4.637435
    12  C    3.811103   4.794350   4.378427   4.294830   4.249857
    13  H    2.770883   3.989358   2.619311   2.441864   2.357609
    14  C    4.295348   5.013113   5.226910   5.256579   5.231823
    15  H    4.641541   4.838002   5.979083   6.208004   6.214128
    16  H    4.686388   5.751996   5.001383   4.795862   4.734317
    17  H    5.381205   6.076050   6.286806   6.272639   6.244369
    18  H    1.900298   0.960000   3.206948   3.760076   3.968283
    19  N    4.030670   3.876655   4.801005   4.526907   5.793923
    20  H    5.008537   4.803388   5.699410   5.356697   6.715605
    21  H    3.811116   3.962487   4.387809   3.925952   5.337437
    22  N    4.094954   3.881140   5.208302   5.106631   6.081337
    23  H    4.630015   4.163845   5.819942   5.839778   6.709339
                    6          7          8          9         10
     6  H    0.000000
     7  C    3.491228   0.000000
     8  C    4.624198   1.404859   0.000000
     9  C    4.053091   1.402644   2.421340   0.000000
    10  C    5.881611   2.427391   1.390569   2.795436   0.000000
    11  H    4.707671   2.145263   1.084565   3.396123   2.159564
    12  C    5.446700   2.426094   2.791064   1.394886   2.421210
    13  H    3.700173   2.164522   3.409608   1.083985   3.879322
    14  C    6.225258   2.801835   2.414981   2.418009   1.399448
    15  H    6.772700   3.410695   2.150291   3.881190   1.085754
    16  H    6.090050   3.407880   3.876565   2.151380   3.405886
    17  H    7.298656   3.887787   3.398738   3.401542   2.158143
    18  H    3.351151   2.591479   2.560630   3.965701   3.908684
    19  N    5.050413   4.181088   4.115678   5.028299   4.910234
    20  H    5.877357   5.170589   5.054861   5.965399   5.755355
    21  H    4.767166   3.853895   4.031703   4.465833   4.762216
    22  N    5.599385   3.885451   3.364985   4.822647   3.959897
    23  H    6.089673   4.546426   3.866488   5.616219   4.478027
                   11         12         13         14         15
    11  H    0.000000
    12  C    3.875448   0.000000
    13  H    4.296887   2.144199   0.000000
    14  C    3.405450   1.396004   3.394804   0.000000
    15  H    2.492650   3.405187   4.965063   2.158717   0.000000
    16  H    4.960921   1.085513   2.463531   2.156019   4.303254
    17  H    4.305041   2.154760   4.288851   1.085955   2.486510
    18  H    1.930964   4.946177   4.496314   4.925075   4.395951
    19  N    3.884604   5.700092   5.486581   5.649697   5.279951
    20  H    4.785736   6.572820   6.397733   6.479827   6.032630
    21  H    4.061483   5.138253   4.819507   5.270497   5.288004
    22  N    3.037207   5.257170   5.525658   4.885222   4.118191
    23  H    3.280537   6.055488   6.352410   5.562931   4.451205
                   16         17         18         19         20
    16  H    0.000000
    17  H    2.483438   0.000000
    18  H    5.969830   5.939855   0.000000
    19  N    6.541333   6.462368   3.319814   0.000000
    20  H    7.370694   7.221755   4.218116   1.000000   0.000000
    21  H    5.881972   6.085564   3.597750   1.000000   1.632993
    22  N    6.182779   5.613245   3.125506   1.400000   1.973153
    23  H    7.025639   6.258978   3.284947   1.973153   2.270906
                   21         22         23
    21  H    0.000000
    22  N    1.973153   0.000000
    23  H    2.797618   1.000000   0.000000
 Stoichiometry    C8H12N2O
 Framework group  C1[X(C8H12N2O)]
 Deg. of freedom    63
 Full point group                 C1      NOp   1
 Largest Abelian subgroup         C1      NOp   1
 Largest concise Abelian subgroup C1      NOp   1
                         Standard orientation:                         
 ---------------------------------------------------------------------
 Center     Atomic      Atomic             Coordinates (Angstroms)
 Number     Number       Type             X           Y           Z
 ---------------------------------------------------------------------
      1          6           0        0.509423    1.572111    0.388927
      2          8           0        1.367087    1.414985    1.254737
      3          6           0        0.523357    2.809422   -0.483471
      4          1           0        0.608560    2.539050   -1.541001
      5          1           0       -0.406874    3.371665   -0.359747
      6          1           0        1.365109    3.437690   -0.193171
      7          6           0       -0.566011    0.554270    0.188066
      8          6           0       -0.542724   -0.609459    0.974717
      9          6           0       -1.605180    0.734081   -0.736707
     10          6           0       -1.537058   -1.572363    0.841311
     11          1           0        0.263299   -0.734032    1.689624
     12          6           0       -2.604496   -0.230210   -0.867917
     13          1           0       -1.648848    1.628275   -1.347881
     14          6           0       -2.572511   -1.382721   -0.080821
     15          1           0       -1.511627   -2.468248    1.454177
     16          1           0       -3.409303   -0.079253   -1.580543
     17          1           0       -3.352237   -2.131595   -0.183368
     18          1           0        1.698516    0.534972    1.447952
     19          7           0        2.997985   -1.269977   -1.016740
     20          1           0        3.757408   -1.792274   -1.404661
     21          1           0        2.406057   -0.944721   -1.754189
     22          7           0        2.260771   -2.089455   -0.153623
     23          1           0        2.853147   -2.416172    0.582819
 ---------------------------------------------------------------------
 Rotational constants (GHZ):           1.0937713           0.8117118           0.5708827
 Leave Link  202 at Thu May 16 18:01:24 2019, MaxMem=   104857600 cpu:               1.8 elap:               0.1
 (Enter /opt/software/gaussian/g16.b01/l301.exe)
 Standard basis: 6-31G(d,p) (6D, 7F)
 Ernie: Thresh=  0.10000D-02 Tol=  0.10000D-05 Strict=F.
 There are   225 symmetry adapted cartesian basis functions of A   symmetry.
 There are   225 symmetry adapted basis functions of A   symmetry.
   225 basis functions,   392 primitive gaussians,   225 cartesian basis functions
    41 alpha electrons       41 beta electrons
       nuclear repulsion energy       579.3475968730 Hartrees.
 IExCor=  402 DFT=T Ex+Corr=B3LYP ExCW=0 ScaHFX=  0.200000
 ScaDFX=  0.800000  0.720000  1.000000  0.810000 ScalE2=  1.000000  1.000000
 IRadAn=      5 IRanWt=     -1 IRanGd=            0 ICorTp=0 IEmpDi=131
 NAtoms=   23 NActive=   23 NUniq=   23 SFac= 1.00D+00 NAtFMM=   60 NAOKFM=F Big=F
 Integral buffers will be    131072 words long.
 Raffenetti 2 integral format.
 Two-electron integral symmetry is turned on.
 R6Disp:  Grimme-D3 Dispersion energy=       -0.0159558921 Hartrees.
 Nuclear repulsion after empirical dispersion term =      579.3316409809 Hartrees.
 ------------------------------------------------------------------------------
 Polarizable Continuum Model (PCM)
 =================================
 Model                : PCM.
 Atomic radii         : UFF (Universal Force Field).
 Polarization charges : Total charges.
 Charge compensation  : None.
 Solution method      : On-the-fly selection.
 Cavity type          : Scaled VdW (van der Waals Surface) (Alpha=1.100).
 Cavity algorithm     : GePol (No added spheres)
                        Default sphere list used, NSphG=   23.
                        Lebedev-Laikov grids with approx.  5.0 points / Ang**2.
                        Smoothing algorithm: York/Karplus (Gamma=1.0000).
                        Polarization charges: spherical gaussians, with
                                              point-specific exponents (IZeta= 3).
                        Self-potential: point-specific (ISelfS= 7).
                        Self-field    : sphere-specific E.n sum rule (ISelfD= 2).
 1st derivatives      : Analytical E(r).r(x)/FMM algorithm (CHGder, D1EAlg=3).
                        Cavity 1st derivative terms included.
 Solvent              : Acetonitrile, Eps=  35.688000 Eps(inf)=   1.806874
 ------------------------------------------------------------------------------
 GePol: Number of generator spheres                  =      23
 GePol: Total number of spheres                      =      23
 GePol: Number of exposed spheres                    =      23 (100.00%)
 GePol: Number of points                             =    1898
 GePol: Average weight of points                     =       0.13
 GePol: Minimum weight of points                     =   0.99D-11
 GePol: Maximum weight of points                     =    0.20577
 GePol: Number of points with low weight             =     108
 GePol: Fraction of low-weight points (<1% of avg)   =       5.69%
 GePol: Cavity surface area                          =    254.219 Ang**2
 GePol: Cavity volume                                =    249.613 Ang**3
 Leave Link  301 at Thu May 16 18:01:24 2019, MaxMem=   104857600 cpu:               2.6 elap:               0.1
 (Enter /opt/software/gaussian/g16.b01/l302.exe)
 NPDir=0 NMtPBC=     1 NCelOv=     1 NCel=       1 NClECP=     1 NCelD=      1
         NCelK=      1 NCelE2=     1 NClLst=     1 CellRange=     0.0.
 One-electron integrals computed using PRISM.
 One-electron integral symmetry used in STVInt
 PrsmSu:  requested number of processors reduced to:  29 ShMem   1 Linda.
 NBasis=   225 RedAO= T EigKep=  4.66D-04  NBF=   225
 NBsUse=   225 1.00D-06 EigRej= -1.00D+00 NBFU=   225
 Precomputing XC quadrature grid using
 IXCGrd= 4 IRadAn=           5 IRanWt=          -1 IRanGd=           0 AccXCQ= 0.00D+00.
 Generated NRdTot=       0 NPtTot=           0 NUsed=           0 NTot=          32
 NSgBfM=   225   225   225   225   225 MxSgAt=    23 MxSgA2=    23.
 Leave Link  302 at Thu May 16 18:01:24 2019, MaxMem=   104857600 cpu:               7.4 elap:               0.3
 (Enter /opt/software/gaussian/g16.b01/l303.exe)
 DipDrv:  MaxL=1.
 Leave Link  303 at Thu May 16 18:01:24 2019, MaxMem=   104857600 cpu:               1.1 elap:               0.1
 (Enter /opt/software/gaussian/g16.b01/l401.exe)
 ExpMin= 1.61D-01 ExpMax= 5.48D+03 ExpMxC= 8.25D+02 IAcc=3 IRadAn=         5 AccDes= 0.00D+00
 Harris functional with IExCor=  402 and IRadAn=       5 diagonalized for initial guess.
 HarFok:  IExCor=  402 AccDes= 0.00D+00 IRadAn=         5 IDoV= 1 UseB2=F ITyADJ=14
 ICtDFT=  3500011 ScaDFX=  1.000000  1.000000  1.000000  1.000000
 FoFCou: FMM=F IPFlag=           0 FMFlag=      100000 FMFlg1=           0
         NFxFlg=           0 DoJE=T BraDBF=F KetDBF=T FulRan=T
         wScrn=  0.000000 ICntrl=       500 IOpCl=  0 I1Cent=   200000004 NGrid=           0
         NMat0=    1 NMatS0=      1 NMatT0=    0 NMatD0=    1 NMtDS0=    0 NMtDT0=    0
 Petite list used in FoFCou.
 Harris En= -496.728176011536    
 JPrj=0 DoOrth=F DoCkMO=F.
 Initial guess <Sx>= 0.0000 <Sy>= 0.0000 <Sz>= 0.0000 <S**2>=-0.0000 S=-0.0000
 Leave Link  401 at Thu May 16 18:01:25 2019, MaxMem=   104857600 cpu:              14.6 elap:               0.5
 (Enter /opt/software/gaussian/g16.b01/l502.exe)
 Integral symmetry usage will be decided dynamically.
 UHF open shell SCF:
 Using DIIS extrapolation, IDIIS=  1040.
 NGot=   104857600 LenX=   104746616 LenY=   104695550
 Requested convergence on RMS density matrix=1.00D-08 within 128 cycles.
 Requested convergence on MAX density matrix=1.00D-06.
 Requested convergence on             energy=1.00D-06.
 No special actions if energy rises.
 Fock matrices will be formed incrementally for  20 cycles.

 Cycle   1  Pass 1  IDiag  1:
 FoFJK:  IHMeth= 1 ICntrl=       0 DoSepK=F KAlg= 0 I1Cent=           0 FoldK=F
 IRaf= 860000000 NMat=       1 IRICut=       1 DoRegI=T DoRafI=F ISym2E= 0 IDoP0=0 IntGTp=1.
 FoFCou: FMM=F IPFlag=           0 FMFlag=      100000 FMFlg1=           0
         NFxFlg=           0 DoJE=F BraDBF=F KetDBF=F FulRan=T
         wScrn=  0.000000 ICntrl=         0 IOpCl=  1 I1Cent=           0 NGrid=           0
         NMat0=    1 NMatS0=      1 NMatT0=    0 NMatD0=    1 NMtDS0=    0 NMtDT0=    0
 Symmetry not used in FoFCou.
 Inv3:  Mode=1 IEnd=    10807212.
 Iteration    1 A*A^-1 deviation from unit magnitude is 3.22D-15 for    602.
 Iteration    1 A*A^-1 deviation from orthogonality  is 1.93D-15 for   1188    615.
 Iteration    1 A^-1*A deviation from unit magnitude is 3.33D-15 for   1263.
 Iteration    1 A^-1*A deviation from orthogonality  is 1.90D-15 for   1449   1419.
 E= -496.241363483080    
 DIIS: error= 3.76D-02 at cycle   1 NSaved=   1.
 NSaved= 1 IEnMin= 1 EnMin= -496.241363483080     IErMin= 1 ErrMin= 3.76D-02
 ErrMax= 3.76D-02  0.00D+00 EMaxC= 1.00D-01 BMatC= 1.53D+00 BMatP= 1.53D+00
 IDIUse=3 WtCom= 6.24D-01 WtEn= 3.76D-01
 Coeff-Com:  0.100D+01
 Coeff-En:   0.100D+01
 Coeff:      0.100D+01
 Gap=    -0.247 Goal=   None    Shift=    0.000
 Gap=    -0.247 Goal=   None    Shift=    0.000
 GapD=   -0.247 DampG=0.250 DampE=0.500 DampFc=0.2500 IDamp=-1.
 Damping current iteration by 2.50D-01
 RMSDP=1.02D-02 MaxDP=3.37D-01              OVMax= 9.16D-01

 Cycle   2  Pass 1  IDiag  1:
 RMSU=  2.52D-03    CP:  9.80D-01
 E= -496.391623133403     Delta-E=       -0.150259650324 Rises=F Damp=T
 DIIS: error= 1.62D-02 at cycle   2 NSaved=   2.
 NSaved= 2 IEnMin= 2 EnMin= -496.391623133403     IErMin= 2 ErrMin= 1.62D-02
 ErrMax= 1.62D-02  0.00D+00 EMaxC= 1.00D-01 BMatC= 3.21D-01 BMatP= 1.53D+00
 IDIUse=3 WtCom= 8.38D-01 WtEn= 1.62D-01
 Coeff-Com: -0.283D+00 0.128D+01
 Coeff-En:   0.871D-01 0.913D+00
 Coeff:     -0.223D+00 0.122D+01
 Gap=     0.179 Goal=   None    Shift=    0.000
 Gap=     0.179 Goal=   None    Shift=    0.000
 RMSDP=3.25D-03 MaxDP=8.44D-02 DE=-1.50D-01 OVMax= 9.67D-01

 Cycle   3  Pass 1  IDiag  1:
 RMSU=  2.91D-03    CP:  9.64D-01  4.42D-01
 E= -496.454009093102     Delta-E=       -0.062385959699 Rises=F Damp=F
 DIIS: error= 2.04D-02 at cycle   3 NSaved=   3.
 NSaved= 3 IEnMin= 3 EnMin= -496.454009093102     IErMin= 2 ErrMin= 1.62D-02
 ErrMax= 2.04D-02  0.00D+00 EMaxC= 1.00D-01 BMatC= 6.45D-01 BMatP= 3.21D-01
 IDIUse=2 WtCom= 0.00D+00 WtEn= 1.00D+00
 Coeff-En:   0.000D+00 0.380D+00 0.620D+00
 Coeff:      0.000D+00 0.380D+00 0.620D+00
 Gap=    -0.155 Goal=   None    Shift=    0.000
 Gap=    -0.155 Goal=   None    Shift=    0.000
 RMSDP=6.19D-03 MaxDP=2.70D-01 DE=-6.24D-02 OVMax= 9.78D-01

 Cycle   4  Pass 1  IDiag  1:
 RMSU=  3.89D-03    CP:  9.42D-01  1.97D+00  1.10D-02
 E= -495.855131695655     Delta-E=        0.598877397447 Rises=F Damp=F
 DIIS: error= 4.82D-02 at cycle   4 NSaved=   4.
 NSaved= 4 IEnMin= 3 EnMin= -496.454009093102     IErMin= 2 ErrMin= 1.62D-02
 ErrMax= 4.82D-02  0.00D+00 EMaxC= 1.00D-01 BMatC= 2.35D+00 BMatP= 3.21D-01
 IDIUse=2 WtCom= 0.00D+00 WtEn= 1.00D+00
 Coeff-En:   0.000D+00 0.000D+00 0.698D+00 0.302D+00
 Coeff:      0.000D+00 0.000D+00 0.698D+00 0.302D+00
 Gap=     0.180 Goal=   None    Shift=    0.000
 Gap=     0.180 Goal=   None    Shift=    0.000
 RMSDP=2.98D-03 MaxDP=8.64D-02 DE= 5.99D-01 OVMax= 3.87D-01

 Cycle   5  Pass 1  IDiag  1:
 RMSU=  2.39D-03    CP:  9.49D-01  1.30D+00  1.24D-01  8.80D-01
 E= -496.442630555329     Delta-E=       -0.587498859674 Rises=F Damp=F
 DIIS: error= 2.13D-02 at cycle   5 NSaved=   5.
 NSaved= 5 IEnMin= 3 EnMin= -496.454009093102     IErMin= 2 ErrMin= 1.62D-02
 ErrMax= 2.13D-02  0.00D+00 EMaxC= 1.00D-01 BMatC= 5.17D-01 BMatP= 3.21D-01
 IDIUse=2 WtCom= 0.00D+00 WtEn= 1.00D+00
 Coeff-En:   0.000D+00 0.000D+00 0.508D+00 0.000D+00 0.492D+00
 Coeff:      0.000D+00 0.000D+00 0.508D+00 0.000D+00 0.492D+00
 Gap=    -0.004 Goal=   None    Shift=    0.000
 Gap=    -0.004 Goal=   None    Shift=    0.000
 RMSDP=4.26D-03 MaxDP=1.55D-01 DE=-5.87D-01 OVMax= 7.56D-01

 Cycle   6  Pass 1  IDiag  1:
 RMSU=  1.31D-03    CP:  9.70D-01  5.09D-01  6.46D-01  1.35D-01  4.66D-01
 E= -496.615717925726     Delta-E=       -0.173087370397 Rises=F Damp=F
 DIIS: error= 1.25D-02 at cycle   6 NSaved=   6.
 NSaved= 6 IEnMin= 6 EnMin= -496.615717925726     IErMin= 6 ErrMin= 1.25D-02
 ErrMax= 1.25D-02  0.00D+00 EMaxC= 1.00D-01 BMatC= 1.15D-01 BMatP= 3.21D-01
 IDIUse=3 WtCom= 8.75D-01 WtEn= 1.25D-01
 Coeff-Com: -0.260D+00 0.428D+00 0.144D+00-0.102D+00 0.304D+00 0.486D+00
 Coeff-En:   0.000D+00 0.000D+00 0.000D+00 0.000D+00 0.280D+00 0.720D+00
 Coeff:     -0.228D+00 0.375D+00 0.126D+00-0.893D-01 0.301D+00 0.515D+00
 Gap=     0.020 Goal=   None    Shift=    0.000
 Gap=     0.020 Goal=   None    Shift=    0.000
 RMSDP=1.34D-03 MaxDP=3.66D-02 DE=-1.73D-01 OVMax= 2.24D-01

 Cycle   7  Pass 1  IDiag  1:
 RMSU=  5.56D-04    CP:  9.65D-01  7.16D-01  5.64D-01  2.89D-01  8.35D-01
                    CP:  1.03D+00
 E= -496.657993549037     Delta-E=       -0.042275623311 Rises=F Damp=F
 DIIS: error= 2.08D-03 at cycle   7 NSaved=   7.
 NSaved= 7 IEnMin= 7 EnMin= -496.657993549037     IErMin= 7 ErrMin= 2.08D-03
 ErrMax= 2.08D-03  0.00D+00 EMaxC= 1.00D-01 BMatC= 9.74D-03 BMatP= 1.15D-01
 IDIUse=3 WtCom= 9.79D-01 WtEn= 2.08D-02
 Coeff-Com: -0.136D+00 0.186D+00 0.149D-01-0.551D-01 0.174D+00 0.302D+00
 Coeff-Com:  0.514D+00
 Coeff-En:   0.000D+00 0.000D+00 0.000D+00 0.000D+00 0.306D-01 0.000D+00
 Coeff-En:   0.969D+00
 Coeff:     -0.133D+00 0.182D+00 0.146D-01-0.539D-01 0.171D+00 0.295D+00
 Coeff:      0.524D+00
 Gap=     0.027 Goal=   None    Shift=    0.000
 Gap=     0.027 Goal=   None    Shift=    0.000
 RMSDP=4.52D-04 MaxDP=1.51D-02 DE=-4.23D-02 OVMax= 7.23D-02

 Cycle   8  Pass 1  IDiag  1:
 RMSU=  1.46D-04    CP:  9.63D-01  7.98D-01  5.22D-01  3.59D-01  9.17D-01
                    CP:  1.06D+00  8.25D-01
 E= -496.660965969363     Delta-E=       -0.002972420326 Rises=F Damp=F
 DIIS: error= 7.97D-04 at cycle   8 NSaved=   8.
 NSaved= 8 IEnMin= 8 EnMin= -496.660965969363     IErMin= 8 ErrMin= 7.97D-04
 ErrMax= 7.97D-04  0.00D+00 EMaxC= 1.00D-01 BMatC= 9.88D-04 BMatP= 9.74D-03
 IDIUse=3 WtCom= 9.92D-01 WtEn= 7.97D-03
 Coeff-Com: -0.125D-01 0.138D-01-0.271D-02-0.933D-02 0.181D-01 0.617D-01
 Coeff-Com:  0.188D+00 0.743D+00
 Coeff-En:   0.000D+00 0.000D+00 0.000D+00 0.000D+00 0.000D+00 0.000D+00
 Coeff-En:   0.134D+00 0.866D+00
 Coeff:     -0.124D-01 0.136D-01-0.269D-02-0.925D-02 0.179D-01 0.612D-01
 Coeff:      0.188D+00 0.744D+00
 Gap=     0.031 Goal=   None    Shift=    0.000
 Gap=     0.031 Goal=   None    Shift=    0.000
 RMSDP=1.31D-04 MaxDP=4.49D-03 DE=-2.97D-03 OVMax= 2.18D-02

 Cycle   9  Pass 1  IDiag  1:
 RMSU=  3.83D-05    CP:  9.62D-01  8.16D-01  5.13D-01  3.79D-01  9.47D-01
                    CP:  1.04D+00  8.57D-01  1.06D+00
 E= -496.660312692596     Delta-E=        0.000653276766 Rises=F Damp=F
 DIIS: error= 1.75D-03 at cycle   9 NSaved=   9.
 NSaved= 9 IEnMin= 8 EnMin= -496.660965969363     IErMin= 8 ErrMin= 7.97D-04
 ErrMax= 1.75D-03  0.00D+00 EMaxC= 1.00D-01 BMatC= 2.70D-03 BMatP= 9.88D-04
 IDIUse=3 WtCom= 9.92D-01 WtEn= 7.97D-03
 Rare condition: small coef for last iteration:  0.000D+00
 Coeff-Com:  0.500D-02-0.843D-02-0.649D-02 0.127D-02-0.191D-01 0.569D-01
 Coeff-Com:  0.139D+00 0.275D+00 0.557D+00
 Coeff-En:   0.000D+00 0.000D+00 0.000D+00 0.000D+00 0.000D+00 0.000D+00
 Coeff-En:   0.296D+00 0.000D+00 0.704D+00
 Coeff:      0.500D-02-0.843D-02-0.649D-02 0.127D-02-0.191D-01 0.569D-01
 Coeff:      0.139D+00 0.275D+00 0.557D+00
 Gap=     0.031 Goal=   None    Shift=    0.000
 Gap=     0.031 Goal=   None    Shift=    0.000
 RMSDP=3.08D-05 MaxDP=7.54D-04 DE= 6.53D-04 OVMax= 4.73D-03

 Cycle  10  Pass 1  IDiag  1:
 RMSU=  1.37D-05    CP:  9.62D-01  8.20D-01  5.10D-01  3.84D-01  9.52D-01
                    CP:  1.03D+00  8.56D-01  1.10D+00  8.53D-01
 E= -496.660090192423     Delta-E=        0.000222500173 Rises=F Damp=F
 DIIS: error= 1.88D-03 at cycle  10 NSaved=  10.
 NSaved=10 IEnMin= 8 EnMin= -496.660965969363     IErMin= 8 ErrMin= 7.97D-04
 ErrMax= 1.88D-03  0.00D+00 EMaxC= 1.00D-01 BMatC= 3.25D-03 BMatP= 9.88D-04
 IDIUse=3 WtCom= 9.92D-01 WtEn= 7.97D-03
 EnCoef did   100 forward-backward iterations
 Rare condition: small coef for last iteration:  0.000D+00
 Coeff-Com:  0.480D-02-0.841D-02-0.887D-02 0.290D-02-0.260D-01 0.765D-01
 Coeff-Com:  0.147D+00 0.237D-01 0.277D+00 0.511D+00
 Coeff-En:   0.000D+00 0.000D+00 0.000D+00 0.000D+00 0.000D+00 0.000D+00
 Coeff-En:   0.330D+00 0.000D+00 0.000D+00 0.670D+00
 Coeff:      0.480D-02-0.841D-02-0.887D-02 0.290D-02-0.260D-01 0.765D-01
 Coeff:      0.147D+00 0.237D-01 0.277D+00 0.511D+00
 Gap=     0.031 Goal=   None    Shift=    0.000
 Gap=     0.031 Goal=   None    Shift=    0.000
 RMSDP=9.24D-06 MaxDP=2.96D-04 DE= 2.23D-04 OVMax= 1.21D-03

 Cycle  11  Pass 1  IDiag  1:
 RMSU=  3.76D-06    CP:  9.62D-01  8.19D-01  5.11D-01  3.83D-01  9.51D-01
                    CP:  1.03D+00  8.57D-01  1.09D+00  9.43D-01  7.46D-01
 E= -496.660160179402     Delta-E=       -0.000069986979 Rises=F Damp=F
 DIIS: error= 1.84D-03 at cycle  11 NSaved=  11.
 NSaved=11 IEnMin= 8 EnMin= -496.660965969363     IErMin= 8 ErrMin= 7.97D-04
 ErrMax= 1.84D-03  0.00D+00 EMaxC= 1.00D-01 BMatC= 3.06D-03 BMatP= 9.88D-04
 IDIUse=3 WtCom= 9.92D-01 WtEn= 7.97D-03
 EnCoef did   100 forward-backward iterations
 Coeff-Com:  0.488D-02-0.853D-02-0.885D-02 0.290D-02-0.260D-01 0.761D-01
 Coeff-Com:  0.147D+00 0.281D-01 0.293D+00 0.532D+00-0.401D-01
 Coeff-En:   0.000D+00 0.000D+00 0.000D+00 0.000D+00 0.000D+00 0.000D+00
 Coeff-En:   0.135D+00 0.862D+00 0.000D+00 0.000D+00 0.337D-02
 Coeff:      0.484D-02-0.846D-02-0.878D-02 0.288D-02-0.258D-01 0.755D-01
 Coeff:      0.146D+00 0.347D-01 0.290D+00 0.528D+00-0.397D-01
 Gap=     0.031 Goal=   None    Shift=    0.000
 Gap=     0.031 Goal=   None    Shift=    0.000
 RMSDP=4.98D-06 MaxDP=1.83D-04 DE=-7.00D-05 OVMax= 8.71D-04

 Cycle  12  Pass 1  IDiag  1:
 RMSU=  4.33D-07    CP:  9.62D-01  8.18D-01  5.11D-01  3.82D-01  9.51D-01
                    CP:  1.03D+00  8.57D-01  1.08D+00  9.45D-01  7.40D-01
                    CP:  1.01D+00
 E= -496.660210458698     Delta-E=       -0.000050279297 Rises=F Damp=F
 DIIS: error= 1.79D-03 at cycle  12 NSaved=  12.
 NSaved=12 IEnMin= 8 EnMin= -496.660965969363     IErMin= 8 ErrMin= 7.97D-04
 ErrMax= 1.79D-03  0.00D+00 EMaxC= 1.00D-01 BMatC= 2.92D-03 BMatP= 9.88D-04
 IDIUse=3 WtCom= 9.92D-01 WtEn= 7.97D-03
 Large coefficients: NSaved= 12 BigCof=   20.22 CofMax=   10.00 Det=-4.11D-08
 Inversion failed.  Reducing to 11 matrices.
 Large coefficients: NSaved= 11 BigCof=   20.40 CofMax=   10.00 Det=-4.13D-08
 Inversion failed.  Reducing to 10 matrices.
 Large coefficients: NSaved= 10 BigCof=   20.45 CofMax=   10.00 Det=-4.13D-08
 Inversion failed.  Reducing to  9 matrices.
 Large coefficients: NSaved=  9 BigCof=   20.58 CofMax=   10.00 Det=-4.17D-08
 Inversion failed.  Reducing to  8 matrices.
 Large coefficients: NSaved=  8 BigCof=   24.88 CofMax=   10.00 Det=-5.87D-08
 Inversion failed.  Reducing to  7 matrices.
 Large coefficients: NSaved=  7 BigCof=   24.85 CofMax=   10.00 Det=-5.87D-08
 Inversion failed.  Reducing to  6 matrices.
 Large coefficients: NSaved=  6 BigCof=   30.42 CofMax=   10.00 Det=-1.20D-07
 Inversion failed.  Reducing to  5 matrices.
 Large coefficients: NSaved=  5 BigCof=   38.47 CofMax=   10.00 Det=-2.72D-07
 Inversion failed.  Reducing to  4 matrices.
 Large coefficients: NSaved=  4 BigCof=   37.48 CofMax=   10.00 Det=-3.29D-07
 Inversion failed.  Reducing to  3 matrices.
 Large coefficients: NSaved=  3 BigCof=   37.00 CofMax=   10.00 Det=-4.35D-07
 Inversion failed.  Reducing to  2 matrices.
 Large coefficients: NSaved=  2 BigCof=   41.67 CofMax=   10.00 Det=-1.74D-06
 Coeff-Com: -0.407D+02 0.417D+02
 Coeff-En:   0.000D+00 0.100D+01
 Coeff:     -0.403D+02 0.413D+02
 Gap=     0.032 Goal=   None    Shift=    0.000
 Gap=     0.032 Goal=   None    Shift=    0.000
 RMSDP=2.52D-04 MaxDP=9.78D-03 DE=-5.03D-05 OVMax= 4.39D-02

 Cycle  13  Pass 1  IDiag  1:
 RMSU=  1.93D-05    CP:  9.63D-01  7.68D-01  5.38D-01  3.41D-01  9.01D-01
                    CP:  1.05D+00  8.22D-01  9.53D-01  7.15D-01  1.41D+00
                    CP: -3.01D-01  3.00D+00
 E= -496.661178640620     Delta-E=       -0.000968181922 Rises=F Damp=F
 DIIS: error= 4.60D-04 at cycle  13 NSaved=   3.
 NSaved= 3 IEnMin= 3 EnMin= -496.661178640620     IErMin= 3 ErrMin= 4.60D-04
 ErrMax= 4.60D-04  0.00D+00 EMaxC= 1.00D-01 BMatC= 2.16D-04 BMatP= 2.92D-03
 IDIUse=3 WtCom= 9.95D-01 WtEn= 4.60D-03
 Large coefficients: NSaved=  3 BigCof=   23.06 CofMax=   10.00 Det=-1.07D-07
 Inversion failed.  Reducing to  2 matrices.
 Coeff-Com:  0.191D+00 0.809D+00
 Coeff-En:   0.143D+00 0.857D+00
 Coeff:      0.190D+00 0.810D+00
 Gap=     0.032 Goal=   None    Shift=    0.000
 Gap=     0.032 Goal=   None    Shift=    0.000
 RMSDP=5.34D-05 MaxDP=2.05D-03 DE=-9.68D-04 OVMax= 5.32D-03

 Cycle  14  Pass 1  IDiag  1:
 RMSU=  2.41D-05    CP:  9.63D-01  7.62D-01  5.39D-01  3.37D-01  8.99D-01
                    CP:  1.05D+00  8.34D-01  8.74D-01  1.28D+00  2.55D-01
                    CP:  3.00D+00  3.00D+00 -1.62D-01
 E= -496.661103896849     Delta-E=        0.000074743772 Rises=F Damp=F
 DIIS: error= 4.88D-04 at cycle  14 NSaved=   3.
 NSaved= 3 IEnMin= 2 EnMin= -496.661178640620     IErMin= 2 ErrMin= 4.60D-04
 ErrMax= 4.88D-04  0.00D+00 EMaxC= 1.00D-01 BMatC= 4.26D-04 BMatP= 2.16D-04
 IDIUse=3 WtCom= 9.95D-01 WtEn= 4.60D-03
 EnCoef did     5 forward-backward iterations
 Coeff-Com:  0.195D+00 0.478D+00 0.327D+00
 Coeff-En:   0.157D+00 0.614D+00 0.229D+00
 Coeff:      0.195D+00 0.478D+00 0.326D+00
 Gap=     0.032 Goal=   None    Shift=    0.000
 Gap=     0.032 Goal=   None    Shift=    0.000
 RMSDP=6.96D-05 MaxDP=2.07D-03 DE= 7.47D-05 OVMax= 1.13D-02

 Cycle  15  Pass 1  IDiag  1:
 RMSU=  1.56D-06    CP:  9.63D-01  7.76D-01  5.33D-01  3.47D-01  9.10D-01
                    CP:  1.05D+00  8.32D-01  9.57D-01  9.44D-01  9.40D-01
                    CP:  1.13D+00  3.00D+00  4.32D-01  3.19D-01
 E= -496.661241309421     Delta-E=       -0.000137412572 Rises=F Damp=F
 DIIS: error= 1.02D-05 at cycle  15 NSaved=   4.
 NSaved= 4 IEnMin= 4 EnMin= -496.661241309421     IErMin= 4 ErrMin= 1.02D-05
 ErrMax= 1.02D-05  0.00D+00 EMaxC= 1.00D-01 BMatC= 1.82D-07 BMatP= 2.16D-04
 IDIUse=1 WtCom= 1.00D+00 WtEn= 0.00D+00
 Coeff-Com:  0.950D-01 0.227D+00 0.157D+00 0.522D+00
 Coeff:      0.950D-01 0.227D+00 0.157D+00 0.522D+00
 Gap=     0.032 Goal=   None    Shift=    0.000
 Gap=     0.032 Goal=   None    Shift=    0.000
 RMSDP=1.50D-06 MaxDP=4.84D-05 DE=-1.37D-04 OVMax= 1.96D-04

 Cycle  16  Pass 1  IDiag  1:
 RMSU=  6.63D-07    CP:  9.63D-01  7.76D-01  5.33D-01  3.47D-01  9.10D-01
                    CP:  1.05D+00  8.33D-01  9.56D-01  9.50D-01  9.29D-01
                    CP:  1.19D+00  3.00D+00  4.36D-01  3.15D-01  7.00D-01
 E= -496.661241359646     Delta-E=       -0.000000050225 Rises=F Damp=F
 DIIS: error= 2.79D-06 at cycle  16 NSaved=   5.
 NSaved= 5 IEnMin= 5 EnMin= -496.661241359646     IErMin= 5 ErrMin= 2.79D-06
 ErrMax= 2.79D-06  0.00D+00 EMaxC= 1.00D-01 BMatC= 1.89D-08 BMatP= 1.82D-07
 IDIUse=1 WtCom= 1.00D+00 WtEn= 0.00D+00
 Coeff-Com:  0.104D-01 0.234D-01 0.171D-01 0.264D+00 0.685D+00
 Coeff:      0.104D-01 0.234D-01 0.171D-01 0.264D+00 0.685D+00
 Gap=     0.032 Goal=   None    Shift=    0.000
 Gap=     0.032 Goal=   None    Shift=    0.000
 RMSDP=5.71D-07 MaxDP=1.57D-05 DE=-5.02D-08 OVMax= 8.17D-05

 Cycle  17  Pass 1  IDiag  1:
 RMSU=  1.27D-07    CP:  9.63D-01  7.76D-01  5.33D-01  3.48D-01  9.11D-01
                    CP:  1.05D+00  8.33D-01  9.57D-01  9.49D-01  9.36D-01
                    CP:  1.20D+00  3.00D+00  4.35D-01  3.16D-01  7.92D-01
                    CP:  7.44D-01
 E= -496.661241358126     Delta-E=        0.000000001520 Rises=F Damp=F
 DIIS: error= 4.20D-06 at cycle  17 NSaved=   6.
 NSaved= 6 IEnMin= 5 EnMin= -496.661241359646     IErMin= 5 ErrMin= 2.79D-06
 ErrMax= 4.20D-06  0.00D+00 EMaxC= 1.00D-01 BMatC= 1.89D-08 BMatP= 1.89D-08
 IDIUse=1 WtCom= 1.00D+00 WtEn= 0.00D+00
 Coeff-Com:  0.162D-02 0.575D-02 0.485D-02 0.130D+00 0.364D+00 0.494D+00
 Coeff:      0.162D-02 0.575D-02 0.485D-02 0.130D+00 0.364D+00 0.494D+00
 Gap=     0.032 Goal=   None    Shift=    0.000
 Gap=     0.032 Goal=   None    Shift=    0.000
 RMSDP=2.25D-07 MaxDP=8.14D-06 DE= 1.52D-09 OVMax= 3.66D-05

 Cycle  18  Pass 1  IDiag  1:
 RMSU=  5.66D-08    CP:  9.63D-01  7.76D-01  5.33D-01  3.48D-01  9.10D-01
                    CP:  1.05D+00  8.33D-01  9.57D-01  9.50D-01  9.36D-01
                    CP:  1.20D+00  3.00D+00  4.36D-01  3.17D-01  7.94D-01
                    CP:  7.86D-01  6.44D-01
 E= -496.661241362468     Delta-E=       -0.000000004342 Rises=F Damp=F
 DIIS: error= 2.53D-06 at cycle  18 NSaved=   7.
 NSaved= 7 IEnMin= 7 EnMin= -496.661241362468     IErMin= 7 ErrMin= 2.53D-06
 ErrMax= 2.53D-06  0.00D+00 EMaxC= 1.00D-01 BMatC= 5.99D-09 BMatP= 1.89D-08
 IDIUse=1 WtCom= 1.00D+00 WtEn= 0.00D+00
 Coeff-Com: -0.117D-02 0.462D-03 0.831D-03 0.152D-01 0.263D-01 0.181D+00
 Coeff-Com:  0.778D+00
 Coeff:     -0.117D-02 0.462D-03 0.831D-03 0.152D-01 0.263D-01 0.181D+00
 Coeff:      0.778D+00
 Gap=     0.032 Goal=   None    Shift=    0.000
 Gap=     0.032 Goal=   None    Shift=    0.000
 RMSDP=2.67D-07 MaxDP=9.07D-06 DE=-4.34D-09 OVMax= 4.62D-05

 Cycle  19  Pass 1  IDiag  1:
 RMSU=  1.42D-08    CP:  9.63D-01  7.76D-01  5.33D-01  3.47D-01  9.10D-01
                    CP:  1.05D+00  8.33D-01  9.57D-01  9.50D-01  9.36D-01
                    CP:  1.20D+00  3.00D+00  4.37D-01  3.17D-01  8.02D-01
                    CP:  7.84D-01  7.84D-01  9.62D-01
 E= -496.661241364555     Delta-E=       -0.000000002087 Rises=F Damp=F
 DIIS: error= 3.43D-07 at cycle  19 NSaved=   8.
 NSaved= 8 IEnMin= 8 EnMin= -496.661241364555     IErMin= 8 ErrMin= 3.43D-07
 ErrMax= 3.43D-07  0.00D+00 EMaxC= 1.00D-01 BMatC= 1.09D-10 BMatP= 5.99D-09
 IDIUse=1 WtCom= 1.00D+00 WtEn= 0.00D+00
 Coeff-Com: -0.744D-03-0.112D-03 0.115D-03-0.397D-02-0.226D-01 0.376D-01
 Coeff-Com:  0.390D+00 0.600D+00
 Coeff:     -0.744D-03-0.112D-03 0.115D-03-0.397D-02-0.226D-01 0.376D-01
 Coeff:      0.390D+00 0.600D+00
 Gap=     0.032 Goal=   None    Shift=    0.000
 Gap=     0.032 Goal=   None    Shift=    0.000
 RMSDP=4.75D-08 MaxDP=1.86D-06 DE=-2.09D-09 OVMax= 8.13D-06

 Cycle  20  Pass 1  IDiag  1:
 RMSU=  5.24D-09    CP:  9.63D-01  7.76D-01  5.33D-01  3.47D-01  9.10D-01
                    CP:  1.05D+00  8.33D-01  9.57D-01  9.50D-01  9.37D-01
                    CP:  1.20D+00  3.00D+00  4.37D-01  3.17D-01  8.02D-01
                    CP:  7.89D-01  7.83D-01  1.04D+00  8.09D-01
 E= -496.661241364589     Delta-E=       -0.000000000034 Rises=F Damp=F
 DIIS: error= 7.67D-08 at cycle  20 NSaved=   9.
 NSaved= 9 IEnMin= 9 EnMin= -496.661241364589     IErMin= 9 ErrMin= 7.67D-08
 ErrMax= 7.67D-08  0.00D+00 EMaxC= 1.00D-01 BMatC= 6.87D-12 BMatP= 1.09D-10
 IDIUse=1 WtCom= 1.00D+00 WtEn= 0.00D+00
 Coeff-Com: -0.201D-03-0.168D-03-0.104D-03-0.403D-02-0.147D-01-0.892D-02
 Coeff-Com:  0.863D-01 0.311D+00 0.631D+00
 Coeff:     -0.201D-03-0.168D-03-0.104D-03-0.403D-02-0.147D-01-0.892D-02
 Coeff:      0.863D-01 0.311D+00 0.631D+00
 Gap=     0.032 Goal=   None    Shift=    0.000
 Gap=     0.032 Goal=   None    Shift=    0.000
 RMSDP=4.50D-09 MaxDP=1.14D-07 DE=-3.44D-11 OVMax= 4.05D-07

 Error on total polarization charges =  0.00777
 SCF Done:  E(UB3LYP) =  -496.661241365     A.U. after   20 cycles
            NFock= 20  Conv=0.45D-08     -V/T= 2.0089
 <Sx>= 0.0000 <Sy>= 0.0000 <Sz>= 0.0000 <S**2>=-0.0000 S=-0.0000
 <L.S>=  0.00000000000    
 KE= 4.922881567621D+02 PE=-2.314226448091D+03 EE= 7.459454089837D+02
 Annihilation of the first spin contaminant:
 S**2 before annihilation    -0.0000,   after     0.0000
 Leave Link  502 at Thu May 16 18:01:43 2019, MaxMem=   104857600 cpu:             555.0 elap:              17.8
 (Enter /opt/software/gaussian/g16.b01/l601.exe)
 Copying SCF densities to generalized density rwf, IOpCl= 1 IROHF=0.

 **********************************************************************

            Population analysis using the SCF Density.

 **********************************************************************

 Orbital symmetries:
 Alpha Orbitals:
       Occupied  (A) (A) (A) (A) (A) (A) (A) (A) (A) (A) (A) (A)
                 (A) (A) (A) (A) (A) (A) (A) (A) (A) (A) (A) (A)
                 (A) (A) (A) (A) (A) (A) (A) (A) (A) (A) (A) (A)
                 (A) (A) (A) (A) (A)
       Virtual   (A) (A) (A) (A) (A) (A) (A) (A) (A) (A) (A) (A)
                 (A) (A) (A) (A) (A) (A) (A) (A) (A) (A) (A) (A)
                 (A) (A) (A) (A) (A) (A) (A) (A) (A) (A) (A) (A)
                 (A) (A) (A) (A) (A) (A) (A) (A) (A) (A) (A) (A)
                 (A) (A) (A) (A) (A) (A) (A) (A) (A) (A) (A) (A)
                 (A) (A) (A) (A) (A) (A) (A) (A) (A) (A) (A) (A)
                 (A) (A) (A) (A) (A) (A) (A) (A) (A) (A) (A) (A)
                 (A) (A) (A) (A) (A) (A) (A) (A) (A) (A) (A) (A)
                 (A) (A) (A) (A) (A) (A) (A) (A) (A) (A) (A) (A)
                 (A) (A) (A) (A) (A) (A) (A) (A) (A) (A) (A) (A)
                 (A) (A) (A) (A) (A) (A) (A) (A) (A) (A) (A) (A)
                 (A) (A) (A) (A) (A) (A) (A) (A) (A) (A) (A) (A)
                 (A) (A) (A) (A) (A) (A) (A) (A) (A) (A) (A) (A)
                 (A) (A) (A) (A) (A) (A) (A) (A) (A) (A) (A) (A)
                 (A) (A) (A) (A) (A) (A) (A) (A) (A) (A) (A) (A)
                 (A) (A) (A) (A)
 Beta  Orbitals:
       Occupied  (A) (A) (A) (A) (A) (A) (A) (A) (A) (A) (A) (A)
                 (A) (A) (A) (A) (A) (A) (A) (A) (A) (A) (A) (A)
                 (A) (A) (A) (A) (A) (A) (A) (A) (A) (A) (A) (A)
                 (A) (A) (A) (A) (A)
       Virtual   (A) (A) (A) (A) (A) (A) (A) (A) (A) (A) (A) (A)
                 (A) (A) (A) (A) (A) (A) (A) (A) (A) (A) (A) (A)
                 (A) (A) (A) (A) (A) (A) (A) (A) (A) (A) (A) (A)
                 (A) (A) (A) (A) (A) (A) (A) (A) (A) (A) (A) (A)
                 (A) (A) (A) (A) (A) (A) (A) (A) (A) (A) (A) (A)
                 (A) (A) (A) (A) (A) (A) (A) (A) (A) (A) (A) (A)
                 (A) (A) (A) (A) (A) (A) (A) (A) (A) (A) (A) (A)
                 (A) (A) (A) (A) (A) (A) (A) (A) (A) (A) (A) (A)
                 (A) (A) (A) (A) (A) (A) (A) (A) (A) (A) (A) (A)
                 (A) (A) (A) (A) (A) (A) (A) (A) (A) (A) (A) (A)
                 (A) (A) (A) (A) (A) (A) (A) (A) (A) (A) (A) (A)
                 (A) (A) (A) (A) (A) (A) (A) (A) (A) (A) (A) (A)
                 (A) (A) (A) (A) (A) (A) (A) (A) (A) (A) (A) (A)
                 (A) (A) (A) (A) (A) (A) (A) (A) (A) (A) (A) (A)
                 (A) (A) (A) (A) (A) (A) (A) (A) (A) (A) (A) (A)
                 (A) (A) (A) (A)
 The electronic state is 1-A.
 Alpha  occ. eigenvalues --  -19.21861 -14.33877 -14.28891 -10.28177 -10.20066
 Alpha  occ. eigenvalues --  -10.19547 -10.19512 -10.19440 -10.19258 -10.19198
 Alpha  occ. eigenvalues --  -10.19121  -1.14042  -0.92166  -0.85860  -0.78504
 Alpha  occ. eigenvalues --   -0.74917  -0.73835  -0.69143  -0.66676  -0.61993
 Alpha  occ. eigenvalues --   -0.60601  -0.54757  -0.49580  -0.49197  -0.47893
 Alpha  occ. eigenvalues --   -0.47115  -0.44698  -0.43685  -0.42928  -0.42538
 Alpha  occ. eigenvalues --   -0.40893  -0.39585  -0.37184  -0.36643  -0.34579
 Alpha  occ. eigenvalues --   -0.33047  -0.32662  -0.26384  -0.25681  -0.22567
 Alpha  occ. eigenvalues --   -0.11956
 Alpha virt. eigenvalues --   -0.08745  -0.00348   0.02576   0.06449   0.10228
 Alpha virt. eigenvalues --    0.10580   0.12139   0.14440   0.15054   0.16184
 Alpha virt. eigenvalues --    0.16369   0.17154   0.17555   0.18751   0.19957
 Alpha virt. eigenvalues --    0.21934   0.22281   0.26334   0.27392   0.28789
 Alpha virt. eigenvalues --    0.30367   0.33364   0.35574   0.37474   0.47093
 Alpha virt. eigenvalues --    0.50641   0.51163   0.53291   0.53781   0.55393
 Alpha virt. eigenvalues --    0.56018   0.56695   0.58248   0.58795   0.59725
 Alpha virt. eigenvalues --    0.60918   0.61351   0.63141   0.64219   0.65486
 Alpha virt. eigenvalues --    0.66158   0.67577   0.69580   0.71422   0.71760
 Alpha virt. eigenvalues --    0.72896   0.74439   0.76653   0.77727   0.80457
 Alpha virt. eigenvalues --    0.81628   0.82066   0.82371   0.83963   0.84929
 Alpha virt. eigenvalues --    0.86163   0.88214   0.88486   0.89588   0.91766
 Alpha virt. eigenvalues --    0.92836   0.93381   0.94323   0.95525   0.95725
 Alpha virt. eigenvalues --    0.99775   1.01690   1.02699   1.05133   1.07759
 Alpha virt. eigenvalues --    1.09625   1.13685   1.15866   1.18845   1.23405
 Alpha virt. eigenvalues --    1.24637   1.26312   1.28264   1.31225   1.34321
 Alpha virt. eigenvalues --    1.38687   1.40084   1.40964   1.41639   1.41806
 Alpha virt. eigenvalues --    1.42616   1.44169   1.45308   1.48557   1.55874
 Alpha virt. eigenvalues --    1.60371   1.62700   1.69648   1.72563   1.76955
 Alpha virt. eigenvalues --    1.79667   1.81108   1.83725   1.84577   1.85568
 Alpha virt. eigenvalues --    1.87103   1.89792   1.91332   1.92756   1.96566
 Alpha virt. eigenvalues --    1.97422   1.98302   2.00085   2.02600   2.05849
 Alpha virt. eigenvalues --    2.06405   2.07124   2.08436   2.10907   2.13340
 Alpha virt. eigenvalues --    2.14530   2.16464   2.21657   2.24603   2.25985
 Alpha virt. eigenvalues --    2.28607   2.29182   2.30075   2.33112   2.35077
 Alpha virt. eigenvalues --    2.36938   2.37963   2.38297   2.40756   2.41342
 Alpha virt. eigenvalues --    2.44701   2.46164   2.47258   2.48330   2.49337
 Alpha virt. eigenvalues --    2.51970   2.55398   2.56048   2.58322   2.59813
 Alpha virt. eigenvalues --    2.61788   2.64592   2.65271   2.66514   2.68650
 Alpha virt. eigenvalues --    2.69661   2.74602   2.75460   2.76060   2.76143
 Alpha virt. eigenvalues --    2.81736   2.84051   2.87059   2.92452   2.97826
 Alpha virt. eigenvalues --    3.00908   3.04173   3.05799   3.14623   3.18879
 Alpha virt. eigenvalues --    3.23293   3.24279   3.25758   3.32359   3.37208
 Alpha virt. eigenvalues --    3.39171   3.41092   3.42764   3.45343   3.49802
 Alpha virt. eigenvalues --    3.51644   3.52307   3.71550   3.89771   4.01982
 Alpha virt. eigenvalues --    4.08156   4.13296   4.16462   4.20288   4.37090
 Alpha virt. eigenvalues --    4.43017   4.43924   4.59436   4.84172
  Beta  occ. eigenvalues --  -19.21861 -14.33877 -14.28891 -10.28177 -10.20066
  Beta  occ. eigenvalues --  -10.19547 -10.19512 -10.19440 -10.19258 -10.19198
  Beta  occ. eigenvalues --  -10.19121  -1.14042  -0.92166  -0.85860  -0.78504
  Beta  occ. eigenvalues --   -0.74917  -0.73835  -0.69143  -0.66676  -0.61993
  Beta  occ. eigenvalues --   -0.60601  -0.54757  -0.49580  -0.49197  -0.47893
  Beta  occ. eigenvalues --   -0.47115  -0.44698  -0.43685  -0.42928  -0.42538
  Beta  occ. eigenvalues --   -0.40893  -0.39585  -0.37184  -0.36643  -0.34579
  Beta  occ. eigenvalues --   -0.33047  -0.32662  -0.26384  -0.25681  -0.22567
  Beta  occ. eigenvalues --   -0.11956
  Beta virt. eigenvalues --   -0.08745  -0.00348   0.02576   0.06449   0.10228
  Beta virt. eigenvalues --    0.10580   0.12139   0.14440   0.15054   0.16184
  Beta virt. eigenvalues --    0.16369   0.17154   0.17555   0.18751   0.19957
  Beta virt. eigenvalues --    0.21934   0.22281   0.26334   0.27392   0.28789
  Beta virt. eigenvalues --    0.30367   0.33364   0.35574   0.37474   0.47093
  Beta virt. eigenvalues --    0.50641   0.51163   0.53291   0.53781   0.55393
  Beta virt. eigenvalues --    0.56018   0.56695   0.58248   0.58795   0.59725
  Beta virt. eigenvalues --    0.60918   0.61351   0.63141   0.64219   0.65486
  Beta virt. eigenvalues --    0.66158   0.67577   0.69580   0.71422   0.71760
  Beta virt. eigenvalues --    0.72896   0.74439   0.76653   0.77727   0.80457
  Beta virt. eigenvalues --    0.81628   0.82066   0.82371   0.83963   0.84929
  Beta virt. eigenvalues --    0.86163   0.88214   0.88486   0.89588   0.91766
  Beta virt. eigenvalues --    0.92836   0.93381   0.94323   0.95525   0.95725
  Beta virt. eigenvalues --    0.99775   1.01690   1.02699   1.05133   1.07759
  Beta virt. eigenvalues --    1.09625   1.13685   1.15866   1.18845   1.23405
  Beta virt. eigenvalues --    1.24637   1.26312   1.28264   1.31225   1.34321
  Beta virt. eigenvalues --    1.38687   1.40084   1.40964   1.41639   1.41806
  Beta virt. eigenvalues --    1.42616   1.44169   1.45308   1.48557   1.55874
  Beta virt. eigenvalues --    1.60371   1.62700   1.69648   1.72563   1.76955
  Beta virt. eigenvalues --    1.79667   1.81108   1.83725   1.84577   1.85568
  Beta virt. eigenvalues --    1.87103   1.89792   1.91332   1.92756   1.96566
  Beta virt. eigenvalues --    1.97422   1.98302   2.00085   2.02600   2.05849
  Beta virt. eigenvalues --    2.06405   2.07124   2.08436   2.10907   2.13340
  Beta virt. eigenvalues --    2.14530   2.16464   2.21657   2.24603   2.25985
  Beta virt. eigenvalues --    2.28607   2.29182   2.30075   2.33112   2.35077
  Beta virt. eigenvalues --    2.36938   2.37963   2.38297   2.40756   2.41342
  Beta virt. eigenvalues --    2.44701   2.46164   2.47258   2.48330   2.49337
  Beta virt. eigenvalues --    2.51970   2.55398   2.56048   2.58322   2.59813
  Beta virt. eigenvalues --    2.61788   2.64592   2.65271   2.66514   2.68650
  Beta virt. eigenvalues --    2.69661   2.74602   2.75460   2.76060   2.76143
  Beta virt. eigenvalues --    2.81736   2.84051   2.87059   2.92452   2.97826
  Beta virt. eigenvalues --    3.00908   3.04173   3.05799   3.14623   3.18879
  Beta virt. eigenvalues --    3.23293   3.24279   3.25758   3.32359   3.37208
  Beta virt. eigenvalues --    3.39171   3.41092   3.42764   3.45343   3.49802
  Beta virt. eigenvalues --    3.51644   3.52307   3.71550   3.89771   4.01982
  Beta virt. eigenvalues --    4.08156   4.13296   4.16462   4.20288   4.37090
  Beta virt. eigenvalues --    4.43017   4.43924   4.59436   4.84172
          Condensed to atoms (all electrons):
               1          2          3          4          5          6
     1  C    4.818221   0.342840   0.372180  -0.027136  -0.030067  -0.025059
     2  O    0.342840   7.924232  -0.065818   0.001822   0.001416   0.003051
     3  C    0.372180  -0.065818   5.021746   0.372310   0.377492   0.364841
     4  H   -0.027136   0.001822   0.372310   0.555251  -0.034080  -0.022908
     5  H   -0.030067   0.001416   0.377492  -0.034080   0.557050  -0.021940
     6  H   -0.025059   0.003051   0.364841  -0.022908  -0.021940   0.561865
     7  C    0.419532  -0.058696  -0.072631  -0.003448  -0.003306   0.004754
     8  C   -0.051402  -0.000963   0.006488  -0.000061  -0.000062  -0.000144
     9  C   -0.048039   0.003907  -0.008461   0.001471   0.000955   0.000210
    10  C    0.005536   0.000862  -0.000128  -0.000010   0.000005   0.000002
    11  H   -0.015952   0.003520   0.000235   0.000018  -0.000028  -0.000014
    12  C    0.005090  -0.000079   0.000004   0.000074   0.000172  -0.000003
    13  H   -0.012575   0.000070   0.007000   0.000868   0.000274  -0.000073
    14  C    0.000437  -0.000015  -0.000006   0.000001  -0.000007   0.000000
    15  H   -0.000171   0.000004   0.000002   0.000000   0.000000  -0.000000
    16  H   -0.000149   0.000000   0.000006  -0.000004  -0.000001  -0.000000
    17  H    0.000008  -0.000000  -0.000000   0.000000  -0.000000  -0.000000
    18  H   -0.051838   0.277578   0.004672   0.000260  -0.000378  -0.000276
    19  N    0.004854  -0.001070   0.000052  -0.000128   0.000002   0.000002
    20  H   -0.000102   0.000013  -0.000002   0.000005  -0.000000  -0.000000
    21  H   -0.000151   0.000038  -0.000009   0.000066  -0.000001  -0.000001
    22  N   -0.004739  -0.000070  -0.000039   0.000037  -0.000001  -0.000000
    23  H   -0.000136   0.000039  -0.000001   0.000000  -0.000000  -0.000000
               7          8          9         10         11         12
     1  C    0.419532  -0.051402  -0.048039   0.005536  -0.015952   0.005090
     2  O   -0.058696  -0.000963   0.003907   0.000862   0.003520  -0.000079
     3  C   -0.072631   0.006488  -0.008461  -0.000128   0.000235   0.000004
     4  H   -0.003448  -0.000061   0.001471  -0.000010   0.000018   0.000074
     5  H   -0.003306  -0.000062   0.000955   0.000005  -0.000028   0.000172
     6  H    0.004754  -0.000144   0.000210   0.000002  -0.000014  -0.000003
     7  C    4.847199   0.456857   0.496687  -0.019998  -0.053180  -0.019899
     8  C    0.456857   4.978532  -0.056354   0.520961   0.359683  -0.041216
     9  C    0.496687  -0.056354   4.958663  -0.041001   0.006265   0.531904
    10  C   -0.019998   0.520961  -0.041001   4.828913  -0.030212  -0.030735
    11  H   -0.053180   0.359683   0.006265  -0.030212   0.634494   0.000208
    12  C   -0.019899  -0.041216   0.531904  -0.030735   0.000208   4.839639
    13  H   -0.040088   0.005634   0.370042   0.000298  -0.000150  -0.040544
    14  C   -0.032917  -0.044879  -0.043850   0.539798   0.004852   0.528328
    15  H    0.003562  -0.036491   0.000834   0.371074  -0.005615   0.004399
    16  H    0.003504   0.000799  -0.035785   0.004438   0.000016   0.371232
    17  H    0.000753   0.004879   0.004733  -0.040039  -0.000175  -0.041389
    18  H   -0.006119  -0.001739   0.000350  -0.000415   0.011003  -0.000011
    19  N   -0.000068  -0.000375  -0.000046   0.000024  -0.000300   0.000000
    20  H   -0.000008   0.000051   0.000002  -0.000002   0.000015   0.000000
    21  H    0.000459   0.000114   0.000077   0.000010   0.000008  -0.000004
    22  N   -0.000760   0.010613   0.000151  -0.001325   0.003897   0.000004
    23  H    0.000046   0.000184   0.000003   0.000036   0.000123  -0.000000
              13         14         15         16         17         18
     1  C   -0.012575   0.000437  -0.000171  -0.000149   0.000008  -0.051838
     2  O    0.000070  -0.000015   0.000004   0.000000  -0.000000   0.277578
     3  C    0.007000  -0.000006   0.000002   0.000006  -0.000000   0.004672
     4  H    0.000868   0.000001   0.000000  -0.000004   0.000000   0.000260
     5  H    0.000274  -0.000007   0.000000  -0.000001  -0.000000  -0.000378
     6  H   -0.000073   0.000000  -0.000000  -0.000000  -0.000000  -0.000276
     7  C   -0.040088  -0.032917   0.003562   0.003504   0.000753  -0.006119
     8  C    0.005634  -0.044879  -0.036491   0.000799   0.004879  -0.001739
     9  C    0.370042  -0.043850   0.000834  -0.035785   0.004733   0.000350
    10  C    0.000298   0.539798   0.371074   0.004438  -0.040039  -0.000415
    11  H   -0.000150   0.004852  -0.005615   0.000016  -0.000175   0.011003
    12  C   -0.040544   0.528328   0.004399   0.371232  -0.041389  -0.000011
    13  H    0.606790   0.004731   0.000016  -0.005785  -0.000178   0.000002
    14  C    0.004731   4.855486  -0.040815  -0.040969   0.372462  -0.000002
    15  H    0.000016  -0.040815   0.605503  -0.000176  -0.005730   0.000007
    16  H   -0.005785  -0.040969  -0.000176   0.604792  -0.005838   0.000000
    17  H   -0.000178   0.372462  -0.005730  -0.005838   0.608455  -0.000000
    18  H    0.000002  -0.000002   0.000007   0.000000  -0.000000   0.407772
    19  N   -0.000000  -0.000003  -0.000000  -0.000000   0.000000  -0.002915
    20  H    0.000000  -0.000000   0.000000  -0.000000   0.000000   0.000213
    21  H    0.000001  -0.000005  -0.000000  -0.000000  -0.000000  -0.000135
    22  N    0.000000  -0.000037   0.000024  -0.000000   0.000000   0.016864
    23  H    0.000000  -0.000002  -0.000001  -0.000000   0.000000   0.000308
              19         20         21         22         23
     1  C    0.004854  -0.000102  -0.000151  -0.004739  -0.000136
     2  O   -0.001070   0.000013   0.000038  -0.000070   0.000039
     3  C    0.000052  -0.000002  -0.000009  -0.000039  -0.000001
     4  H   -0.000128   0.000005   0.000066   0.000037   0.000000
     5  H    0.000002  -0.000000  -0.000001  -0.000001  -0.000000
     6  H    0.000002  -0.000000  -0.000001  -0.000000  -0.000000
     7  C   -0.000068  -0.000008   0.000459  -0.000760   0.000046
     8  C   -0.000375   0.000051   0.000114   0.010613   0.000184
     9  C   -0.000046   0.000002   0.000077   0.000151   0.000003
    10  C    0.000024  -0.000002   0.000010  -0.001325   0.000036
    11  H   -0.000300   0.000015   0.000008   0.003897   0.000123
    12  C    0.000000   0.000000  -0.000004   0.000004  -0.000000
    13  H   -0.000000   0.000000   0.000001   0.000000   0.000000
    14  C   -0.000003  -0.000000  -0.000005  -0.000037  -0.000002
    15  H   -0.000000   0.000000  -0.000000   0.000024  -0.000001
    16  H   -0.000000  -0.000000  -0.000000  -0.000000  -0.000000
    17  H    0.000000   0.000000  -0.000000   0.000000   0.000000
    18  H   -0.002915   0.000213  -0.000135   0.016864   0.000308
    19  N    6.642966   0.332737   0.351843   0.175773  -0.044946
    20  H    0.332737   0.496165  -0.039323  -0.041630  -0.008470
    21  H    0.351843  -0.039323   0.455690  -0.047938   0.007296
    22  N    0.175773  -0.041630  -0.047938   7.179041   0.282345
    23  H   -0.044946  -0.008470   0.007296   0.282345   0.540235
          Atomic-Atomic Spin Densities.
               1          2          3          4          5          6
     1  C   -0.000000   0.000000   0.000000   0.000000   0.000000   0.000000
     2  O    0.000000  -0.000000   0.000000  -0.000000  -0.000000   0.000000
     3  C    0.000000   0.000000   0.000000   0.000000  -0.000000  -0.000000
     4  H    0.000000  -0.000000   0.000000  -0.000000   0.000000   0.000000
     5  H    0.000000  -0.000000  -0.000000   0.000000  -0.000000  -0.000000
     6  H    0.000000   0.000000  -0.000000   0.000000  -0.000000   0.000000
     7  C   -0.000000   0.000000   0.000000   0.000000   0.000000  -0.000000
     8  C    0.000000  -0.000000  -0.000000   0.000000  -0.000000  -0.000000
     9  C    0.000000  -0.000000   0.000000  -0.000000  -0.000000   0.000000
    10  C    0.000000  -0.000000  -0.000000   0.000000  -0.000000   0.000000
    11  H   -0.000000  -0.000000  -0.000000   0.000000   0.000000  -0.000000
    12  C    0.000000  -0.000000   0.000000  -0.000000   0.000000   0.000000
    13  H   -0.000000   0.000000  -0.000000  -0.000000   0.000000  -0.000000
    14  C   -0.000000   0.000000   0.000000   0.000000   0.000000  -0.000000
    15  H    0.000000   0.000000   0.000000  -0.000000   0.000000   0.000000
    16  H    0.000000  -0.000000  -0.000000   0.000000  -0.000000  -0.000000
    17  H   -0.000000   0.000000   0.000000  -0.000000   0.000000  -0.000000
    18  H    0.000000   0.000000   0.000000  -0.000000   0.000000   0.000000
    19  N   -0.000000   0.000000  -0.000000   0.000000  -0.000000   0.000000
    20  H    0.000000  -0.000000   0.000000  -0.000000   0.000000  -0.000000
    21  H    0.000000  -0.000000   0.000000  -0.000000   0.000000  -0.000000
    22  N    0.000000  -0.000000   0.000000  -0.000000   0.000000  -0.000000
    23  H    0.000000  -0.000000   0.000000  -0.000000   0.000000  -0.000000
               7          8          9         10         11         12
     1  C   -0.000000   0.000000   0.000000   0.000000  -0.000000   0.000000
     2  O    0.000000  -0.000000  -0.000000  -0.000000  -0.000000  -0.000000
     3  C    0.000000  -0.000000   0.000000  -0.000000  -0.000000   0.000000
     4  H    0.000000   0.000000  -0.000000   0.000000   0.000000  -0.000000
     5  H    0.000000  -0.000000  -0.000000  -0.000000   0.000000   0.000000
     6  H   -0.000000  -0.000000   0.000000   0.000000  -0.000000   0.000000
     7  C   -0.000000   0.000000   0.000000   0.000000   0.000000   0.000000
     8  C    0.000000  -0.000000  -0.000000  -0.000000  -0.000000  -0.000000
     9  C    0.000000  -0.000000  -0.000000  -0.000000   0.000000  -0.000000
    10  C    0.000000  -0.000000  -0.000000   0.000000  -0.000000   0.000000
    11  H    0.000000  -0.000000   0.000000  -0.000000   0.000000  -0.000000
    12  C    0.000000  -0.000000  -0.000000   0.000000  -0.000000   0.000000
    13  H   -0.000000   0.000000  -0.000000  -0.000000   0.000000  -0.000000
    14  C   -0.000000   0.000000   0.000000   0.000000   0.000000   0.000000
    15  H   -0.000000   0.000000  -0.000000  -0.000000  -0.000000   0.000000
    16  H    0.000000  -0.000000   0.000000   0.000000  -0.000000  -0.000000
    17  H   -0.000000   0.000000   0.000000  -0.000000   0.000000   0.000000
    18  H   -0.000000   0.000000  -0.000000   0.000000   0.000000  -0.000000
    19  N   -0.000000   0.000000   0.000000  -0.000000  -0.000000   0.000000
    20  H    0.000000  -0.000000  -0.000000  -0.000000   0.000000  -0.000000
    21  H    0.000000  -0.000000  -0.000000  -0.000000   0.000000  -0.000000
    22  N    0.000000  -0.000000  -0.000000  -0.000000   0.000000  -0.000000
    23  H    0.000000  -0.000000  -0.000000  -0.000000   0.000000  -0.000000
              13         14         15         16         17         18
     1  C   -0.000000  -0.000000   0.000000   0.000000  -0.000000   0.000000
     2  O    0.000000   0.000000   0.000000  -0.000000   0.000000   0.000000
     3  C   -0.000000   0.000000   0.000000  -0.000000   0.000000   0.000000
     4  H   -0.000000   0.000000  -0.000000   0.000000  -0.000000  -0.000000
     5  H    0.000000   0.000000   0.000000  -0.000000   0.000000   0.000000
     6  H   -0.000000  -0.000000   0.000000  -0.000000  -0.000000   0.000000
     7  C   -0.000000  -0.000000  -0.000000   0.000000  -0.000000  -0.000000
     8  C    0.000000   0.000000   0.000000  -0.000000   0.000000   0.000000
     9  C   -0.000000   0.000000  -0.000000   0.000000   0.000000  -0.000000
    10  C   -0.000000   0.000000  -0.000000   0.000000  -0.000000   0.000000
    11  H    0.000000   0.000000  -0.000000  -0.000000   0.000000   0.000000
    12  C   -0.000000   0.000000   0.000000  -0.000000   0.000000  -0.000000
    13  H    0.000000   0.000000   0.000000  -0.000000  -0.000000   0.000000
    14  C    0.000000  -0.000000   0.000000   0.000000  -0.000000   0.000000
    15  H    0.000000   0.000000  -0.000000   0.000000  -0.000000  -0.000000
    16  H   -0.000000   0.000000   0.000000  -0.000000  -0.000000   0.000000
    17  H   -0.000000  -0.000000  -0.000000  -0.000000   0.000000  -0.000000
    18  H    0.000000   0.000000  -0.000000   0.000000  -0.000000  -0.000000
    19  N   -0.000000   0.000000  -0.000000  -0.000000   0.000000  -0.000000
    20  H    0.000000   0.000000  -0.000000  -0.000000   0.000000   0.000000
    21  H    0.000000   0.000000  -0.000000  -0.000000   0.000000   0.000000
    22  N    0.000000   0.000000  -0.000000  -0.000000   0.000000   0.000000
    23  H    0.000000   0.000000  -0.000000   0.000000   0.000000  -0.000000
              19         20         21         22         23
     1  C   -0.000000   0.000000   0.000000   0.000000   0.000000
     2  O    0.000000  -0.000000  -0.000000  -0.000000  -0.000000
     3  C   -0.000000   0.000000   0.000000   0.000000   0.000000
     4  H    0.000000  -0.000000  -0.000000  -0.000000  -0.000000
     5  H   -0.000000   0.000000   0.000000   0.000000   0.000000
     6  H    0.000000  -0.000000  -0.000000  -0.000000  -0.000000
     7  C   -0.000000   0.000000   0.000000   0.000000   0.000000
     8  C    0.000000  -0.000000  -0.000000  -0.000000  -0.000000
     9  C    0.000000  -0.000000  -0.000000  -0.000000  -0.000000
    10  C   -0.000000  -0.000000  -0.000000  -0.000000  -0.000000
    11  H   -0.000000   0.000000   0.000000   0.000000   0.000000
    12  C    0.000000  -0.000000  -0.000000  -0.000000  -0.000000
    13  H   -0.000000   0.000000   0.000000   0.000000   0.000000
    14  C    0.000000   0.000000   0.000000   0.000000   0.000000
    15  H   -0.000000  -0.000000  -0.000000  -0.000000  -0.000000
    16  H   -0.000000  -0.000000  -0.000000  -0.000000   0.000000
    17  H    0.000000   0.000000   0.000000   0.000000   0.000000
    18  H   -0.000000   0.000000   0.000000   0.000000  -0.000000
    19  N    0.000000  -0.000000  -0.000000  -0.000000  -0.000000
    20  H   -0.000000   0.000000   0.000000  -0.000000   0.000000
    21  H   -0.000000   0.000000   0.000000  -0.000000   0.000000
    22  N   -0.000000  -0.000000  -0.000000   0.000000   0.000000
    23  H   -0.000000   0.000000   0.000000   0.000000  -0.000000
 Mulliken charges and spin densities:
               1          2
     1  C    0.298816  -0.000000
     2  O   -0.432684  -0.000000
     3  C   -0.379932   0.000000
     4  H    0.155592  -0.000000
     5  H    0.152503  -0.000000
     6  H    0.135692   0.000000
     7  C    0.077766   0.000000
     8  C   -0.111111  -0.000000
     9  C   -0.142721  -0.000000
    10  C   -0.108095   0.000000
    11  H    0.081290   0.000000
    12  C   -0.107176   0.000000
    13  H    0.103667   0.000000
    14  C   -0.102587  -0.000000
    15  H    0.103575  -0.000000
    16  H    0.103917  -0.000000
    17  H    0.102058   0.000000
    18  H    0.344799  -0.000000
    19  N   -0.458401   0.000000
    20  H    0.260337   0.000000
    21  H    0.271964   0.000000
    22  N   -0.572210   0.000000
    23  H    0.222941  -0.000000
 Sum of Mulliken charges =  -0.00000   0.00000
 Mulliken charges and spin densities with hydrogens summed into heavy atoms:
               1          2
     1  C    0.298816  -0.000000
     2  O   -0.087885  -0.000000
     3  C    0.063855  -0.000000
     7  C    0.077766   0.000000
     8  C   -0.029821  -0.000000
     9  C   -0.039054  -0.000000
    10  C   -0.004520   0.000000
    12  C   -0.003259   0.000000
    14  C   -0.000530  -0.000000
    19  N    0.073900   0.000000
    22  N   -0.349269   0.000000
 Electronic spatial extent (au):  <R**2>=           2132.6889
 Charge=              0.0000 electrons
 Dipole moment (field-independent basis, Debye):
    X=             -0.2928    Y=              3.1802    Z=             -0.6064  Tot=              3.2507
 Quadrupole moment (field-independent basis, Debye-Ang):
   XX=            -59.4474   YY=            -64.1690   ZZ=            -59.2286
[...]
 16853,-0.01099253,-0.06055795,-0.05083922,-0.02663511,0.05524274,0.073
 60684,0.04406684,0.00552193,-0.05223937,-0.04547589,-0.23744260,0.0026
 9327,0.00111159,0.00056690,0.02815039,-0.00399934,-0.32072508,0.000313
 35,-0.00024290,0.00170880,-0.03557730,0.02135822,0.66735070,0.00073427
 ,0.00039210,0.00160407,-0.00016976,-0.00024061,-0.00030988,-0.00047054
 ,-0.00011974,-0.00005634,0.00002721,0.00000054,-0.00002433,-0.00001325
 ,0.00000843,0.00003197,-0.00008272,-0.00000141,0.00013646,-0.00202044,
 -0.00589690,0.00014581,-0.00323013,-0.00160065,0.02659319,-0.00091007,
 -0.00029622,-0.00047341,-0.07439945,-0.01677324,0.07398952,-0.00039622
 ,0.00233907,-0.00047122,-0.00002927,-0.00446061,-0.00223796,-0.0002055
 2,0.00063521,0.00005354,0.00867909,0.00206392,-0.01849273,0.07251362,0
 .00011729,0.00055450,0.00088416,-0.00017796,0.00000449,-0.00017830,-0.
 00012767,-0.00034105,0.00000297,-0.00001497,-0.00000616,0.00004263,0.0
 0002536,0.00002304,-0.00004398,-0.00002395,-0.00004818,0.00008328,-0.0
 0571673,0.00414142,-0.00039067,-0.00376135,0.00178036,0.01571138,-0.00
 025423,-0.00062806,-0.00019484,-0.01673547,-0.04526861,0.02289837,0.00
 236495,-0.00286189,0.00009969,-0.00457597,0.00411944,-0.00196829,0.000
 63619,-0.00085437,0.00012279,0.00416263,0.00434623,-0.01281829,0.02190
 661,0.03735584,-0.00085198,-0.00063414,-0.00028100,0.00039762,0.000287
 46,0.00018321,0.00014232,0.00011959,0.00001864,0.00000377,-0.00000612,
 -0.00001337,-0.00000898,-0.00000110,-0.00000860,0.00003690,0.00001604,
 -0.00006102,0.00142529,0.00034884,0.00169141,-0.00009689,-0.00048041,-
 0.00270746,-0.00054213,-0.00026390,0.00046536,0.07385246,0.02276352,-0
 .31701791,-0.00004625,0.00036675,0.00073507,-0.00313526,-0.00252570,-0
 .00097495,0.00005243,0.00012311,-0.00008588,0.00841617,0.00357612,-0.0
 1658104,-0.07974512,-0.02406628,0.33481585,0.00092669,0.00015662,-0.00
 127156,-0.00106299,-0.00051515,-0.00023523,-0.00008188,-0.00005382,0.0
 0002585,0.00000427,0.00000709,0.00000654,0.00002311,0.00000361,0.00000
 329,-0.00004269,-0.00002466,0.00004505,-0.00156337,-0.00510274,0.00322
 264,-0.00037200,0.00013727,0.00075436,-0.01069910,-0.00972154,-0.02070
 121,0.00185426,-0.00294488,0.00232067,-0.00027269,0.00050734,-0.000162
 80,-0.14236422,-0.07313315,-0.11370723,-0.00044778,0.00223700,-0.00002
 615,0.00858793,0.00413694,0.00821734,0.00038704,0.00010499,0.00045036,
 0.14561363,0.00023683,0.00069278,-0.00080416,-0.00040756,-0.00063928,-
 0.00010807,-0.00003458,-0.00003834,0.00001843,0.00000731,0.00001670,-0
 .00000196,-0.00000046,0.00000680,0.00000697,-0.00003224,-0.00000143,0.
 00002767,-0.00530871,0.00433075,0.00142985,0.00014538,-0.00036103,0.00
 046217,-0.00758318,-0.00291036,-0.01194123,-0.00284343,0.00537080,0.00
 048158,0.00050877,-0.00083072,-0.00000614,-0.07313748,-0.08750110,-0.0
 8252083,0.00221620,-0.00278165,0.00036546,0.00192825,0.00428978,0.0033
 9020,-0.00001158,0.00027540,0.00016871,0.08220155,0.08280633,0.0006125
 3,0.00037135,0.00032656,-0.00003145,-0.00000186,-0.00005342,-0.0000516
 0,-0.00002869,0.00005420,-0.00001187,0.00000719,-0.00000343,0.00000562
 ,-0.00001466,-0.00000134,-0.00001245,-0.00000743,0.00000347,0.00176868
 ,0.00056559,0.00070090,0.00084336,0.00052427,-0.00034858,0.00627075,0.
 00433530,0.00927742,0.00320271,0.00102417,-0.00417357,-0.00016494,-0.0
 0000579,0.00005812,-0.11379897,-0.08259695,-0.20698808,-0.00041766,0.0
 0014541,0.00081583,-0.01879241,-0.01291333,-0.01636841,-0.00095831,-0.
 00067672,-0.00096127,0.12148413,0.08889509,0.21675339,-0.00001133,0.00
 083156,-0.00012413,-0.00021558,-0.00030212,0.00004525,-0.00001668,-0.0
 0013541,0.00004811,-0.00004389,0.00001581,-0.00000069,0.00003638,0.000
 02707,-0.00000173,-0.00003182,-0.00000170,0.00001476,0.00011873,0.0004
 1943,-0.00030749,0.00155657,-0.00365367,-0.00301400,0.00302798,-0.0024
 5745,0.00171844,-0.01001030,-0.00779407,0.00660140,-0.00058253,-0.0002
 8197,0.00037080,-0.00294866,-0.00409575,-0.00050025,-0.00030565,-0.000
 16747,-0.00005432,-0.25197032,-0.12477058,0.05600743,-0.00043102,0.002
 05432,-0.00032724,-0.00050627,0.00209733,0.00004365,0.26232184,0.00076
 971,-0.00088185,0.00002039,-0.00029244,0.00006395,0.00003251,-0.000133
 79,0.00012448,-0.00001687,0.00007122,0.00001252,-0.00000460,-0.0000213
 2,-0.00005631,0.00000837,-0.00000692,-0.00002329,0.00001519,0.00043099
 ,-0.00032856,-0.00020497,-0.00366214,0.00481233,-0.00266107,-0.0025495
 9,0.00578594,-0.00002111,-0.00988519,-0.00191010,0.00454059,-0.0003712
 3,-0.00028069,0.00025704,-0.00188839,0.00252534,-0.00078933,-0.0000471
 9,-0.00006308,-0.00004686,-0.12481646,-0.11152369,0.03092758,0.0020935
 7,-0.00259352,0.00016457,0.00205261,-0.00269060,0.00042097,0.13823496,
 0.10706232,-0.00023102,-0.00004130,-0.00002473,0.00006049,0.00003984,0
 .00023180,0.00004383,0.00001313,-0.00001232,0.00000710,-0.00004333,0.0
 0001841,-0.00003088,0.00003539,0.00000898,0.00001482,0.00001178,0.0000
 2783,-0.00027109,-0.00023909,-0.00120410,-0.00229043,-0.00219197,-0.00
 313897,0.00098354,-0.00044540,-0.00535507,-0.02005630,-0.01169329,0.00
 983027,-0.00095085,-0.00054518,0.00034780,0.02625506,0.01545643,-0.001
 79893,0.00132368,0.00077805,-0.00025162,0.05595270,0.03089594,-0.07566
 044,0.00018752,0.00049001,0.00081876,-0.00046654,0.00010969,0.00089185
 ,-0.06053427,-0.03266997,0.07526856,0.00441874,0.00255720,0.00333506,-
 0.00281746,-0.00227237,-0.00213829,-0.00040765,-0.00005953,-0.00008147
 ,-0.00012990,0.00017862,-0.00003524,-0.00001979,-0.00003919,-0.0000706
 1,-0.00004063,0.00000162,0.00005440,-0.00100286,-0.00044982,-0.0001586
 1,-0.00038193,-0.00020842,-0.00032990,0.00011254,0.00015396,0.00016173
 ,-0.00014308,0.00007347,0.00009386,0.00033746,-0.00018899,0.00027318,-
 0.00011009,-0.00005987,0.00019956,0.00003285,0.00000467,0.00002731,-0.
 00003059,-0.00007492,-0.00007859,-0.00000775,0.00000597,-0.00000196,-0
 .00001922,0.00000297,0.00000803,0.00001250,0.00001435,0.00000617,0.195
 52154,-0.00181483,-0.00373496,-0.00558135,0.00000173,0.00209609,0.0027
 8017,0.00037400,-0.00016939,0.00019502,0.00016183,-0.00017358,0.000173
 97,0.00003720,0.00002258,0.00008996,-0.00002138,0.00000299,-0.00001641
 ,0.00034933,0.00059689,-0.00013631,-0.00008865,-0.00014166,-0.00014701
 ,-0.00035112,-0.00020926,-0.00040997,-0.00038555,0.00003186,0.00022884
 ,0.00009111,-0.00092609,0.00064846,0.00037961,0.00015245,-0.00021440,-
 0.00002341,0.00000767,0.00006543,0.00019561,0.00010357,0.00029606,0.00
 004636,0.00003700,-0.00007414,0.00006025,0.00004933,0.00002600,0.00007
 078,0.00002622,0.00001776,-0.17449910,0.23342083,-0.00098207,-0.003228
 75,-0.00342726,0.00021986,0.00234816,0.00124932,0.00030598,-0.00011341
 ,0.00031466,-0.00013678,0.00004820,0.00009535,-0.00007921,0.00003534,0
 .00005442,-0.00002730,0.00000272,0.00002204,0.00004515,0.00005304,-0.0
 0005855,0.00013405,0.00005548,0.00043470,-0.00011026,0.00000344,-0.000
 29174,0.00005321,0.00000262,-0.00000672,-0.00010539,0.00032176,-0.0000
 8509,0.00011570,0.00003132,-0.00012065,-0.00002890,-0.00001827,0.00001
 414,0.00007601,0.00006272,0.00002428,0.00004105,0.00000811,-0.00003692
 ,0.00004449,0.00002326,0.00001308,0.00001555,0.00001786,-0.00000930,0.
 09864514,-0.08113634,0.11849249,-0.00040204,-0.00391186,0.00077219,-0.
 00118064,0.00213275,-0.00185333,0.00017971,0.00162134,0.00075991,-0.00
 079304,0.00030794,-0.00038086,-0.00057737,0.00031740,0.00002249,0.0000
 6897,-0.00009462,-0.00006040,0.00030701,-0.00017143,-0.00009255,0.0001
 5799,-0.00000133,0.00005666,-0.00026898,-0.00052765,-0.00003903,0.0000
 0749,-0.00001454,-0.00001268,-0.00010287,-0.00001551,0.00006261,0.0002
 9972,0.00005756,-0.00017427,-0.00008855,0.00001567,-0.00000367,0.00000
 209,0.00006137,0.00013424,0.00002194,0.00000822,-0.00001905,0.00002622
 ,0.00001512,0.00000233,0.00000771,0.00001352,0.00000005,-0.00252895,-0
 .00388398,-0.03137384,0.66976180,-0.00029518,0.00032619,-0.00049101,0.
 00059711,-0.00072974,0.00033671,0.00026726,-0.00095202,0.00000193,0.00
 015103,-0.00054340,0.00036993,0.00027340,-0.00014518,0.00005077,0.0001
 2320,-0.00005117,0.00002378,-0.00027805,-0.00267050,0.00029308,0.00053
 927,-0.00018993,-0.00093537,0.00035635,-0.00094590,0.00082717,-0.00031
 002,-0.00012715,-0.00020190,0.00002316,0.00004081,-0.00001775,0.000118
 81,0.00011114,0.00013870,0.00004246,0.00013382,0.00006122,-0.00015998,
 -0.00004894,0.00020281,-0.00004954,-0.00001764,0.00006641,-0.00007078,
 -0.00004019,-0.00003965,-0.00004410,-0.00003230,0.00002099,-0.00321074
 ,0.00762465,0.02246744,0.02513479,0.28549451,0.00205740,-0.00239327,-0
 .00048374,-0.00065690,-0.00007826,-0.00175691,0.00003752,-0.00099018,-
 0.00067923,0.00031896,0.00008658,0.00085652,0.00039060,-0.00029249,0.0
 0026863,0.00016190,-0.00003232,0.00005155,-0.00016095,0.00024825,-0.00
 024520,-0.00029143,-0.00016004,-0.00014476,0.00010136,0.00022577,-0.00
 022630,0.00021893,0.00002602,0.00017247,-0.00005083,0.00004524,0.00005
 040,-0.00006419,-0.00011179,0.00006648,0.00001967,0.00009510,0.0000769
 2,0.00005979,0.00000245,-0.00017434,-0.00000137,0.00000123,-0.00001098
 ,0.00000154,0.00000831,0.00001133,-0.00000719,0.00002228,0.00000097,0.
 00625254,-0.00195531,-0.03052457,0.03601803,-0.12726185,0.45640833,0.0
 0054217,-0.00004152,0.00018039,-0.00011640,-0.00041573,-0.00008279,-0.
 00002188,-0.00006100,-0.00000714,-0.00000412,0.00003357,0.00003133,0.0
 0001673,-0.00002531,0.00000687,-0.00002373,0.00001393,-0.00000148,-0.0
 0000130,0.00001731,-0.00003280,-0.00006495,-0.00001819,-0.00000148,0.0
 0003671,0.00008397,-0.00000348,0.00005770,0.00002776,0.00003413,0.0000
 0194,0.00001113,0.00000231,-0.00006123,-0.00002932,0.00003574,0.000004
 61,0.00000295,0.00000460,0.00001571,-0.00000307,-0.00007131,0.00000048
 ,0.00000069,-0.00000275,0.00000015,-0.00000007,0.00000352,0.00000010,0
 .00000294,-0.00000128,0.00048321,0.00055888,-0.00064585,-0.26084194,-0
 .13588480,0.08643812,0.27756545,-0.00129111,-0.00093806,0.00048631,0.0
 0042067,0.00069243,-0.00012335,0.00022767,0.00039252,0.00005282,-0.000
 20468,-0.00023501,-0.00043897,-0.00012851,0.00019735,-0.00007598,0.000
 12544,-0.00003252,-0.00002732,0.00021428,-0.00013810,0.00000119,0.0001
 9443,0.00009836,-0.00002750,-0.00001240,-0.00012800,0.00004896,-0.0000
 8095,-0.00004227,-0.00006248,-0.00002006,-0.00000998,0.00000040,0.0001
 3495,0.00006306,-0.00009460,-0.00003385,-0.00001335,-0.00001846,-0.000
 00739,0.00001986,0.00012265,0.00000456,0.00000392,-0.00000128,0.000005
 64,0.00000238,-0.00000396,0.00000162,-0.00000196,0.00000055,-0.0015973
 4,-0.00098231,0.00232934,-0.18432368,-0.13622987,0.09370994,0.15712403
 ,0.13038804,-0.00021977,0.00031737,0.00012739,0.00003070,-0.00016924,0
 .00008079,0.00008719,0.00004356,0.00004625,-0.00007087,-0.00004516,-0.
 00002601,-0.00002831,0.00004150,-0.00005474,-0.00000883,-0.00000600,0.
 00000128,-0.00005898,-0.00002062,-0.00001348,0.00001490,-0.00004482,-0
 .00008338,-0.00001006,-0.00006196,0.00004715,-0.00003343,-0.00000219,-
 0.00001171,0.00002829,-0.00002675,0.00004141,0.00004703,0.00001508,-0.
 00000540,-0.00000413,0.00000359,-0.00000025,-0.00002172,-0.00000919,0.
 00003627,-0.00000299,-0.00000065,0.00000434,-0.00000365,-0.00000143,-0
 .00000192,-0.00000003,-0.00000031,0.00000213,0.00196365,-0.00002851,-0
 .00130044,0.07965938,0.06485929,-0.09301029,-0.09853382,-0.07779888,0.
 11765938,-0.00045311,0.00039880,-0.00006776,0.00025915,0.00000206,0.00
 023650,0.00001185,0.00006082,-0.00004400,-0.00000870,-0.00004412,-0.00
 010496,0.00001330,0.00001113,-0.00003365,0.00003214,-0.00001358,-0.000
 00327,0.00001494,-0.00001835,-0.00000350,0.00001919,-0.00000740,0.0000
 2698,-0.00001674,-0.00001965,0.00000420,-0.00000760,-0.00000039,-0.000
 02179,0.00000079,0.00000811,-0.00001630,-0.00000396,0.00000522,0.00000
 822,0.00000056,-0.00000526,-0.00000289,-0.00001943,-0.00000847,0.00000
 830,-0.00000146,-0.00000122,0.00000405,-0.00000245,-0.00000185,-0.0000
 0295,-0.00000158,-0.00000377,0.00000003,0.00176562,-0.00133437,0.00130
 532,-0.32684403,0.11175856,-0.10744688,-0.02645660,0.01699267,-0.01056
 643,0.34362636,-0.00050379,0.00273952,0.00016013,0.00039473,-0.0010161
 8,0.00056028,-0.00023565,-0.00032301,-0.00040325,0.00023822,-0.0001090
 7,0.00015021,0.00020104,-0.00011065,-0.00003554,-0.00001807,0.00003947
 ,0.00000181,-0.00020441,-0.00001462,-0.00001160,0.00007727,-0.00005584
 ,-0.00008091,0.00004343,-0.00003507,0.00011548,-0.00006738,-0.00001351
 ,-0.00008298,0.00003568,0.00002810,-0.00007227,-0.00006562,0.00002665,
 0.00005064,0.00003689,0.00000408,-0.00001420,-0.00008346,-0.00003595,0
 .00003342,-0.00001920,-0.00000873,0.00002457,-0.00002624,-0.00002045,-
 0.00001322,-0.00001205,-0.00001744,0.00000212,0.00022438,0.00052726,0.
 00120263,0.15876020,-0.08396029,0.07968270,-0.02408523,0.00295906,-0.0
 0830315,-0.12796640,0.08145414,-0.00021214,0.00085369,-0.00028919,0.00
 013717,-0.00019523,0.00047931,-0.00000073,-0.00020152,-0.00004177,0.00
 003607,0.00003926,0.00012414,0.00007165,-0.00005570,-0.00002505,-0.000
 03531,0.00001629,0.00000515,-0.00005031,-0.00002174,-0.00001416,-0.000
 01603,-0.00004907,-0.00006033,0.00001102,-0.00001992,0.00003164,-0.000
 00952,0.00000045,-0.00000162,0.00001875,-0.00001712,0.00002618,-0.0000
 0596,0.00000107,0.00002088,0.00001267,0.00000433,0.00000069,-0.0000159
 7,-0.00001552,0.00000094,-0.00000466,-0.00000077,0.00000416,-0.0000067
 8,-0.00000319,-0.00000223,-0.00000094,-0.00000114,0.00000199,-0.000987
 72,-0.00287476,-0.00818156,-0.09015164,0.05050191,-0.08687851,0.012146
 50,-0.00634324,0.00673012,0.11281442,-0.06139445,0.11700029,-0.0030249
 5,-0.00060345,-0.00170007,0.00004507,0.00375724,0.00215196,0.00022886,
 0.00008847,0.00001992,-0.00000139,-0.00014155,-0.00011689,-0.00000272,
 0.00006982,-0.00000784,0.00004524,-0.00001525,-0.00003786,0.00075737,0
 .00024977,0.00010325,0.00008648,-0.00024300,0.00025847,-0.00020351,-0.
 00014140,-0.00012844,-0.00010063,-0.00009509,-0.00007573,-0.00011269,0
 .00006419,-0.00018236,0.00013822,0.00009112,-0.00020553,-0.00002412,-0
 .00001192,-0.00001622,0.00006687,0.00007346,0.00017406,0.00000338,0.00
 000327,-0.00000501,0.00001213,0.00000224,-0.00000240,-0.00000329,-0.00
 000565,-0.00000287,-0.19996090,0.15295315,-0.07484137,-0.07525838,-0.0
 0402347,-0.03158442,0.00710760,0.00853603,0.02752308,0.00876353,-0.004
 65706,-0.03155713,0.33235259,0.00168867,-0.00063345,0.00033478,0.00143
 331,-0.00251714,-0.00151520,-0.00019607,-0.00027319,-0.00067128,0.0000
 3148,0.00012640,0.00055999,0.00021571,-0.00015805,0.00007567,0.0000473
 7,-0.00000820,0.00004035,0.00003789,0.00006173,0.00004156,-0.00049837,
 0.00000616,-0.00000798,-0.00000668,0.00005539,0.00006964,0.00024134,-0
 .00004661,-0.00000612,-0.00011135,0.00001847,-0.00015271,-0.00005279,-
 0.00004646,-0.00002841,0.00002268,0.00004350,0.00001403,-0.00000050,0.
 00003034,-0.00004546,-0.00000934,-0.00000722,0.00001246,-0.00000682,-0
 .00001615,-0.00000556,-0.00002292,0.00000004,-0.00000069,0.19593225,-0
 .21234665,0.06119304,0.00618736,-0.07250908,-0.03965157,0.00176393,0.0
 0099360,0.02028363,-0.00008232,-0.00200480,0.01992795,-0.06538628,0.63
 935658,-0.00012907,-0.00009359,-0.00005745,-0.00008200,-0.00023301,0.0
 0000993,-0.00030628,0.00042851,-0.00082976,0.00048940,-0.00043895,-0.0
 0043237,0.00005765,-0.00001973,0.00006115,-0.00000053,0.00000705,-0.00
 002339,0.00031317,0.00030544,0.00003420,0.00016145,0.00035618,0.000059
 97,-0.00027488,-0.00009003,-0.00011833,-0.00021724,-0.00011501,-0.0000
 7004,0.00005539,-0.00001418,-0.00011582,0.00010618,0.00004917,-0.00014
 365,0.00000050,0.00000403,-0.00001257,0.00002367,0.00005036,0.00018663
 ,-0.00000814,-0.00001133,0.00001009,0.00000057,-0.00000553,-0.00000569
 ,-0.00000273,-0.00001527,0.00000047,-0.11437030,0.07589283,-0.08177329
 ,0.02085783,0.02584777,-0.21368560,0.00148297,-0.01088064,-0.03313724,
 0.00364082,-0.00974273,-0.02785921,0.14224086,-0.00625358,0.42501492,-
 0.00008277,0.00015367,-0.00003755,-0.00009773,0.00001750,0.00010471,0.
 00010142,-0.00010840,0.00015427,-0.00008822,0.00006995,0.00008806,-0.0
 0001934,0.00000197,0.00000134,-0.00000669,-0.00000271,0.00000469,-0.00
 007027,-0.00007706,-0.00001832,-0.00004952,0.00004383,-0.00005449,0.00
 007964,0.00005486,0.00004241,0.00008026,-0.00000831,0.00001244,-0.0000
 2367,0.00000112,0.00001536,-0.00004288,-0.00002168,0.00002482,0.000001
 65,0.00000096,0.00000124,0.00000876,0.00000124,-0.00004376,0.00000058,
 -0.00000095,0.00000125,-0.00000076,-0.00000080,-0.00000031,-0.00000288
 ,0.00000019,0.00000053,0.00491632,0.02712254,0.00732947,-0.00195387,0.
 00494126,0.00818780,0.00175959,0.00371799,0.00020878,-0.00069178,-0.00
 206727,-0.00219340,-0.07091475,-0.14122855,-0.05403929,0.06709689,-0.0
 0020545,0.00055264,0.00039741,0.00023682,-0.00030888,-0.00026050,-0.00
 012512,0.00010013,-0.00022138,0.00009693,-0.00003801,-0.00001790,0.000
 03643,-0.00000784,0.00000505,0.00001693,-0.00000752,-0.00000134,0.0001
 0677,0.00003790,0.00007910,0.00009175,-0.00008803,0.00002437,-0.000009
 42,-0.00002825,0.00005708,0.00001553,-0.00002045,-0.00005730,-0.000035
 16,0.00005164,-0.00012942,-0.00001421,-0.00000125,-0.00001095,0.000005
 01,0.00000548,-0.00001135,-0.00001986,0.00000346,0.00001011,-0.0000113
 2,-0.00000620,0.00001492,-0.00001113,-0.00000973,-0.00000753,-0.000013
 64,-0.00000974,-0.00000147,-0.01648915,-0.02601548,-0.00570973,-0.0016
 8862,0.00546215,-0.00122679,0.00092313,0.00294083,0.00095484,0.0002697
 9,-0.00005268,-0.00015159,-0.09056465,-0.35012521,-0.07502775,0.107388
 67,0.36756505,-0.00044084,0.00039858,-0.00094335,-0.00013434,0.0004891
 3,0.00064911,-0.00000777,-0.00022755,-0.00021461,0.00003576,0.00003265
 ,0.00034629,0.00011691,-0.00007155,0.00003761,0.00002040,-0.00000782,0
 .00001868,-0.00010086,0.00008268,0.00002930,-0.00000147,-0.00003005,-0
 .00006887,-0.00009607,-0.00010793,-0.00004820,-0.00013501,-0.00000984,
 0.00002303,0.00006078,-0.00006007,0.00011805,0.00011350,0.00004531,-0.
 00003112,0.00000719,0.00001959,0.00002601,0.00001117,0.00000207,0.0000
 9336,0.00000331,0.00000551,-0.00000648,0.00000434,0.00000514,0.0000017
 9,0.00000961,0.00000414,0.00000565,0.00723207,0.01216001,0.00510162,-0
 .01418440,-0.03712238,-0.03014313,-0.00098233,-0.00085553,0.00286836,0
 .00026553,-0.00182968,-0.00107187,-0.03200745,-0.05421453,-0.06711295,
 0.04020994,0.08129213,0.09032173\\0.00000190,0.00000250,-0.00002470,0.
 00001692,0.00001350,0.00001902,-0.00000368,0.00000335,0.00001213,0.000
 00545,-0.00000039,-0.00000593,0.00000425,0.00000103,-0.00000055,0.0000
 0087,0.00000405,0.00000166,-0.00001975,-0.00000438,0.00001963,-0.00000
 218,0.00000162,-0.00000113,-0.00000840,-0.00001116,-0.00000334,-0.0000
 0646,-0.00000777,-0.00001222,0.00000625,-0.00000004,-0.00000585,0.0000
 1163,-0.00000013,-0.00001278,0.00000778,0.00000129,0.00000214,0.000005
 79,0.00000054,0.00001298,0.00000004,-0.00000154,0.00000029,0.00000291,
 -0.00000403,0.00000022,0.00000266,-0.00000412,-0.00000424,-0.00000149,
 -0.00000098,0.00002606,-0.00000271,-0.00000857,0.00000277,-0.00000715,
 0.00000579,-0.00000159,-0.00000737,0.00000645,-0.00000545,0.00000258,0
 .00000957,-0.00001292,-0.00000982,-0.00000660,-0.00000617\\\@


 LORD, MAN... WERE YE BUT WHYLES WHERE I AM, 
 THE GENTILES YE WAD NE'ER ENVY 'EM.        
 IT'S TRUE, THEY NEEDNA STARVE OR SWEAT,     
 THRO' WINTER'S CAULD OR SIMMER'S HEAT...  
 THEY'VE NAE SAIR WARK TO CRAZE THEIR BANES, 
 AND FILL AULD AGE WITH GRIPS AN' GRANES...  
                                             
 BUT HUMAN BODIES ARE SIC FOOLS              
 FOR A' THEIR COLLEGES AND SCHOOLS,           
 THAT WHEN NAE REAL ILLS PERPLEX THEM,       
 THEY MAK ENOW THEMSELVES TO VEX THEM,       
 AN' AYE THE LESS THEY HAE TO STURT THEM,    
 IN LIKE PROPORTION LESS WILL HURT THEM....  
                                             
                (ROBERT BURNS 'THE TWA DOGS')
 Job cpu time:       0 days  1 hours  5 minutes  7.6 seconds.
 Elapsed time:       0 days  0 hours  2 minutes  3.9 seconds.
 File lengths (MBytes):  RWF=    295 Int=      0 D2E=      0 Chk=     15 Scr=      1
 Normal termination of Gaussian 16 at Thu May 16 18:21:43 2019.
