 Entering Gaussian System, Link 0=g16
 Initial command:
 /opt/software/gaussian/g16.b01/l1.exe "/localscratch/hpham196.14856797.0/Gau-16289.inp" -scrdir="/localscratch/hpham196.14856797.0/"
 Entering Link 1 = /opt/software/gaussian/g16.b01/l1.exe PID=     16290.
  
 Copyright (c) 1988-2017, Gaussian, Inc.  All Rights Reserved.
  
 This is part of the Gaussian(R) 16 program.  It is based on
 the Gaussian(R) 09 system (copyright 2009, Gaussian, Inc.),
 the Gaussian(R) 03 system (copyright 2003, Gaussian, Inc.),
 the Gaussian(R) 98 system (copyright 1998, Gaussian, Inc.),
 the Gaussian(R) 94 system (copyright 1995, Gaussian, Inc.),
 the Gaussian 92(TM) system (copyright 1992, Gaussian, Inc.),
 the Gaussian 90(TM) system (copyright 1990, Gaussian, Inc.),
 the Gaussian 88(TM) system (copyright 1988, Gaussian, Inc.),
 the Gaussian 86(TM) system (copyright 1986, Carnegie Mellon
 University), and the Gaussian 82(TM) system (copyright 1983,
 Carnegie Mellon University). Gaussian is a federally registered
 trademark of Gaussian, Inc.
  
 This software contains proprietary and confidential information,
 including trade secrets, belonging to Gaussian, Inc.
  
 This software is provided under written license and may be
 used, copied, transmitted, or stored only in accord with that
 written license.
  
 The following legend is applicable only to US Government
 contracts under FAR:
  
                    RESTRICTED RIGHTS LEGEND
  
 Use, reproduction and disclosure by the US Government is
 subject to restrictions as set forth in subparagraphs (a)
 and (c) of the Commercial Computer Software - Restricted
 Rights clause in FAR 52.227-19.
  
 Gaussian, Inc.
 340 Quinnipiac St., Bldg. 40, Wallingford CT 06492
  
  
 ---------------------------------------------------------------
 Warning -- This program may not be used in any manner that
 competes with the business of Gaussian, Inc. or will provide
 assistance to any competitor of Gaussian, Inc.  The licensee
 of this program is prohibited from giving any competitor of
 Gaussian, Inc. access to this program.  By using this program,
 the user acknowledges that Gaussian, Inc. is engaged in the
 business of creating and licensing software in the field of
 computational chemistry and represents and warrants to the
 licensee that it is not a competitor of Gaussian, Inc. and that
 it will not use this program in any manner prohibited above.
 ---------------------------------------------------------------
  

 Cite this work as:
 Gaussian 16, Revision B.01,
 M. J. Frisch, G. W. Trucks, H. B. Schlegel, G. E. Scuseria, 
 M. A. Robb, J. R. Cheeseman, G. Scalmani, V. Barone, 
 G. A. Petersson, H. Nakatsuji, X. Li, M. Caricato, A. V. Marenich, 
 J. Bloino, B. G. Janesko, R. Gomperts, B. Mennucci, H. P. Hratchian, 
 J. V. Ortiz, A. F. Izmaylov, J. L. Sonnenberg, D. Williams-Young, 
 F. Ding, F. Lipparini, F. Egidi, J. Goings, B. Peng, A. Petrone, 
 T. Henderson, D. Ranasinghe, V. G. Zakrzewski, J. Gao, N. Rega, 
 G. Zheng, W. Liang, M. Hada, M. Ehara, K. Toyota, R. Fukuda, 
 J. Hasegawa, M. Ishida, T. Nakajima, Y. Honda, O. Kitao, H. Nakai, 
 T. Vreven, K. Throssell, J. A. Montgomery, Jr., J. E. Peralta, 
 F. Ogliaro, M. J. Bearpark, J. J. Heyd, E. N. Brothers, K. N. Kudin, 
 V. N. Staroverov, T. A. Keith, R. Kobayashi, J. Normand, 
 K. Raghavachari, A. P. Rendell, J. C. Burant, S. S. Iyengar, 
 J. Tomasi, M. Cossi, J. M. Millam, M. Klene, C. Adamo, R. Cammi, 
 J. W. Ochterski, R. L. Martin, K. Morokuma, O. Farkas, 
 J. B. Foresman, and D. J. Fox, Gaussian, Inc., Wallingford CT, 2016.
 
 ******************************************
 Gaussian 16:  ES64L-G16RevB.01 20-Dec-2017
                16-May-2019 
 ******************************************
 %NProcShared=32
 Will use up to   32 processors via shared memory.
 %chk=AH-opt-BnoH.chk
 ----------------------------------------------------------------------
 #p opt freq ub3lyp/6-31g(d,p) scrf=(iefpcm,solvent=acetonitrile) empir
 icaldispersion=gd3
 ----------------------------------------------------------------------
 1/18=20,19=15,26=3,38=1/1,3;
 2/9=110,12=2,17=6,18=5,40=1/2;
 3/5=1,6=6,7=101,11=2,25=1,30=1,70=2201,71=1,72=2,74=-5,116=2,124=31/1,2,3;
 4//1;
 5/5=2,38=5,53=2/2;
 6/7=2,8=2,9=2,10=2,28=1/1;
 7//1,2,3,16;
 1/18=20,19=15,26=3/3(2);
 2/9=110/2;
 99//99;
 2/9=110/2;
 3/5=1,6=6,7=101,11=2,25=1,30=1,70=2205,71=1,72=2,74=-5,116=2,124=31/1,2,3;
 4/5=5,16=3,69=1/1;
 5/5=2,38=5,53=2/2;
 7//1,2,3,16;
 1/18=20,19=15,26=3/3(-5);
 2/9=110/2;
 6/7=2,8=2,9=2,10=2,19=2,28=1/1;
 99/9=1/99;
 Leave Link    1 at Thu May 16 17:49:29 2019, MaxMem=           0 cpu:               3.5 elap:               0.1
 (Enter /opt/software/gaussian/g16.b01/l101.exe)
 -------------------
 Title Card Required
 -------------------
 Symbolic Z-matrix:
 Charge =  0 Multiplicity = 1
 C                    -1.60081  -0.04817  -0.00008 
 C                    -2.5486    1.10603  -0.00012 
 H                    -2.03837   2.06839  -0.00113 
 H                    -3.20223   1.07434  -0.88325 
 H                    -3.201     1.07554   0.88399 
 C                    -0.18526  -0.00031  -0.00004 
 C                     0.58376  -1.2061   -0.00008 
 C                     0.54037   1.22975   0.00006 
 C                     1.97031  -1.17184  -0.00007 
 H                     0.06607  -2.1583   -0.00013 
 C                     1.92748   1.24369   0.00007 
 H                     0.00747   2.17437   0.00021 
 C                     2.66221   0.04844  0. 
 H                     2.5247   -2.1068   -0.00012 
 H                     2.44766   2.19787   0.00019 
 H                     3.74749   0.06823   0.00001 
 O                    -2.165    -1.29803   0.00023 
 H                    -3.12855  -1.21822  -0.00007 
 N                    -2.13214  -3.1915    1.58272 
 H                    -1.7988   -2.7201    2.39922 
 N                    -1.66548  -4.51144   1.58272 
 H                    -1.99882  -4.98284   2.39922 
 H                    -1.99883  -4.98284   0.76623 
 
 Add virtual bond connecting atoms N19        and O17        Dist= 4.66D+00.
 ITRead=  0  0  0  0  0  0  0  0  0  0  0  0  0  0  0  0  0  0  0  0
 ITRead=  0  0  0
 MicOpt= -1 -1 -1 -1 -1 -1 -1 -1 -1 -1 -1 -1 -1 -1 -1 -1 -1 -1 -1 -1
 MicOpt= -1 -1 -1
 NAtoms=     23 NQM=       23 NQMF=       0 NMMI=      0 NMMIF=      0
                NMic=       0 NMicF=      0.
                    Isotopes and Nuclear Properties:
 (Nuclear quadrupole moments (NQMom) in fm**2, nuclear magnetic moments (NMagM)
  in nuclear magnetons)

  Atom         1           2           3           4           5           6           7           8           9          10
 IAtWgt=          12          12           1           1           1          12          12          12          12           1
 AtmWgt=  12.0000000  12.0000000   1.0078250   1.0078250   1.0078250  12.0000000  12.0000000  12.0000000  12.0000000   1.0078250
 NucSpn=           0           0           1           1           1           0           0           0           0           1
 AtZEff=  -0.0000000  -0.0000000  -0.0000000  -0.0000000  -0.0000000  -0.0000000  -0.0000000  -0.0000000  -0.0000000  -0.0000000
 NQMom=    0.0000000   0.0000000   0.0000000   0.0000000   0.0000000   0.0000000   0.0000000   0.0000000   0.0000000   0.0000000
 NMagM=    0.0000000   0.0000000   2.7928460   2.7928460   2.7928460   0.0000000   0.0000000   0.0000000   0.0000000   2.7928460
 AtZNuc=   6.0000000   6.0000000   1.0000000   1.0000000   1.0000000   6.0000000   6.0000000   6.0000000   6.0000000   1.0000000

  Atom        11          12          13          14          15          16          17          18          19          20
 IAtWgt=          12           1          12           1           1           1          16           1          14           1
 AtmWgt=  12.0000000   1.0078250  12.0000000   1.0078250   1.0078250   1.0078250  15.9949146   1.0078250  14.0030740   1.0078250
 NucSpn=           0           1           0           1           1           1           0           1           2           1
 AtZEff=  -0.0000000  -0.0000000  -0.0000000  -0.0000000  -0.0000000  -0.0000000  -0.0000000  -0.0000000  -0.0000000  -0.0000000
 NQMom=    0.0000000   0.0000000   0.0000000   0.0000000   0.0000000   0.0000000   0.0000000   0.0000000   2.0440000   0.0000000
 NMagM=    0.0000000   2.7928460   0.0000000   2.7928460   2.7928460   2.7928460   0.0000000   2.7928460   0.4037610   2.7928460
 AtZNuc=   6.0000000   1.0000000   6.0000000   1.0000000   1.0000000   1.0000000   8.0000000   1.0000000   7.0000000   1.0000000

  Atom        21          22          23
 IAtWgt=          14           1           1
 AtmWgt=  14.0030740   1.0078250   1.0078250
 NucSpn=           2           1           1
 AtZEff=  -0.0000000  -0.0000000  -0.0000000
 NQMom=    2.0440000   0.0000000   0.0000000
 NMagM=    0.4037610   2.7928460   2.7928460
 AtZNuc=   7.0000000   1.0000000   1.0000000
 Leave Link  101 at Thu May 16 17:49:29 2019, MaxMem=   104857600 cpu:               5.5 elap:               0.2
 (Enter /opt/software/gaussian/g16.b01/l103.exe)

 GradGradGradGradGradGradGradGradGradGradGradGradGradGradGradGradGradGrad
 Berny optimization.
 Initialization pass.
                           ----------------------------
                           !    Initial Parameters    !
                           ! (Angstroms and Degrees)  !
 --------------------------                            --------------------------
 ! Name  Definition              Value          Derivative Info.                !
 --------------------------------------------------------------------------------
 ! R1    R(1,2)                  1.4935         estimate D2E/DX2                !
 ! R2    R(1,6)                  1.4164         estimate D2E/DX2                !
 ! R3    R(1,17)                 1.3713         estimate D2E/DX2                !
 ! R4    R(2,3)                  1.0893         estimate D2E/DX2                !
 ! R5    R(2,4)                  1.0992         estimate D2E/DX2                !
 ! R6    R(2,5)                  1.0992         estimate D2E/DX2                !
 ! R7    R(6,7)                  1.4301         estimate D2E/DX2                !
 ! R8    R(6,8)                  1.4281         estimate D2E/DX2                !
 ! R9    R(7,9)                  1.387          estimate D2E/DX2                !
 ! R10   R(7,10)                 1.0838         estimate D2E/DX2                !
 ! R11   R(8,11)                 1.3872         estimate D2E/DX2                !
 ! R12   R(8,12)                 1.0846         estimate D2E/DX2                !
 ! R13   R(9,13)                 1.4028         estimate D2E/DX2                !
 ! R14   R(9,14)                 1.087          estimate D2E/DX2                !
 ! R15   R(11,13)                1.403          estimate D2E/DX2                !
 ! R16   R(11,15)                1.0868         estimate D2E/DX2                !
 ! R17   R(13,16)                1.0855         estimate D2E/DX2                !
 ! R18   R(17,18)                0.9668         estimate D2E/DX2                !
 ! R19   R(17,19)                2.4679         estimate D2E/DX2                !
 ! R20   R(19,20)                1.0            estimate D2E/DX2                !
 ! R21   R(19,21)                1.4            estimate D2E/DX2                !
 ! R22   R(21,22)                1.0            estimate D2E/DX2                !
 ! R23   R(21,23)                1.0            estimate D2E/DX2                !
 ! A1    A(2,1,6)              127.4554         estimate D2E/DX2                !
 ! A2    A(2,1,17)             116.314          estimate D2E/DX2                !
 ! A3    A(6,1,17)             116.2306         estimate D2E/DX2                !
 ! A4    A(1,2,3)              112.6766         estimate D2E/DX2                !
 ! A5    A(1,2,4)              110.8011         estimate D2E/DX2                !
 ! A6    A(1,2,5)              110.8067         estimate D2E/DX2                !
 ! A7    A(3,2,4)              107.6544         estimate D2E/DX2                !
 ! A8    A(3,2,5)              107.6545         estimate D2E/DX2                !
 ! A9    A(4,2,5)              107.0069         estimate D2E/DX2                !
 ! A10   A(1,6,7)              120.5926         estimate D2E/DX2                !
 ! A11   A(1,6,8)              122.4732         estimate D2E/DX2                !
 ! A12   A(7,6,8)              116.9342         estimate D2E/DX2                !
 ! A13   A(6,7,9)              121.1136         estimate D2E/DX2                !
 ! A14   A(6,7,10)             118.9391         estimate D2E/DX2                !
 ! A15   A(9,7,10)             119.9473         estimate D2E/DX2                !
 ! A16   A(6,8,11)             121.1126         estimate D2E/DX2                !
 ! A17   A(6,8,12)             120.0335         estimate D2E/DX2                !
 ! A18   A(11,8,12)            118.8539         estimate D2E/DX2                !
 ! A19   A(7,9,13)             120.9684         estimate D2E/DX2                !
 ! A20   A(7,9,14)             119.2509         estimate D2E/DX2                !
 ! A21   A(13,9,14)            119.7808         estimate D2E/DX2                !
 ! A22   A(8,11,13)            121.0038         estimate D2E/DX2                !
 ! A23   A(8,11,15)            119.173          estimate D2E/DX2                !
 ! A24   A(13,11,15)           119.8232         estimate D2E/DX2                !
 ! A25   A(9,13,11)            118.8675         estimate D2E/DX2                !
 ! A26   A(9,13,16)            120.5978         estimate D2E/DX2                !
 ! A27   A(11,13,16)           120.5347         estimate D2E/DX2                !
 ! A28   A(1,17,18)            109.5594         estimate D2E/DX2                !
 ! A29   A(1,17,19)            133.9438         estimate D2E/DX2                !
 ! A30   A(18,17,19)            94.4046         estimate D2E/DX2                !
 ! A31   A(17,19,20)            99.5742         estimate D2E/DX2                !
 ! A32   A(17,19,21)           136.7021         estimate D2E/DX2                !
 ! A33   A(20,19,21)           109.4712         estimate D2E/DX2                !
 ! A34   A(19,21,22)           109.4712         estimate D2E/DX2                !
 ! A35   A(19,21,23)           109.4712         estimate D2E/DX2                !
 ! A36   A(22,21,23)           109.4713         estimate D2E/DX2                !
 ! D1    D(6,1,2,3)              0.0579         estimate D2E/DX2                !
 ! D2    D(6,1,2,4)            120.7436         estimate D2E/DX2                !
 ! D3    D(6,1,2,5)           -120.632          estimate D2E/DX2                !
 ! D4    D(17,1,2,3)          -179.956          estimate D2E/DX2                !
 ! D5    D(17,1,2,4)           -59.2703         estimate D2E/DX2                !
 ! D6    D(17,1,2,5)            59.3541         estimate D2E/DX2                !
 ! D7    D(2,1,6,7)           -179.9967         estimate D2E/DX2                !
 ! D8    D(2,1,6,8)              0.0047         estimate D2E/DX2                !
 ! D9    D(17,1,6,7)             0.0172         estimate D2E/DX2                !
 ! D10   D(17,1,6,8)          -179.9814         estimate D2E/DX2                !
 ! D11   D(2,1,17,18)            0.0273         estimate D2E/DX2                !
 ! D12   D(2,1,17,19)         -117.0773         estimate D2E/DX2                !
 ! D13   D(6,1,17,18)         -179.9849         estimate D2E/DX2                !
 ! D14   D(6,1,17,19)           62.9104         estimate D2E/DX2                !
 ! D15   D(1,6,7,9)            179.9986         estimate D2E/DX2                !
 ! D16   D(1,6,7,10)             0.0002         estimate D2E/DX2                !
 ! D17   D(8,6,7,9)             -0.0027         estimate D2E/DX2                !
 ! D18   D(8,6,7,10)           179.9989         estimate D2E/DX2                !
 ! D19   D(1,6,8,11)          -179.9992         estimate D2E/DX2                !
 ! D20   D(1,6,8,12)             0.0062         estimate D2E/DX2                !
 ! D21   D(7,6,8,11)             0.0022         estimate D2E/DX2                !
 ! D22   D(7,6,8,12)          -179.9925         estimate D2E/DX2                !
 ! D23   D(6,7,9,13)             0.0015         estimate D2E/DX2                !
 ! D24   D(6,7,9,14)          -179.9985         estimate D2E/DX2                !
 ! D25   D(10,7,9,13)          179.9999         estimate D2E/DX2                !
 ! D26   D(10,7,9,14)           -0.0001         estimate D2E/DX2                !
 ! D27   D(6,8,11,13)           -0.0004         estimate D2E/DX2                !
 ! D28   D(6,8,11,15)         -179.9975         estimate D2E/DX2                !
 ! D29   D(12,8,11,13)         179.9943         estimate D2E/DX2                !
 ! D30   D(12,8,11,15)          -0.0028         estimate D2E/DX2                !
 ! D31   D(7,9,13,11)            0.0004         estimate D2E/DX2                !
 ! D32   D(7,9,13,16)          179.9996         estimate D2E/DX2                !
 ! D33   D(14,9,13,11)        -179.9996         estimate D2E/DX2                !
 ! D34   D(14,9,13,16)          -0.0003         estimate D2E/DX2                !
 ! D35   D(8,11,13,9)           -0.0009         estimate D2E/DX2                !
 ! D36   D(8,11,13,16)         179.9998         estimate D2E/DX2                !
 ! D37   D(15,11,13,9)         179.9961         estimate D2E/DX2                !
 ! D38   D(15,11,13,16)         -0.0031         estimate D2E/DX2                !
 ! D39   D(1,17,19,20)          16.1301         estimate D2E/DX2                !
 ! D40   D(1,17,19,21)        -116.0859         estimate D2E/DX2                !
 ! D41   D(18,17,19,20)       -106.593          estimate D2E/DX2                !
 ! D42   D(18,17,19,21)        121.1909         estimate D2E/DX2                !
 ! D43   D(17,19,21,22)       -170.769          estimate D2E/DX2                !
 ! D44   D(17,19,21,23)        -50.7689         estimate D2E/DX2                !
 ! D45   D(20,19,21,22)         59.9998         estimate D2E/DX2                !
 ! D46   D(20,19,21,23)        179.9999         estimate D2E/DX2                !
 --------------------------------------------------------------------------------
 Trust Radius=3.00D-01 FncErr=1.00D-07 GrdErr=1.00D-06 EigMax=2.50D+02 EigMin=1.00D-04
 Number of steps in this run=    115 maximum allowed number of steps=    138.
 GradGradGradGradGradGradGradGradGradGradGradGradGradGradGradGradGradGrad

 Leave Link  103 at Thu May 16 17:49:29 2019, MaxMem=   104857600 cpu:               1.8 elap:               0.1
 (Enter /opt/software/gaussian/g16.b01/l202.exe)
                          Input orientation:                          
 ---------------------------------------------------------------------
 Center     Atomic      Atomic             Coordinates (Angstroms)
 Number     Number       Type             X           Y           Z
 ---------------------------------------------------------------------
      1          6           0       -1.600814   -0.048168   -0.000076
      2          6           0       -2.548595    1.106026   -0.000116
      3          1           0       -2.038368    2.068385   -0.001132
      4          1           0       -3.202229    1.074337   -0.883250
      5          1           0       -3.201004    1.075544    0.883988
      6          6           0       -0.185259   -0.000314   -0.000041
      7          6           0        0.583764   -1.206099   -0.000076
      8          6           0        0.540374    1.229751    0.000059
      9          6           0        1.970311   -1.171844   -0.000072
     10          1           0        0.066070   -2.158300   -0.000133
     11          6           0        1.927476    1.243687    0.000074
     12          1           0        0.007467    2.174369    0.000213
     13          6           0        2.662207    0.048435   -0.000001
     14          1           0        2.524701   -2.106804   -0.000124
     15          1           0        2.447658    2.197872    0.000193
     16          1           0        3.747485    0.068225    0.000008
     17          8           0       -2.165002   -1.298031    0.000225
     18          1           0       -3.128551   -1.218221   -0.000067
     19          7           0       -2.132135   -3.191504    1.582723
     20          1           0       -1.798796   -2.720104    2.399220
     21          7           0       -1.665485   -4.511442    1.582723
     22          1           0       -1.998822   -4.982842    2.399221
     23          1           0       -1.998826   -4.982843    0.766227
 ---------------------------------------------------------------------
                    Distance matrix (angstroms):
                    1          2          3          4          5
     1  C    0.000000
     2  C    1.493470   0.000000
     3  H    2.161308   1.089251   0.000000
     4  H    2.145820   1.099167   1.766589   0.000000
     5  H    2.145904   1.099184   1.766605   1.767239   0.000000
     6  C    1.416364   2.609472   2.777324   3.322204   3.321701
     7  C    2.472486   3.893276   4.194976   4.507120   4.506876
     8  C    2.493544   3.091446   2.711682   3.848567   3.847469
     9  C    3.743739   5.060554   5.154473   5.707933   5.707435
    10  H    2.689082   4.182379   4.721602   4.680985   4.681153
    11  C    3.757355   4.478187   4.050685   5.207957   5.206811
    12  H    2.743399   2.770345   2.048579   3.506098   3.504677
    13  C    4.264115   5.317044   5.116210   6.018655   6.017776
    14  H    4.610624   6.005049   6.184966   6.610393   6.610045
    15  H    4.629776   5.114164   4.487895   5.827866   5.826499
    16  H    5.349565   6.381039   6.121825   7.077495   7.076554
    17  O    1.371301   2.434468   3.368797   2.735781   2.736457
    18  H    1.924319   2.395511   3.462698   2.457898   2.459301
    19  N    3.559230   4.598650   5.493981   5.042174   4.454033
    20  H    3.596534   4.578021   5.361782   5.209800   4.320770
    21  N    4.736059   5.902645   6.778036   6.296311   5.836135
    22  H    5.501458   6.567601   7.448695   6.993727   6.359655
    23  H    5.009656   6.161482   7.092970   6.392057   6.177634
                    6          7          8          9         10
     6  C    0.000000
     7  C    1.430145   0.000000
     8  C    1.428147   2.436236   0.000000
     9  C    2.453358   1.386970   2.795063   0.000000
    10  H    2.172572   1.083833   3.421090   2.144581   0.000000
    11  C    2.451772   2.794103   1.387172   2.415911   3.877931
    12  H    2.183206   3.429239   1.084570   3.879420   4.333065
    13  C    2.847883   2.427711   2.428515   1.402783   3.407287
    14  H    3.432373   2.139744   3.882029   1.086968   2.459170
    15  H    3.429909   3.880866   2.138923   3.403358   4.964695
    16  H    3.933341   3.410723   3.410968   2.167053   4.302352
    17  O    2.367161   2.750303   3.702532   4.137238   2.391181
    18  H    3.185320   3.712335   4.410621   5.099073   3.330068
    19  N    4.059454   3.717956   5.403205   4.838836   2.899146
    20  H    3.969535   3.704784   5.179676   4.728623   3.090347
    21  N    5.004647   4.299961   6.350743   5.184319   3.322799
    22  H    5.819884   5.166252   7.127398   6.002860   4.242489
    23  H    5.357405   4.639050   6.755063   5.555626   3.581780
                   11         12         13         14         15
    11  C    0.000000
    12  H    2.133683   0.000000
    13  C    1.403017   3.401065   0.000000
    14  H    3.403302   4.966378   2.159621   0.000000
    15  H    1.086765   2.440304   2.160118   4.305365   0.000000
    16  H    2.166597   4.292269   1.085458   2.495186   2.494984
    17  O    4.817542   4.095996   5.011479   4.758931   5.787743
    18  H    5.623558   4.619987   5.927672   5.722660   6.539404
    19  N    6.217406   5.989560   5.998995   5.036676   7.247364
    20  H    5.945809   5.742272   5.772488   4.982531   6.926340
    21  N    6.966754   7.071293   6.482778   5.083832   8.027281
    22  H    7.742182   7.810640   7.266031   5.872879   8.780044
    23  H    7.400846   7.472461   6.901166   5.414904   8.480607
                   16         17         18         19         20
    16  H    0.000000
    17  O    6.068291   0.000000
    18  H    6.995342   0.966849   0.000000
    19  N    6.906573   2.467918   2.718808   0.000000
    20  H    6.655241   2.812752   3.127375   1.000000   0.000000
    21  N    7.264887   3.616605   3.935873   1.400000   1.973153
    22  H    8.018076   4.400071   4.604915   1.973153   2.271562
    23  H    7.688984   3.767256   4.004481   1.973153   2.797618
                   21         22         23
    21  N    0.000000
    22  H    1.000000   0.000000
    23  H    1.000000   1.632993   0.000000
 Stoichiometry    C8H12N2O
 Framework group  C1[X(C8H12N2O)]
 Deg. of freedom    63
 Full point group                 C1      NOp   1
 Largest Abelian subgroup         C1      NOp   1
 Largest concise Abelian subgroup C1      NOp   1
                         Standard orientation:                         
 ---------------------------------------------------------------------
 Center     Atomic      Atomic             Coordinates (Angstroms)
 Number     Number       Type             X           Y           Z
 ---------------------------------------------------------------------
      1          6           0       -0.162872    1.447208   -0.177643
      2          6           0        0.044441    2.902263    0.087478
      3          1           0        1.070099    3.135605    0.370398
      4          1           0       -0.200160    3.499836   -0.802041
      5          1           0       -0.612040    3.248852    0.898104
      6          6           0        0.799490    0.411189   -0.096352
      7          6           0        0.437965   -0.942261   -0.384077
      8          6           0        2.158303    0.653875    0.270164
      9          6           0        1.371554   -1.965146   -0.307880
     10          1           0       -0.585045   -1.163304   -0.665653
     11          6           0        3.077666   -0.382471    0.340925
     12          1           0        2.487090    1.661746    0.499050
     13          6           0        2.701230   -1.703313    0.054342
     14          1           0        1.063761   -2.983021   -0.533029
     15          1           0        4.103716   -0.162038    0.623215
     16          1           0        3.426926   -2.508452    0.112097
     17          8           0       -1.430152    1.070096   -0.541309
     18          1           0       -2.004470    1.847473   -0.566626
     19          7           0       -3.138342   -0.394617    0.472260
     20          1           0       -2.772437   -0.459135    1.400673
     21          7           0       -3.780062   -1.593481    0.139212
     22          1           0       -4.528101   -1.760746    0.781443
     23          1           0       -4.145968   -1.528963   -0.789200
 ---------------------------------------------------------------------
 Rotational constants (GHZ):           1.3854244           0.6571828           0.4623649
 Leave Link  202 at Thu May 16 17:49:29 2019, MaxMem=   104857600 cpu:               0.5 elap:               0.0
 (Enter /opt/software/gaussian/g16.b01/l301.exe)
 Standard basis: 6-31G(d,p) (6D, 7F)
 Ernie: Thresh=  0.10000D-02 Tol=  0.10000D-05 Strict=F.
 There are   225 symmetry adapted cartesian basis functions of A   symmetry.
 There are   225 symmetry adapted basis functions of A   symmetry.
   225 basis functions,   392 primitive gaussians,   225 cartesian basis functions
    41 alpha electrons       41 beta electrons
       nuclear repulsion energy       571.1805164081 Hartrees.
 IExCor=  402 DFT=T Ex+Corr=B3LYP ExCW=0 ScaHFX=  0.200000
 ScaDFX=  0.800000  0.720000  1.000000  0.810000 ScalE2=  1.000000  1.000000
 IRadAn=      5 IRanWt=     -1 IRanGd=            0 ICorTp=0 IEmpDi=131
 NAtoms=   23 NActive=   23 NUniq=   23 SFac= 1.00D+00 NAtFMM=   60 NAOKFM=F Big=F
 Integral buffers will be    131072 words long.
 Raffenetti 2 integral format.
 Two-electron integral symmetry is turned on.
 R6Disp:  Grimme-D3 Dispersion energy=       -0.0154256208 Hartrees.
 Nuclear repulsion after empirical dispersion term =      571.1650907873 Hartrees.
 ------------------------------------------------------------------------------
 Polarizable Continuum Model (PCM)
 =================================
 Model                : PCM.
 Atomic radii         : UFF (Universal Force Field).
 Polarization charges : Total charges.
 Charge compensation  : None.
 Solution method      : On-the-fly selection.
 Cavity type          : Scaled VdW (van der Waals Surface) (Alpha=1.100).
 Cavity algorithm     : GePol (No added spheres)
                        Default sphere list used, NSphG=   23.
                        Lebedev-Laikov grids with approx.  5.0 points / Ang**2.
                        Smoothing algorithm: York/Karplus (Gamma=1.0000).
                        Polarization charges: spherical gaussians, with
                                              point-specific exponents (IZeta= 3).
                        Self-potential: point-specific (ISelfS= 7).
                        Self-field    : sphere-specific E.n sum rule (ISelfD= 2).
 1st derivatives      : Analytical E(r).r(x)/FMM algorithm (CHGder, D1EAlg=3).
                        Cavity 1st derivative terms included.
 Solvent              : Acetonitrile, Eps=  35.688000 Eps(inf)=   1.806874
 ------------------------------------------------------------------------------
 GePol: Number of generator spheres                  =      23
 GePol: Total number of spheres                      =      23
 GePol: Number of exposed spheres                    =      23 (100.00%)
 GePol: Number of points                             =    1904
 GePol: Average weight of points                     =       0.13
 GePol: Minimum weight of points                     =   0.42D-09
 GePol: Maximum weight of points                     =    0.20577
 GePol: Number of points with low weight             =     121
 GePol: Fraction of low-weight points (<1% of avg)   =       6.36%
 GePol: Cavity surface area                          =    248.760 Ang**2
 GePol: Cavity volume                                =    245.475 Ang**3
 Leave Link  301 at Thu May 16 17:49:29 2019, MaxMem=   104857600 cpu:               3.9 elap:               0.2
 (Enter /opt/software/gaussian/g16.b01/l302.exe)
 NPDir=0 NMtPBC=     1 NCelOv=     1 NCel=       1 NClECP=     1 NCelD=      1
         NCelK=      1 NCelE2=     1 NClLst=     1 CellRange=     0.0.
 One-electron integrals computed using PRISM.
 One-electron integral symmetry used in STVInt
 PrsmSu:  requested number of processors reduced to:  29 ShMem   1 Linda.
 NBasis=   225 RedAO= T EigKep=  4.70D-04  NBF=   225
 NBsUse=   225 1.00D-06 EigRej= -1.00D+00 NBFU=   225
 Precomputing XC quadrature grid using
 IXCGrd= 4 IRadAn=           5 IRanWt=          -1 IRanGd=           0 AccXCQ= 0.00D+00.
 Generated NRdTot=       0 NPtTot=           0 NUsed=           0 NTot=          32
 NSgBfM=   225   225   225   225   225 MxSgAt=    23 MxSgA2=    23.
 Leave Link  302 at Thu May 16 17:49:30 2019, MaxMem=   104857600 cpu:               7.7 elap:               0.3
 (Enter /opt/software/gaussian/g16.b01/l303.exe)
 DipDrv:  MaxL=1.
 Leave Link  303 at Thu May 16 17:49:30 2019, MaxMem=   104857600 cpu:               1.1 elap:               0.1
 (Enter /opt/software/gaussian/g16.b01/l401.exe)
 ExpMin= 1.61D-01 ExpMax= 5.48D+03 ExpMxC= 8.25D+02 IAcc=3 IRadAn=         5 AccDes= 0.00D+00
 Harris functional with IExCor=  402 and IRadAn=       5 diagonalized for initial guess.
 HarFok:  IExCor=  402 AccDes= 0.00D+00 IRadAn=         5 IDoV= 1 UseB2=F ITyADJ=14
 ICtDFT=  3500011 ScaDFX=  1.000000  1.000000  1.000000  1.000000
 FoFCou: FMM=F IPFlag=           0 FMFlag=      100000 FMFlg1=           0
         NFxFlg=           0 DoJE=T BraDBF=F KetDBF=T FulRan=T
         wScrn=  0.000000 ICntrl=       500 IOpCl=  0 I1Cent=   200000004 NGrid=           0
         NMat0=    1 NMatS0=      1 NMatT0=    0 NMatD0=    1 NMtDS0=    0 NMtDT0=    0
 Petite list used in FoFCou.
 Harris En= -496.724694620661    
 JPrj=0 DoOrth=F DoCkMO=F.
 Initial guess <Sx>= 0.0000 <Sy>= 0.0000 <Sz>= 0.0000 <S**2>=-0.0000 S=-0.0000
 Leave Link  401 at Thu May 16 17:49:30 2019, MaxMem=   104857600 cpu:              13.8 elap:               0.5
 (Enter /opt/software/gaussian/g16.b01/l502.exe)
 Integral symmetry usage will be decided dynamically.
 UHF open shell SCF:
 Using DIIS extrapolation, IDIIS=  1040.
 NGot=   104857600 LenX=   104746616 LenY=   104695550
 Requested convergence on RMS density matrix=1.00D-08 within 128 cycles.
 Requested convergence on MAX density matrix=1.00D-06.
 Requested convergence on             energy=1.00D-06.
 No special actions if energy rises.
 Fock matrices will be formed incrementally for  20 cycles.

 Cycle   1  Pass 1  IDiag  1:
 FoFJK:  IHMeth= 1 ICntrl=       0 DoSepK=F KAlg= 0 I1Cent=           0 FoldK=F
 IRaf= 830000000 NMat=       1 IRICut=       1 DoRegI=T DoRafI=F ISym2E= 0 IDoP0=0 IntGTp=1.
 FoFCou: FMM=F IPFlag=           0 FMFlag=      100000 FMFlg1=           0
         NFxFlg=           0 DoJE=F BraDBF=F KetDBF=F FulRan=T
         wScrn=  0.000000 ICntrl=         0 IOpCl=  1 I1Cent=           0 NGrid=           0
         NMat0=    1 NMatS0=      1 NMatT0=    0 NMatD0=    1 NMtDS0=    0 NMtDT0=    0
 Symmetry not used in FoFCou.
 Inv3:  Mode=1 IEnd=    10875648.
 Iteration    1 A*A^-1 deviation from unit magnitude is 3.33D-15 for   1659.
 Iteration    1 A*A^-1 deviation from orthogonality  is 1.99D-15 for   1153    554.
 Iteration    1 A^-1*A deviation from unit magnitude is 3.77D-15 for   1659.
 Iteration    1 A^-1*A deviation from orthogonality  is 1.61D-15 for    927    416.
 E= -496.283194837899    
 DIIS: error= 4.10D-02 at cycle   1 NSaved=   1.
 NSaved= 1 IEnMin= 1 EnMin= -496.283194837899     IErMin= 1 ErrMin= 4.10D-02
 ErrMax= 4.10D-02  0.00D+00 EMaxC= 1.00D-01 BMatC= 1.45D+00 BMatP= 1.45D+00
 IDIUse=3 WtCom= 5.90D-01 WtEn= 4.10D-01
 Coeff-Com:  0.100D+01
 Coeff-En:   0.100D+01
 Coeff:      0.100D+01
 Gap=    -0.199 Goal=   None    Shift=    0.000
 Gap=    -0.199 Goal=   None    Shift=    0.000
 GapD=   -0.199 DampG=0.250 DampE=0.500 DampFc=0.2500 IDamp=-1.
 Damping current iteration by 2.50D-01
 RMSDP=9.51D-03 MaxDP=3.19D-01              OVMax= 9.04D-01

 Cycle   2  Pass 1  IDiag  1:
 RMSU=  2.36D-03    CP:  9.84D-01
 E= -496.431280492462     Delta-E=       -0.148085654563 Rises=F Damp=T
 DIIS: error= 1.92D-02 at cycle   2 NSaved=   2.
 NSaved= 2 IEnMin= 2 EnMin= -496.431280492462     IErMin= 2 ErrMin= 1.92D-02
 ErrMax= 1.92D-02  0.00D+00 EMaxC= 1.00D-01 BMatC= 3.03D-01 BMatP= 1.45D+00
 IDIUse=3 WtCom= 8.08D-01 WtEn= 1.92D-01
 Coeff-Com: -0.322D+00 0.132D+01
 Coeff-En:   0.000D+00 0.100D+01
 Coeff:     -0.261D+00 0.126D+01
 Gap=     0.224 Goal=   None    Shift=    0.000
 Gap=     0.224 Goal=   None    Shift=    0.000
 RMSDP=3.09D-03 MaxDP=9.88D-02 DE=-1.48D-01 OVMax= 9.57D-01

 Cycle   3  Pass 1  IDiag  1:
 RMSU=  2.88D-03    CP:  9.67D-01  5.43D-01
 E= -496.463402079019     Delta-E=       -0.032121586558 Rises=F Damp=F
 DIIS: error= 1.93D-02 at cycle   3 NSaved=   3.
 NSaved= 3 IEnMin= 3 EnMin= -496.463402079019     IErMin= 2 ErrMin= 1.92D-02
 ErrMax= 1.93D-02  0.00D+00 EMaxC= 1.00D-01 BMatC= 6.10D-01 BMatP= 3.03D-01
 IDIUse=2 WtCom= 0.00D+00 WtEn= 1.00D+00
 Coeff-En:   0.000D+00 0.433D+00 0.567D+00
 Coeff:      0.000D+00 0.433D+00 0.567D+00
 Gap=    -0.147 Goal=   None    Shift=    0.000
 Gap=    -0.147 Goal=   None    Shift=    0.000
 RMSDP=6.02D-03 MaxDP=2.80D-01 DE=-3.21D-02 OVMax= 9.57D-01

 Cycle   4  Pass 1  IDiag  1:
 RMSU=  2.99D-03    CP:  9.49D-01  2.29D+00 -1.08D-01
 E= -495.992895789279     Delta-E=        0.470506289741 Rises=F Damp=F
 DIIS: error= 3.96D-02 at cycle   4 NSaved=   4.
 NSaved= 4 IEnMin= 3 EnMin= -496.463402079019     IErMin= 2 ErrMin= 1.92D-02
 ErrMax= 3.96D-02  0.00D+00 EMaxC= 1.00D-01 BMatC= 2.04D+00 BMatP= 3.03D-01
 IDIUse=2 WtCom= 0.00D+00 WtEn= 1.00D+00
 Coeff-En:   0.000D+00 0.000D+00 0.674D+00 0.326D+00
 Coeff:      0.000D+00 0.000D+00 0.674D+00 0.326D+00
 Gap=     0.188 Goal=   None    Shift=    0.000
 Gap=     0.188 Goal=   None    Shift=    0.000
 RMSDP=2.85D-03 MaxDP=1.06D-01 DE= 4.71D-01 OVMax= 3.13D-01

 Cycle   5  Pass 1  IDiag  1:
 RMSU=  1.91D-03    CP:  9.55D-01  1.40D+00 -4.72D-02  1.00D+00
 E= -496.484233670144     Delta-E=       -0.491337880865 Rises=F Damp=F
 DIIS: error= 1.85D-02 at cycle   5 NSaved=   5.
 NSaved= 5 IEnMin= 5 EnMin= -496.484233670144     IErMin= 5 ErrMin= 1.85D-02
 ErrMax= 1.85D-02  0.00D+00 EMaxC= 1.00D-01 BMatC= 4.37D-01 BMatP= 3.03D-01
 IDIUse=2 WtCom= 0.00D+00 WtEn= 1.00D+00
 Coeff-En:   0.000D+00 0.000D+00 0.484D+00 0.000D+00 0.516D+00
 Coeff:      0.000D+00 0.000D+00 0.484D+00 0.000D+00 0.516D+00
 Gap=    -0.000 Goal=   None    Shift=    0.000
 Gap=    -0.000 Goal=   None    Shift=    0.000
 RMSDP=3.85D-03 MaxDP=1.49D-01 DE=-4.91D-01 OVMax= 7.10D-01

 Cycle   6  Pass 1  IDiag  1:
 RMSU=  1.23D-03    CP:  9.73D-01  6.14D-01  5.40D-01  1.73D-01  5.33D-01
 E= -496.633462844140     Delta-E=       -0.149229173997 Rises=F Damp=F
 DIIS: error= 1.27D-02 at cycle   6 NSaved=   6.
 NSaved= 6 IEnMin= 6 EnMin= -496.633462844140     IErMin= 6 ErrMin= 1.27D-02
 ErrMax= 1.27D-02  0.00D+00 EMaxC= 1.00D-01 BMatC= 9.86D-02 BMatP= 3.03D-01
 IDIUse=3 WtCom= 8.73D-01 WtEn= 1.27D-01
 Coeff-Com: -0.214D+00 0.341D+00 0.155D+00-0.971D-01 0.356D+00 0.459D+00
 Coeff-En:   0.000D+00 0.000D+00 0.000D+00 0.000D+00 0.275D+00 0.725D+00
 Coeff:     -0.187D+00 0.298D+00 0.136D+00-0.847D-01 0.345D+00 0.493D+00
 Gap=     0.020 Goal=   None    Shift=    0.000
 Gap=     0.020 Goal=   None    Shift=    0.000
 RMSDP=1.48D-03 MaxDP=5.12D-02 DE=-1.49D-01 OVMax= 2.62D-01

 Cycle   7  Pass 1  IDiag  1:
 RMSU=  5.71D-04    CP:  9.67D-01  8.71D-01  3.57D-01  4.06D-01  9.75D-01
                    CP:  9.00D-01
 E= -496.669167337736     Delta-E=       -0.035704493596 Rises=F Damp=F
 DIIS: error= 2.78D-03 at cycle   7 NSaved=   7.
 NSaved= 7 IEnMin= 7 EnMin= -496.669167337736     IErMin= 7 ErrMin= 2.78D-03
 ErrMax= 2.78D-03  0.00D+00 EMaxC= 1.00D-01 BMatC= 7.27D-03 BMatP= 9.86D-02
 IDIUse=3 WtCom= 9.72D-01 WtEn= 2.78D-02
 Coeff-Com: -0.767D-01 0.104D+00 0.295D-02-0.303D-01 0.101D+00 0.318D+00
 Coeff-Com:  0.580D+00
 Coeff-En:   0.000D+00 0.000D+00 0.000D+00 0.000D+00 0.000D+00 0.795D-01
 Coeff-En:   0.920D+00
 Coeff:     -0.745D-01 0.101D+00 0.287D-02-0.294D-01 0.980D-01 0.312D+00
 Coeff:      0.590D+00
 Gap=     0.029 Goal=   None    Shift=    0.000
 Gap=     0.029 Goal=   None    Shift=    0.000
 RMSDP=2.40D-04 MaxDP=1.02D-02 DE=-3.57D-02 OVMax= 2.54D-02

 Cycle   8  Pass 1  IDiag  1:
 RMSU=  1.18D-04    CP:  9.67D-01  8.97D-01  3.36D-01  4.29D-01  9.75D-01
                    CP:  9.70D-01  7.29D-01
 E= -496.670011935401     Delta-E=       -0.000844597664 Rises=F Damp=F
 DIIS: error= 2.24D-03 at cycle   8 NSaved=   8.
 NSaved= 8 IEnMin= 8 EnMin= -496.670011935401     IErMin= 8 ErrMin= 2.24D-03
 ErrMax= 2.24D-03  0.00D+00 EMaxC= 1.00D-01 BMatC= 3.42D-03 BMatP= 7.27D-03
 IDIUse=3 WtCom= 9.78D-01 WtEn= 2.24D-02
 EnCoef did     2 forward-backward iterations
 Coeff-Com:  0.754D-02-0.141D-01-0.113D-01 0.288D-02-0.218D-01 0.130D+00
 Coeff-Com:  0.296D+00 0.611D+00
 Coeff-En:   0.000D+00 0.000D+00 0.000D+00 0.000D+00 0.000D+00 0.747D-01
 Coeff-En:   0.170D+00 0.755D+00
 Coeff:      0.737D-02-0.138D-01-0.111D-01 0.281D-02-0.213D-01 0.128D+00
 Coeff:      0.293D+00 0.614D+00
 Gap=     0.032 Goal=   None    Shift=    0.000
 Gap=     0.032 Goal=   None    Shift=    0.000
 RMSDP=6.81D-05 MaxDP=1.99D-03 DE=-8.45D-04 OVMax= 7.50D-03

 Cycle   9  Pass 1  IDiag  1:
 RMSU=  4.11D-05    CP:  9.67D-01  8.84D-01  3.45D-01  4.23D-01  9.70D-01
                    CP:  9.64D-01  7.65D-01  8.15D-01
 E= -496.670479601772     Delta-E=       -0.000467666372 Rises=F Damp=F
 DIIS: error= 1.72D-03 at cycle   9 NSaved=   9.
 NSaved= 9 IEnMin= 9 EnMin= -496.670479601772     IErMin= 9 ErrMin= 1.72D-03
 ErrMax= 1.72D-03  0.00D+00 EMaxC= 1.00D-01 BMatC= 2.00D-03 BMatP= 3.42D-03
 IDIUse=3 WtCom= 9.83D-01 WtEn= 1.72D-02
 Coeff-Com:  0.277D-01-0.403D-01-0.103D-01 0.111D-01-0.502D-01 0.672D-01
 Coeff-Com:  0.163D+00 0.430D+00 0.402D+00
 Coeff-En:   0.000D+00 0.000D+00 0.000D+00 0.000D+00 0.000D+00 0.498D-01
 Coeff-En:   0.000D+00 0.000D+00 0.950D+00
 Coeff:      0.272D-01-0.396D-01-0.101D-01 0.109D-01-0.493D-01 0.669D-01
 Coeff:      0.160D+00 0.423D+00 0.411D+00
 Gap=     0.033 Goal=   None    Shift=    0.000
 Gap=     0.033 Goal=   None    Shift=    0.000
 RMSDP=3.16D-05 MaxDP=1.56D-03 DE=-4.68D-04 OVMax= 4.95D-03

 Cycle  10  Pass 1  IDiag  1:
 RMSU=  1.06D-05    CP:  9.67D-01  8.77D-01  3.48D-01  4.18D-01  9.66D-01
                    CP:  9.66D-01  7.56D-01  8.79D-01  7.54D-01
 E= -496.670715571065     Delta-E=       -0.000235969293 Rises=F Damp=F
 DIIS: error= 1.41D-03 at cycle  10 NSaved=  10.
 NSaved=10 IEnMin=10 EnMin= -496.670715571065     IErMin=10 ErrMin= 1.41D-03
 ErrMax= 1.41D-03  0.00D+00 EMaxC= 1.00D-01 BMatC= 1.26D-03 BMatP= 2.00D-03
 IDIUse=3 WtCom= 9.86D-01 WtEn= 1.41D-02
 Coeff-Com:  0.144D-01-0.205D-01-0.594D-02 0.695D-02-0.295D-01 0.498D-01
 Coeff-Com:  0.683D-01-0.121D+00-0.375D+00 0.141D+01
 Coeff-En:   0.000D+00 0.000D+00 0.000D+00 0.000D+00 0.000D+00 0.270D-01
 Coeff-En:   0.000D+00 0.000D+00 0.000D+00 0.973D+00
 Coeff:      0.142D-01-0.202D-01-0.586D-02 0.685D-02-0.290D-01 0.495D-01
 Coeff:      0.674D-01-0.120D+00-0.370D+00 0.141D+01
 Gap=     0.032 Goal=   None    Shift=    0.000
 Gap=     0.032 Goal=   None    Shift=    0.000
 RMSDP=7.76D-05 MaxDP=3.11D-03 DE=-2.36D-04 OVMax= 1.42D-02

 Cycle  11  Pass 1  IDiag  1:
 RMSU=  7.10D-06    CP:  9.68D-01  8.59D-01  3.60D-01  4.02D-01  9.49D-01
                    CP:  9.72D-01  7.49D-01  8.43D-01  7.61D-01  1.30D+00
 E= -496.671085668897     Delta-E=       -0.000370097832 Rises=F Damp=F
 DIIS: error= 5.79D-04 at cycle  11 NSaved=  11.
 NSaved=11 IEnMin=11 EnMin= -496.671085668897     IErMin=11 ErrMin= 5.79D-04
 ErrMax= 5.79D-04  0.00D+00 EMaxC= 1.00D-01 BMatC= 2.08D-04 BMatP= 1.26D-03
 IDIUse=3 WtCom= 9.94D-01 WtEn= 5.79D-03
 Coeff-Com:  0.317D-02-0.430D-02-0.191D-02 0.239D-02-0.870D-02 0.240D-01
 Coeff-Com:  0.193D-01-0.162D+00-0.380D+00 0.642D+00 0.866D+00
 Coeff-En:   0.000D+00 0.000D+00 0.000D+00 0.000D+00 0.000D+00 0.000D+00
 Coeff-En:   0.000D+00 0.000D+00 0.000D+00 0.000D+00 0.100D+01
 Coeff:      0.315D-02-0.428D-02-0.190D-02 0.238D-02-0.865D-02 0.239D-01
 Coeff:      0.192D-01-0.161D+00-0.378D+00 0.639D+00 0.867D+00
 Gap=     0.032 Goal=   None    Shift=    0.000
 Gap=     0.032 Goal=   None    Shift=    0.000
 RMSDP=4.54D-05 MaxDP=1.95D-03 DE=-3.70D-04 OVMax= 8.31D-03

 Cycle  12  Pass 1  IDiag  1:
 RMSU=  5.12D-06    CP:  9.68D-01  8.50D-01  3.66D-01  3.93D-01  9.39D-01
                    CP:  9.75D-01  7.42D-01  8.25D-01  7.30D-01  1.58D+00
                    CP:  8.80D-01
 E= -496.671158288047     Delta-E=       -0.000072619150 Rises=F Damp=F
 DIIS: error= 1.02D-04 at cycle  12 NSaved=  12.
 NSaved=12 IEnMin=12 EnMin= -496.671158288047     IErMin=12 ErrMin= 1.02D-04
 ErrMax= 1.02D-04  0.00D+00 EMaxC= 1.00D-01 BMatC= 6.87D-06 BMatP= 2.08D-04
 IDIUse=3 WtCom= 9.99D-01 WtEn= 1.02D-03
 Coeff-Com: -0.958D-04 0.155D-03-0.387D-03 0.386D-03-0.116D-02 0.780D-02
 Coeff-Com:  0.582D-02-0.422D-01-0.113D+00 0.258D-01 0.477D+00 0.640D+00
 Coeff-En:   0.000D+00 0.000D+00 0.000D+00 0.000D+00 0.000D+00 0.000D+00
 Coeff-En:   0.000D+00 0.000D+00 0.000D+00 0.000D+00 0.000D+00 0.100D+01
 Coeff:     -0.957D-04 0.155D-03-0.387D-03 0.386D-03-0.116D-02 0.780D-02
 Coeff:      0.581D-02-0.421D-01-0.113D+00 0.257D-01 0.477D+00 0.640D+00
 Gap=     0.032 Goal=   None    Shift=    0.000
 Gap=     0.032 Goal=   None    Shift=    0.000
 RMSDP=1.00D-05 MaxDP=3.66D-04 DE=-7.26D-05 OVMax= 1.79D-03

 Cycle  13  Pass 1  IDiag  1:
 RMSU=  1.42D-06    CP:  9.68D-01  8.48D-01  3.68D-01  3.91D-01  9.37D-01
                    CP:  9.76D-01  7.41D-01  8.18D-01  7.14D-01  1.58D+00
                    CP:  1.10D+00  7.61D-01
 E= -496.671160707886     Delta-E=       -0.000002419839 Rises=F Damp=F
 DIIS: error= 9.96D-06 at cycle  13 NSaved=  13.
 NSaved=13 IEnMin=13 EnMin= -496.671160707886     IErMin=13 ErrMin= 9.96D-06
 ErrMax= 9.96D-06  0.00D+00 EMaxC= 1.00D-01 BMatC= 6.26D-08 BMatP= 6.87D-06
 IDIUse=1 WtCom= 1.00D+00 WtEn= 0.00D+00
 Coeff-Com: -0.235D-04 0.306D-04-0.858D-04 0.129D-03-0.351D-03 0.205D-02
 Coeff-Com:  0.114D-02-0.825D-02-0.234D-01-0.266D-01 0.160D+00 0.286D+00
 Coeff-Com:  0.610D+00
 Coeff:     -0.235D-04 0.306D-04-0.858D-04 0.129D-03-0.351D-03 0.205D-02
 Coeff:      0.114D-02-0.825D-02-0.234D-01-0.266D-01 0.160D+00 0.286D+00
 Coeff:      0.610D+00
 Gap=     0.032 Goal=   None    Shift=    0.000
 Gap=     0.032 Goal=   None    Shift=    0.000
 RMSDP=9.33D-07 MaxDP=3.90D-05 DE=-2.42D-06 OVMax= 1.01D-04

 Cycle  14  Pass 1  IDiag  1:
 RMSU=  5.91D-07    CP:  9.68D-01  8.48D-01  3.68D-01  3.91D-01  9.37D-01
                    CP:  9.76D-01  7.41D-01  8.19D-01  7.14D-01  1.57D+00
                    CP:  1.09D+00  8.22D-01  7.43D-01
 E= -496.671160713378     Delta-E=       -0.000000005492 Rises=F Damp=F
 DIIS: error= 6.49D-06 at cycle  14 NSaved=  14.
 NSaved=14 IEnMin=14 EnMin= -496.671160713378     IErMin=14 ErrMin= 6.49D-06
 ErrMax= 6.49D-06  0.00D+00 EMaxC= 1.00D-01 BMatC= 3.85D-08 BMatP= 6.26D-08
 IDIUse=1 WtCom= 1.00D+00 WtEn= 0.00D+00
 Coeff-Com: -0.190D-04 0.225D-04 0.439D-05 0.130D-04-0.407D-04 0.174D-03
 Coeff-Com:  0.119D-03 0.301D-02 0.703D-02-0.205D-01 0.155D-01 0.643D-01
 Coeff-Com:  0.384D+00 0.547D+00
 Coeff:     -0.190D-04 0.225D-04 0.439D-05 0.130D-04-0.407D-04 0.174D-03
 Coeff:      0.119D-03 0.301D-02 0.703D-02-0.205D-01 0.155D-01 0.643D-01
 Coeff:      0.384D+00 0.547D+00
 Gap=     0.032 Goal=   None    Shift=    0.000
 Gap=     0.032 Goal=   None    Shift=    0.000
 RMSDP=6.39D-07 MaxDP=2.40D-05 DE=-5.49D-09 OVMax= 1.04D-04

 Cycle  15  Pass 1  IDiag  1:
 RMSU=  1.43D-07    CP:  9.68D-01  8.48D-01  3.68D-01  3.91D-01  9.37D-01
                    CP:  9.76D-01  7.41D-01  8.19D-01  7.13D-01  1.56D+00
                    CP:  1.09D+00  8.18D-01  8.28D-01  6.64D-01
 E= -496.671160724462     Delta-E=       -0.000000011084 Rises=F Damp=F
 DIIS: error= 8.20D-07 at cycle  15 NSaved=  15.
 NSaved=15 IEnMin=15 EnMin= -496.671160724462     IErMin=15 ErrMin= 8.20D-07
 ErrMax= 8.20D-07  0.00D+00 EMaxC= 1.00D-01 BMatC= 6.39D-10 BMatP= 3.85D-08
 IDIUse=1 WtCom= 1.00D+00 WtEn= 0.00D+00
 Coeff-Com:  0.970D-05-0.192D-04 0.935D-06 0.324D-05-0.993D-05-0.343D-04
 Coeff-Com: -0.139D-04 0.128D-02 0.354D-02-0.572D-02-0.223D-02 0.750D-02
 Coeff-Com:  0.103D+00 0.174D+00 0.718D+00
 Coeff:      0.970D-05-0.192D-04 0.935D-06 0.324D-05-0.993D-05-0.343D-04
 Coeff:     -0.139D-04 0.128D-02 0.354D-02-0.572D-02-0.223D-02 0.750D-02
 Coeff:      0.103D+00 0.174D+00 0.718D+00
 Gap=     0.032 Goal=   None    Shift=    0.000
 Gap=     0.032 Goal=   None    Shift=    0.000
 RMSDP=7.39D-08 MaxDP=2.84D-06 DE=-1.11D-08 OVMax= 9.27D-06

 Cycle  16  Pass 1  IDiag  1:
 RMSU=  4.66D-08    CP:  9.68D-01  8.48D-01  3.68D-01  3.91D-01  9.37D-01
                    CP:  9.76D-01  7.41D-01  8.19D-01  7.13D-01  1.56D+00
                    CP:  1.09D+00  8.19D-01  8.35D-01  7.03D-01  1.04D+00
 E= -496.671160724641     Delta-E=       -0.000000000179 Rises=F Damp=F
 DIIS: error= 2.85D-07 at cycle  16 NSaved=  16.
 NSaved=16 IEnMin=16 EnMin= -496.671160724641     IErMin=16 ErrMin= 2.85D-07
 ErrMax= 2.85D-07  0.00D+00 EMaxC= 1.00D-01 BMatC= 1.44D-10 BMatP= 6.39D-10
 IDIUse=1 WtCom= 1.00D+00 WtEn= 0.00D+00
 Coeff-Com:  0.213D-05-0.311D-05 0.173D-05-0.107D-05 0.156D-05-0.258D-04
 Coeff-Com:  0.716D-05 0.303D-03 0.105D-02-0.614D-03-0.312D-02-0.419D-02
 Coeff-Com:  0.108D-01 0.280D-01 0.407D+00 0.561D+00
 Coeff:      0.213D-05-0.311D-05 0.173D-05-0.107D-05 0.156D-05-0.258D-04
 Coeff:      0.716D-05 0.303D-03 0.105D-02-0.614D-03-0.312D-02-0.419D-02
 Coeff:      0.108D-01 0.280D-01 0.407D+00 0.561D+00
 Gap=     0.032 Goal=   None    Shift=    0.000
 Gap=     0.032 Goal=   None    Shift=    0.000
 RMSDP=3.18D-08 MaxDP=1.09D-06 DE=-1.79D-10 OVMax= 3.69D-06

 Cycle  17  Pass 1  IDiag  1:
 RMSU=  1.46D-08    CP:  9.68D-01  8.48D-01  3.68D-01  3.91D-01  9.37D-01
                    CP:  9.76D-01  7.41D-01  8.19D-01  7.13D-01  1.56D+00
                    CP:  1.09D+00  8.20D-01  8.40D-01  7.06D-01  1.10D+00
                    CP:  7.09D-01
 E= -496.671160724632     Delta-E=        0.000000000009 Rises=F Damp=F
 DIIS: error= 4.57D-07 at cycle  17 NSaved=  17.
 NSaved=17 IEnMin=16 EnMin= -496.671160724641     IErMin=16 ErrMin= 2.85D-07
 ErrMax= 4.57D-07  0.00D+00 EMaxC= 1.00D-01 BMatC= 1.39D-10 BMatP= 1.44D-10
 IDIUse=1 WtCom= 1.00D+00 WtEn= 0.00D+00
 Coeff-Com:  0.166D-05-0.235D-05 0.376D-07-0.195D-06 0.607D-06-0.466D-05
 Coeff-Com:  0.698D-05-0.202D-04 0.175D-04 0.198D-03-0.981D-03-0.232D-02
 Coeff-Com: -0.546D-02-0.598D-02 0.591D-01 0.198D+00 0.757D+00
 Coeff:      0.166D-05-0.235D-05 0.376D-07-0.195D-06 0.607D-06-0.466D-05
 Coeff:      0.698D-05-0.202D-04 0.175D-04 0.198D-03-0.981D-03-0.232D-02
 Coeff:     -0.546D-02-0.598D-02 0.591D-01 0.198D+00 0.757D+00
 Gap=     0.032 Goal=   None    Shift=    0.000
 Gap=     0.032 Goal=   None    Shift=    0.000
 RMSDP=2.84D-08 MaxDP=1.17D-06 DE= 8.98D-12 OVMax= 5.06D-06

 Cycle  18  Pass 1  IDiag  1:
 RMSU=  4.63D-09    CP:  9.68D-01  8.48D-01  3.68D-01  3.91D-01  9.37D-01
                    CP:  9.76D-01  7.41D-01  8.19D-01  7.13D-01  1.56D+00
                    CP:  1.09D+00  8.20D-01  8.41D-01  7.09D-01  1.13D+00
                    CP:  7.70D-01  9.97D-01
 E= -496.671160724676     Delta-E=       -0.000000000044 Rises=F Damp=F
 DIIS: error= 1.47D-07 at cycle  18 NSaved=  18.
 NSaved=18 IEnMin=18 EnMin= -496.671160724676     IErMin=18 ErrMin= 1.47D-07
 ErrMax= 1.47D-07  0.00D+00 EMaxC= 1.00D-01 BMatC= 1.52D-11 BMatP= 1.39D-10
 IDIUse=1 WtCom= 1.00D+00 WtEn= 0.00D+00
 Coeff-Com:  0.390D-06-0.447D-06-0.499D-07-0.107D-06 0.489D-06 0.692D-06
 Coeff-Com:  0.226D-05-0.603D-04-0.145D-03 0.183D-03-0.173D-03-0.840D-03
 Coeff-Com: -0.468D-02-0.708D-02-0.227D-01 0.403D-01 0.416D+00 0.579D+00
 Coeff:      0.390D-06-0.447D-06-0.499D-07-0.107D-06 0.489D-06 0.692D-06
 Coeff:      0.226D-05-0.603D-04-0.145D-03 0.183D-03-0.173D-03-0.840D-03
 Coeff:     -0.468D-02-0.708D-02-0.227D-01 0.403D-01 0.416D+00 0.579D+00
 Gap=     0.032 Goal=   None    Shift=    0.000
 Gap=     0.032 Goal=   None    Shift=    0.000
 RMSDP=1.08D-08 MaxDP=4.73D-07 DE=-4.39D-11 OVMax= 1.93D-06

 Cycle  19  Pass 1  IDiag  1:
 RMSU=  1.61D-09    CP:  9.68D-01  8.48D-01  3.68D-01  3.91D-01  9.37D-01
                    CP:  9.76D-01  7.41D-01  8.19D-01  7.13D-01  1.56D+00
                    CP:  1.09D+00  8.20D-01  8.41D-01  7.10D-01  1.13D+00
                    CP:  7.86D-01  1.07D+00  7.86D-01
 E= -496.671160724679     Delta-E=       -0.000000000003 Rises=F Damp=F
 DIIS: error= 3.12D-08 at cycle  19 NSaved=  19.
 NSaved=19 IEnMin=19 EnMin= -496.671160724679     IErMin=19 ErrMin= 3.12D-08
 ErrMax= 3.12D-08  0.00D+00 EMaxC= 1.00D-01 BMatC= 6.69D-13 BMatP= 1.52D-11
 IDIUse=1 WtCom= 1.00D+00 WtEn= 0.00D+00
 Coeff-Com: -0.620D-07 0.775D-07-0.136D-07-0.188D-07 0.166D-06 0.734D-06
 Coeff-Com: -0.582D-06-0.170D-04-0.436D-04 0.206D-04 0.480D-04-0.442D-05
 Coeff-Com: -0.665D-03-0.113D-02-0.137D-01-0.866D-02 0.398D-01 0.167D+00
 Coeff-Com:  0.818D+00
 Coeff:     -0.620D-07 0.775D-07-0.136D-07-0.188D-07 0.166D-06 0.734D-06
 Coeff:     -0.582D-06-0.170D-04-0.436D-04 0.206D-04 0.480D-04-0.442D-05
 Coeff:     -0.665D-03-0.113D-02-0.137D-01-0.866D-02 0.398D-01 0.167D+00
 Coeff:      0.818D+00
 Gap=     0.032 Goal=   None    Shift=    0.000
 Gap=     0.032 Goal=   None    Shift=    0.000
 RMSDP=3.93D-09 MaxDP=1.71D-07 DE=-2.96D-12 OVMax= 7.30D-07

 Error on total polarization charges =  0.00816
 SCF Done:  E(UB3LYP) =  -496.671160725     A.U. after   19 cycles
            NFock= 19  Conv=0.39D-08     -V/T= 2.0094
 <Sx>= 0.0000 <Sy>= 0.0000 <Sz>= 0.0000 <S**2>=-0.0000 S=-0.0000
 <L.S>=  0.00000000000    
 KE= 4.920415536650D+02 PE=-2.298547301240D+03 EE= 7.386694960628D+02
 Annihilation of the first spin contaminant:
 S**2 before annihilation    -0.0000,   after     0.0000
 Leave Link  502 at Thu May 16 17:49:47 2019, MaxMem=   104857600 cpu:             510.2 elap:              16.4
 (Enter /opt/software/gaussian/g16.b01/l601.exe)
 Copying SCF densities to generalized density rwf, IOpCl= 1 IROHF=0.

 **********************************************************************

            Population analysis using the SCF Density.

 **********************************************************************

 Orbital symmetries:
 Alpha Orbitals:
       Occupied  (A) (A) (A) (A) (A) (A) (A) (A) (A) (A) (A) (A)
                 (A) (A) (A) (A) (A) (A) (A) (A) (A) (A) (A) (A)
                 (A) (A) (A) (A) (A) (A) (A) (A) (A) (A) (A) (A)
                 (A) (A) (A) (A) (A)
       Virtual   (A) (A) (A) (A) (A) (A) (A) (A) (A) (A) (A) (A)
                 (A) (A) (A) (A) (A) (A) (A) (A) (A) (A) (A) (A)
                 (A) (A) (A) (A) (A) (A) (A) (A) (A) (A) (A) (A)
                 (A) (A) (A) (A) (A) (A) (A) (A) (A) (A) (A) (A)
                 (A) (A) (A) (A) (A) (A) (A) (A) (A) (A) (A) (A)
                 (A) (A) (A) (A) (A) (A) (A) (A) (A) (A) (A) (A)
                 (A) (A) (A) (A) (A) (A) (A) (A) (A) (A) (A) (A)
                 (A) (A) (A) (A) (A) (A) (A) (A) (A) (A) (A) (A)
                 (A) (A) (A) (A) (A) (A) (A) (A) (A) (A) (A) (A)
                 (A) (A) (A) (A) (A) (A) (A) (A) (A) (A) (A) (A)
                 (A) (A) (A) (A) (A) (A) (A) (A) (A) (A) (A) (A)
                 (A) (A) (A) (A) (A) (A) (A) (A) (A) (A) (A) (A)
                 (A) (A) (A) (A) (A) (A) (A) (A) (A) (A) (A) (A)
                 (A) (A) (A) (A) (A) (A) (A) (A) (A) (A) (A) (A)
                 (A) (A) (A) (A) (A) (A) (A) (A) (A) (A) (A) (A)
                 (A) (A) (A) (A)
 Beta  Orbitals:
       Occupied  (A) (A) (A) (A) (A) (A) (A) (A) (A) (A) (A) (A)
                 (A) (A) (A) (A) (A) (A) (A) (A) (A) (A) (A) (A)
                 (A) (A) (A) (A) (A) (A) (A) (A) (A) (A) (A) (A)
                 (A) (A) (A) (A) (A)
       Virtual   (A) (A) (A) (A) (A) (A) (A) (A) (A) (A) (A) (A)
                 (A) (A) (A) (A) (A) (A) (A) (A) (A) (A) (A) (A)
                 (A) (A) (A) (A) (A) (A) (A) (A) (A) (A) (A) (A)
                 (A) (A) (A) (A) (A) (A) (A) (A) (A) (A) (A) (A)
                 (A) (A) (A) (A) (A) (A) (A) (A) (A) (A) (A) (A)
                 (A) (A) (A) (A) (A) (A) (A) (A) (A) (A) (A) (A)
                 (A) (A) (A) (A) (A) (A) (A) (A) (A) (A) (A) (A)
                 (A) (A) (A) (A) (A) (A) (A) (A) (A) (A) (A) (A)
                 (A) (A) (A) (A) (A) (A) (A) (A) (A) (A) (A) (A)
                 (A) (A) (A) (A) (A) (A) (A) (A) (A) (A) (A) (A)
                 (A) (A) (A) (A) (A) (A) (A) (A) (A) (A) (A) (A)
                 (A) (A) (A) (A) (A) (A) (A) (A) (A) (A) (A) (A)
                 (A) (A) (A) (A) (A) (A) (A) (A) (A) (A) (A) (A)
                 (A) (A) (A) (A) (A) (A) (A) (A) (A) (A) (A) (A)
                 (A) (A) (A) (A) (A) (A) (A) (A) (A) (A) (A) (A)
                 (A) (A) (A) (A)
 The electronic state is 1-A.
 Alpha  occ. eigenvalues --  -19.19294 -14.34400 -14.29916 -10.26107 -10.20007
 Alpha  occ. eigenvalues --  -10.19635 -10.19205 -10.18887 -10.18822 -10.18691
 Alpha  occ. eigenvalues --  -10.18573  -1.06585  -0.92879  -0.85203  -0.78195
 Alpha  occ. eigenvalues --   -0.74336  -0.73055  -0.69880  -0.65193  -0.60019
 Alpha  occ. eigenvalues --   -0.57578  -0.51929  -0.50263  -0.49995  -0.46493
 Alpha  occ. eigenvalues --   -0.44586  -0.44418  -0.43413  -0.42938  -0.41696
 Alpha  occ. eigenvalues --   -0.39224  -0.37623  -0.36773  -0.35370  -0.35069
 Alpha  occ. eigenvalues --   -0.33702  -0.32899  -0.26231  -0.25170  -0.22448
 Alpha  occ. eigenvalues --   -0.12278
 Alpha virt. eigenvalues --   -0.09045   0.00189   0.03628   0.07304   0.10123
 Alpha virt. eigenvalues --    0.10718   0.12980   0.13266   0.14427   0.15675
 Alpha virt. eigenvalues --    0.16109   0.17609   0.18200   0.18973   0.20331
 Alpha virt. eigenvalues --    0.21592   0.24082   0.25413   0.27205   0.27840
 Alpha virt. eigenvalues --    0.30559   0.33976   0.35565   0.41685   0.47034
 Alpha virt. eigenvalues --    0.50534   0.50706   0.53758   0.54346   0.54746
 Alpha virt. eigenvalues --    0.56731   0.58085   0.58792   0.59881   0.61403
 Alpha virt. eigenvalues --    0.61458   0.61851   0.63212   0.64298   0.64549
 Alpha virt. eigenvalues --    0.67195   0.68341   0.69099   0.70417   0.70849
 Alpha virt. eigenvalues --    0.72034   0.75833   0.75876   0.78496   0.79671
 Alpha virt. eigenvalues --    0.82176   0.82383   0.83393   0.84324   0.85381
 Alpha virt. eigenvalues --    0.86257   0.88899   0.89624   0.91802   0.92344
 Alpha virt. eigenvalues --    0.92902   0.94160   0.94711   0.95149   0.98328
 Alpha virt. eigenvalues --    1.00178   1.02432   1.03243   1.08960   1.10339
 Alpha virt. eigenvalues --    1.12355   1.16342   1.18103   1.24176   1.25158
 Alpha virt. eigenvalues --    1.26352   1.27475   1.31292   1.33643   1.34579
 Alpha virt. eigenvalues --    1.37727   1.40194   1.40739   1.41874   1.43165
 Alpha virt. eigenvalues --    1.44230   1.45535   1.47792   1.50095   1.51684
 Alpha virt. eigenvalues --    1.57577   1.67739   1.72373   1.73600   1.74850
 Alpha virt. eigenvalues --    1.76830   1.82334   1.83948   1.86443   1.87623
 Alpha virt. eigenvalues --    1.87955   1.88496   1.92343   1.92895   1.94656
 Alpha virt. eigenvalues --    1.96707   1.97313   2.00359   2.02667   2.03418
 Alpha virt. eigenvalues --    2.04857   2.06678   2.07796   2.10292   2.15029
 Alpha virt. eigenvalues --    2.15581   2.18739   2.21252   2.24167   2.25501
 Alpha virt. eigenvalues --    2.28571   2.29280   2.30842   2.34871   2.36549
 Alpha virt. eigenvalues --    2.37026   2.37194   2.39892   2.40488   2.41210
 Alpha virt. eigenvalues --    2.43905   2.45846   2.48642   2.49136   2.50074
 Alpha virt. eigenvalues --    2.50684   2.51469   2.55489   2.56332   2.60051
 Alpha virt. eigenvalues --    2.61138   2.64517   2.65087   2.66832   2.69110
 Alpha virt. eigenvalues --    2.71158   2.71467   2.74616   2.76795   2.78695
 Alpha virt. eigenvalues --    2.82735   2.84963   2.86574   2.89356   2.92108
 Alpha virt. eigenvalues --    3.01148   3.05925   3.09897   3.11290   3.18846
 Alpha virt. eigenvalues --    3.21543   3.24372   3.26464   3.31835   3.37162
 Alpha virt. eigenvalues --    3.39010   3.41017   3.42923   3.45961   3.50701
 Alpha virt. eigenvalues --    3.51765   3.52459   3.72194   3.89040   4.02780
 Alpha virt. eigenvalues --    4.09292   4.13343   4.15913   4.19409   4.29482
 Alpha virt. eigenvalues --    4.43104   4.43869   4.59372   4.84848
  Beta  occ. eigenvalues --  -19.19294 -14.34400 -14.29916 -10.26107 -10.20007
  Beta  occ. eigenvalues --  -10.19635 -10.19205 -10.18887 -10.18822 -10.18691
  Beta  occ. eigenvalues --  -10.18573  -1.06585  -0.92879  -0.85203  -0.78195
  Beta  occ. eigenvalues --   -0.74336  -0.73055  -0.69880  -0.65193  -0.60019
  Beta  occ. eigenvalues --   -0.57578  -0.51929  -0.50263  -0.49995  -0.46493
  Beta  occ. eigenvalues --   -0.44586  -0.44418  -0.43413  -0.42938  -0.41696
  Beta  occ. eigenvalues --   -0.39224  -0.37623  -0.36773  -0.35370  -0.35069
  Beta  occ. eigenvalues --   -0.33702  -0.32899  -0.26231  -0.25170  -0.22448
  Beta  occ. eigenvalues --   -0.12278
  Beta virt. eigenvalues --   -0.09045   0.00189   0.03628   0.07304   0.10123
  Beta virt. eigenvalues --    0.10718   0.12980   0.13266   0.14427   0.15675
  Beta virt. eigenvalues --    0.16109   0.17609   0.18200   0.18973   0.20331
  Beta virt. eigenvalues --    0.21592   0.24082   0.25413   0.27205   0.27840
  Beta virt. eigenvalues --    0.30559   0.33976   0.35565   0.41685   0.47034
  Beta virt. eigenvalues --    0.50534   0.50706   0.53758   0.54346   0.54746
  Beta virt. eigenvalues --    0.56731   0.58085   0.58792   0.59881   0.61403
  Beta virt. eigenvalues --    0.61458   0.61851   0.63212   0.64298   0.64549
  Beta virt. eigenvalues --    0.67195   0.68341   0.69099   0.70417   0.70849
  Beta virt. eigenvalues --    0.72034   0.75833   0.75876   0.78496   0.79671
  Beta virt. eigenvalues --    0.82176   0.82383   0.83393   0.84324   0.85381
  Beta virt. eigenvalues --    0.86257   0.88899   0.89624   0.91802   0.92344
  Beta virt. eigenvalues --    0.92902   0.94160   0.94711   0.95149   0.98328
  Beta virt. eigenvalues --    1.00178   1.02432   1.03243   1.08960   1.10339
  Beta virt. eigenvalues --    1.12355   1.16342   1.18103   1.24176   1.25158
  Beta virt. eigenvalues --    1.26352   1.27475   1.31292   1.33643   1.34579
  Beta virt. eigenvalues --    1.37727   1.40194   1.40739   1.41874   1.43165
  Beta virt. eigenvalues --    1.44230   1.45535   1.47792   1.50095   1.51684
  Beta virt. eigenvalues --    1.57577   1.67739   1.72373   1.73600   1.74850
  Beta virt. eigenvalues --    1.76830   1.82334   1.83948   1.86443   1.87623
  Beta virt. eigenvalues --    1.87955   1.88496   1.92343   1.92895   1.94656
  Beta virt. eigenvalues --    1.96707   1.97313   2.00359   2.02667   2.03418
  Beta virt. eigenvalues --    2.04857   2.06678   2.07796   2.10292   2.15029
  Beta virt. eigenvalues --    2.15581   2.18739   2.21252   2.24167   2.25501
  Beta virt. eigenvalues --    2.28571   2.29280   2.30842   2.34871   2.36549
  Beta virt. eigenvalues --    2.37026   2.37194   2.39892   2.40488   2.41210
  Beta virt. eigenvalues --    2.43905   2.45846   2.48642   2.49136   2.50074
  Beta virt. eigenvalues --    2.50684   2.51469   2.55489   2.56332   2.60051
  Beta virt. eigenvalues --    2.61138   2.64517   2.65087   2.66832   2.69110
  Beta virt. eigenvalues --    2.71158   2.71467   2.74616   2.76795   2.78695
  Beta virt. eigenvalues --    2.82735   2.84963   2.86574   2.89356   2.92108
  Beta virt. eigenvalues --    3.01148   3.05925   3.09897   3.11290   3.18846
  Beta virt. eigenvalues --    3.21543   3.24372   3.26464   3.31835   3.37162
  Beta virt. eigenvalues --    3.39010   3.41017   3.42923   3.45961   3.50701
  Beta virt. eigenvalues --    3.51765   3.52459   3.72194   3.89040   4.02780
  Beta virt. eigenvalues --    4.09292   4.13343   4.15913   4.19409   4.29482
  Beta virt. eigenvalues --    4.43104   4.43869   4.59372   4.84848
          Condensed to atoms (all electrons):
               1          2          3          4          5          6
     1  C    4.893243   0.358765  -0.017568  -0.032438  -0.033270   0.445844
     2  C    0.358765   5.074729   0.365477   0.368599   0.366607  -0.058222
     3  H   -0.017568   0.365477   0.554566  -0.025755  -0.022396  -0.005002
     4  H   -0.032438   0.368599  -0.025755   0.579523  -0.038834  -0.000313
     5  H   -0.033270   0.366607  -0.022396  -0.038834   0.578259   0.001009
     6  C    0.445844  -0.058222  -0.005002  -0.000313   0.001009   4.784196
     7  C   -0.058908   0.007923  -0.000252  -0.000143  -0.000008   0.445244
     8  C   -0.057734  -0.012666   0.002336   0.000524   0.000147   0.491166
     9  C    0.007712  -0.000158  -0.000003   0.000002   0.000004  -0.016033
    10  H   -0.013509   0.000186  -0.000005  -0.000022   0.000009  -0.038326
    11  C    0.006983   0.000318   0.000110  -0.000001  -0.000005  -0.018521
    12  H   -0.010779   0.002073   0.004181  -0.000128  -0.000068  -0.041640
    13  C    0.000474  -0.000011   0.000002  -0.000000  -0.000000  -0.030309
    14  H   -0.000198   0.000001   0.000000  -0.000000  -0.000000   0.003404
    15  H   -0.000208   0.000005  -0.000002  -0.000000  -0.000000   0.003428
    16  H    0.000006  -0.000000  -0.000000  -0.000000  -0.000000   0.000567
    17  O    0.278789  -0.068173   0.003025  -0.000830  -0.000223  -0.048795
    18  H   -0.024682  -0.009540   0.000121   0.002814   0.001362   0.007934
    19  N    0.000733  -0.000150   0.000001  -0.000021   0.000049  -0.001443
    20  H   -0.000574   0.000039  -0.000001  -0.000001   0.000022  -0.000015
    21  N   -0.000037   0.000001  -0.000000  -0.000000   0.000000   0.000056
    22  H   -0.000004  -0.000000   0.000000  -0.000000   0.000000  -0.000003
    23  H   -0.000008   0.000000  -0.000000  -0.000000   0.000000  -0.000002
               7          8          9         10         11         12
     1  C   -0.058908  -0.057734   0.007712  -0.013509   0.006983  -0.010779
     2  C    0.007923  -0.012666  -0.000158   0.000186   0.000318   0.002073
     3  H   -0.000252   0.002336  -0.000003  -0.000005   0.000110   0.004181
     4  H   -0.000143   0.000524   0.000002  -0.000022  -0.000001  -0.000128
     5  H   -0.000008   0.000147   0.000004   0.000009  -0.000005  -0.000068
     6  C    0.445244   0.491166  -0.016033  -0.038326  -0.018521  -0.041640
     7  C    5.044202  -0.053218   0.502838   0.365785  -0.042405   0.005670
     8  C   -0.053218   4.982266  -0.045636   0.005811   0.535260   0.366683
     9  C    0.502838  -0.045636   4.862796  -0.045402  -0.028210   0.000182
    10  H    0.365785   0.005811  -0.045402   0.598744   0.000054  -0.000134
    11  C   -0.042405   0.535260  -0.028210   0.000054   4.836768  -0.039452
    12  H    0.005670   0.366683   0.000182  -0.000134  -0.039452   0.617042
    13  C   -0.043090  -0.044490   0.527919   0.004984   0.524037   0.004792
    14  H   -0.037071   0.000830   0.370382  -0.006145   0.004535   0.000016
    15  H    0.000865  -0.036818   0.004461   0.000014   0.369735  -0.006323
    16  H    0.004534   0.004850  -0.040519  -0.000154  -0.040616  -0.000174
    17  O   -0.002476   0.002881   0.000416   0.002133  -0.000057   0.000003
    18  H   -0.000495  -0.000094  -0.000005  -0.000005   0.000002  -0.000003
    19  N    0.000957   0.000016   0.000066   0.012302  -0.000000   0.000000
    20  H    0.001154  -0.000001   0.000006  -0.001314   0.000000  -0.000000
    21  N   -0.000978   0.000000  -0.000018   0.001470  -0.000000  -0.000000
    22  H    0.000007   0.000000   0.000001   0.000111  -0.000000   0.000000
    23  H    0.000076  -0.000000  -0.000000  -0.000290   0.000000  -0.000000
              13         14         15         16         17         18
     1  C    0.000474  -0.000198  -0.000208   0.000006   0.278789  -0.024682
     2  C   -0.000011   0.000001   0.000005  -0.000000  -0.068173  -0.009540
     3  H    0.000002   0.000000  -0.000002  -0.000000   0.003025   0.000121
     4  H   -0.000000  -0.000000  -0.000000  -0.000000  -0.000830   0.002814
     5  H   -0.000000  -0.000000  -0.000000  -0.000000  -0.000223   0.001362
     6  C   -0.030309   0.003404   0.003428   0.000567  -0.048795   0.007934
     7  C   -0.043090  -0.037071   0.000865   0.004534  -0.002476  -0.000495
     8  C   -0.044490   0.000830  -0.036818   0.004850   0.002881  -0.000094
     9  C    0.527919   0.370382   0.004461  -0.040519   0.000416  -0.000005
    10  H    0.004984  -0.006145   0.000014  -0.000154   0.002133  -0.000005
    11  C    0.524037   0.004535   0.369735  -0.040616  -0.000057   0.000002
    12  H    0.004792   0.000016  -0.006323  -0.000174   0.000003  -0.000003
    13  C    4.874915  -0.041861  -0.041103   0.372573  -0.000006   0.000001
    14  H   -0.041861   0.613913  -0.000186  -0.005614  -0.000000  -0.000000
    15  H   -0.041103  -0.000186   0.612548  -0.005614   0.000000  -0.000000
    16  H    0.372573  -0.005614  -0.005614   0.612336   0.000000  -0.000000
    17  O   -0.000006  -0.000000   0.000000   0.000000   8.012231   0.285093
    18  H    0.000001  -0.000000  -0.000000  -0.000000   0.285093   0.385857
    19  N   -0.000003  -0.000002  -0.000000   0.000000  -0.024002   0.011569
    20  H   -0.000002   0.000003   0.000000  -0.000000   0.004593  -0.001224
    21  N    0.000000  -0.000004  -0.000000   0.000000   0.000967  -0.000346
    22  H   -0.000000  -0.000000   0.000000   0.000000  -0.000003   0.000019
    23  H   -0.000000   0.000000   0.000000  -0.000000   0.000136  -0.000073
              19         20         21         22         23
     1  C    0.000733  -0.000574  -0.000037  -0.000004  -0.000008
     2  C   -0.000150   0.000039   0.000001  -0.000000   0.000000
     3  H    0.000001  -0.000001  -0.000000   0.000000  -0.000000
     4  H   -0.000021  -0.000001  -0.000000  -0.000000  -0.000000
     5  H    0.000049   0.000022   0.000000   0.000000   0.000000
     6  C   -0.001443  -0.000015   0.000056  -0.000003  -0.000002
     7  C    0.000957   0.001154  -0.000978   0.000007   0.000076
     8  C    0.000016  -0.000001   0.000000   0.000000  -0.000000
     9  C    0.000066   0.000006  -0.000018   0.000001  -0.000000
    10  H    0.012302  -0.001314   0.001470   0.000111  -0.000290
    11  C   -0.000000   0.000000  -0.000000  -0.000000   0.000000
    12  H    0.000000  -0.000000  -0.000000   0.000000  -0.000000
    13  C   -0.000003  -0.000002   0.000000  -0.000000  -0.000000
    14  H   -0.000002   0.000003  -0.000004  -0.000000   0.000000
    15  H   -0.000000   0.000000  -0.000000   0.000000   0.000000
    16  H    0.000000  -0.000000   0.000000   0.000000  -0.000000
    17  O   -0.024002   0.004593   0.000967  -0.000003   0.000136
    18  H    0.011569  -0.001224  -0.000346   0.000019  -0.000073
    19  N    7.138225   0.276518   0.163841  -0.035066  -0.049680
    20  H    0.276518   0.530175  -0.038031  -0.009593   0.007202
    21  N    0.163841  -0.038031   6.644830   0.328754   0.353805
    22  H   -0.035066  -0.009593   0.328754   0.488794  -0.039012
    23  H   -0.049680   0.007202   0.353805  -0.039012   0.451808
          Atomic-Atomic Spin Densities.
               1          2          3          4          5          6
     1  C    0.000000   0.000000   0.000000  -0.000000  -0.000000   0.000000
     2  C    0.000000  -0.000000   0.000000  -0.000000  -0.000000   0.000000
     3  H    0.000000   0.000000  -0.000000  -0.000000   0.000000  -0.000000
     4  H   -0.000000  -0.000000  -0.000000   0.000000  -0.000000  -0.000000
     5  H   -0.000000  -0.000000   0.000000  -0.000000   0.000000  -0.000000
     6  C    0.000000   0.000000  -0.000000  -0.000000  -0.000000  -0.000000
     7  C   -0.000000  -0.000000  -0.000000   0.000000   0.000000  -0.000000
     8  C   -0.000000  -0.000000   0.000000   0.000000   0.000000  -0.000000
     9  C   -0.000000   0.000000  -0.000000  -0.000000   0.000000   0.000000
    10  H   -0.000000  -0.000000  -0.000000  -0.000000   0.000000   0.000000
    11  C   -0.000000  -0.000000   0.000000   0.000000   0.000000  -0.000000
    12  H    0.000000   0.000000  -0.000000  -0.000000   0.000000  -0.000000
    13  C    0.000000   0.000000   0.000000  -0.000000  -0.000000   0.000000
    14  H   -0.000000   0.000000  -0.000000  -0.000000   0.000000   0.000000
    15  H   -0.000000   0.000000  -0.000000  -0.000000   0.000000   0.000000
    16  H    0.000000  -0.000000  -0.000000   0.000000   0.000000  -0.000000
    17  O   -0.000000  -0.000000   0.000000   0.000000   0.000000  -0.000000
    18  H    0.000000  -0.000000   0.000000   0.000000  -0.000000  -0.000000
    19  N   -0.000000  -0.000000  -0.000000   0.000000  -0.000000   0.000000
    20  H   -0.000000  -0.000000  -0.000000  -0.000000   0.000000  -0.000000
    21  N    0.000000  -0.000000   0.000000  -0.000000   0.000000  -0.000000
    22  H   -0.000000  -0.000000  -0.000000  -0.000000   0.000000   0.000000
    23  H   -0.000000  -0.000000  -0.000000  -0.000000   0.000000   0.000000
               7          8          9         10         11         12
     1  C   -0.000000  -0.000000  -0.000000  -0.000000  -0.000000   0.000000
     2  C   -0.000000  -0.000000   0.000000  -0.000000  -0.000000   0.000000
     3  H   -0.000000   0.000000  -0.000000  -0.000000   0.000000  -0.000000
     4  H    0.000000   0.000000  -0.000000  -0.000000   0.000000  -0.000000
     5  H    0.000000   0.000000   0.000000   0.000000   0.000000   0.000000
     6  C   -0.000000  -0.000000   0.000000   0.000000  -0.000000  -0.000000
     7  C    0.000000   0.000000   0.000000   0.000000   0.000000  -0.000000
     8  C    0.000000   0.000000   0.000000   0.000000   0.000000   0.000000
     9  C    0.000000   0.000000  -0.000000  -0.000000  -0.000000  -0.000000
    10  H    0.000000   0.000000  -0.000000  -0.000000  -0.000000  -0.000000
    11  C    0.000000   0.000000  -0.000000  -0.000000  -0.000000   0.000000
    12  H   -0.000000   0.000000  -0.000000  -0.000000   0.000000  -0.000000
    13  C   -0.000000  -0.000000  -0.000000   0.000000  -0.000000   0.000000
    14  H   -0.000000  -0.000000   0.000000  -0.000000   0.000000  -0.000000
    15  H   -0.000000  -0.000000   0.000000  -0.000000   0.000000   0.000000
    16  H    0.000000  -0.000000  -0.000000   0.000000  -0.000000   0.000000
    17  O    0.000000   0.000000   0.000000   0.000000   0.000000   0.000000
    18  H    0.000000  -0.000000   0.000000   0.000000  -0.000000   0.000000
    19  N    0.000000   0.000000  -0.000000  -0.000000   0.000000  -0.000000
    20  H    0.000000   0.000000   0.000000  -0.000000   0.000000  -0.000000
    21  N   -0.000000  -0.000000   0.000000   0.000000  -0.000000   0.000000
    22  H    0.000000   0.000000  -0.000000  -0.000000  -0.000000  -0.000000
    23  H    0.000000   0.000000  -0.000000  -0.000000   0.000000  -0.000000
              13         14         15         16         17         18
     1  C    0.000000  -0.000000  -0.000000   0.000000  -0.000000   0.000000
     2  C    0.000000   0.000000   0.000000  -0.000000  -0.000000  -0.000000
     3  H    0.000000  -0.000000  -0.000000  -0.000000   0.000000   0.000000
     4  H   -0.000000  -0.000000  -0.000000   0.000000   0.000000   0.000000
     5  H   -0.000000   0.000000   0.000000   0.000000   0.000000  -0.000000
     6  C    0.000000   0.000000   0.000000  -0.000000  -0.000000  -0.000000
     7  C   -0.000000  -0.000000  -0.000000   0.000000   0.000000   0.000000
     8  C   -0.000000  -0.000000  -0.000000  -0.000000   0.000000  -0.000000
     9  C   -0.000000   0.000000   0.000000  -0.000000   0.000000   0.000000
    10  H    0.000000  -0.000000  -0.000000   0.000000   0.000000   0.000000
    11  C   -0.000000   0.000000   0.000000  -0.000000   0.000000  -0.000000
    12  H    0.000000  -0.000000   0.000000   0.000000   0.000000   0.000000
    13  C    0.000000  -0.000000  -0.000000   0.000000  -0.000000   0.000000
    14  H   -0.000000   0.000000   0.000000   0.000000   0.000000  -0.000000
    15  H   -0.000000   0.000000  -0.000000   0.000000   0.000000   0.000000
    16  H    0.000000   0.000000   0.000000  -0.000000   0.000000   0.000000
    17  O   -0.000000   0.000000   0.000000   0.000000   0.000000  -0.000000
    18  H    0.000000  -0.000000   0.000000   0.000000  -0.000000  -0.000000
    19  N   -0.000000  -0.000000  -0.000000  -0.000000   0.000000   0.000000
    20  H   -0.000000   0.000000  -0.000000  -0.000000   0.000000  -0.000000
    21  N    0.000000  -0.000000   0.000000   0.000000   0.000000  -0.000000
    22  H   -0.000000  -0.000000  -0.000000  -0.000000   0.000000   0.000000
    23  H   -0.000000   0.000000  -0.000000  -0.000000   0.000000   0.000000
              19         20         21         22         23
     1  C   -0.000000  -0.000000   0.000000  -0.000000  -0.000000
     2  C   -0.000000  -0.000000  -0.000000  -0.000000  -0.000000
     3  H   -0.000000  -0.000000   0.000000  -0.000000  -0.000000
     4  H    0.000000  -0.000000  -0.000000  -0.000000  -0.000000
     5  H   -0.000000   0.000000   0.000000   0.000000   0.000000
     6  C    0.000000  -0.000000  -0.000000   0.000000   0.000000
     7  C    0.000000   0.000000  -0.000000   0.000000   0.000000
     8  C    0.000000   0.000000  -0.000000   0.000000   0.000000
     9  C   -0.000000   0.000000   0.000000  -0.000000  -0.000000
    10  H   -0.000000  -0.000000   0.000000  -0.000000  -0.000000
    11  C    0.000000   0.000000  -0.000000  -0.000000   0.000000
    12  H   -0.000000  -0.000000   0.000000  -0.000000  -0.000000
    13  C   -0.000000  -0.000000   0.000000  -0.000000  -0.000000
    14  H   -0.000000   0.000000  -0.000000  -0.000000   0.000000
    15  H   -0.000000  -0.000000   0.000000  -0.000000  -0.000000
    16  H   -0.000000  -0.000000   0.000000  -0.000000  -0.000000
    17  O    0.000000   0.000000   0.000000   0.000000   0.000000
    18  H    0.000000  -0.000000  -0.000000   0.000000   0.000000
    19  N   -0.000000  -0.000000   0.000000   0.000000   0.000000
    20  H   -0.000000   0.000000   0.000000  -0.000000  -0.000000
    21  N    0.000000   0.000000  -0.000000   0.000000   0.000000
    22  H    0.000000  -0.000000   0.000000  -0.000000  -0.000000
    23  H    0.000000  -0.000000   0.000000  -0.000000   0.000000
 Mulliken charges and spin densities:
               1          2
     1  C    0.257368   0.000000
     2  C   -0.395805  -0.000000
     3  H    0.141163  -0.000000
     4  H    0.147023   0.000000
     5  H    0.147336   0.000000
     6  C    0.075775  -0.000000
     7  C   -0.140214   0.000000
     8  C   -0.142114   0.000000
     9  C   -0.100802  -0.000000
    10  H    0.113704  -0.000000
    11  C   -0.108536  -0.000000
    12  H    0.098059  -0.000000
    13  C   -0.108824   0.000000
    14  H    0.097998   0.000000
    15  H    0.099198   0.000000
    16  H    0.097826  -0.000000
    17  O   -0.445702   0.000000
    18  H    0.341695   0.000000
    19  N   -0.493913  -0.000000
    20  H    0.231044   0.000000
    21  N   -0.454311  -0.000000
    22  H    0.265996  -0.000000
    23  H    0.276037  -0.000000
 Sum of Mulliken charges =  -0.00000  -0.00000
 Mulliken charges and spin densities with hydrogens summed into heavy atoms:
               1          2
     1  C    0.257368   0.000000
     2  C    0.039717   0.000000
     6  C    0.075775  -0.000000
     7  C   -0.026510   0.000000
     8  C   -0.044055   0.000000
     9  C   -0.002804  -0.000000
    11  C   -0.009338  -0.000000
    13  C   -0.010998   0.000000
    17  O   -0.104006   0.000000
    19  N   -0.262870  -0.000000
    21  N    0.087722  -0.000000
 Electronic spatial extent (au):  <R**2>=           2390.4033
 Charge=             -0.0000 electrons
 Dipole moment (field-independent basis, Debye):
    X=             -0.3415    Y=              3.2316    Z=              0.4351  Tot=              3.2786
 Quadrupole moment (field-independent basis, Debye-Ang):
   XX=            -54.5528   YY=            -52.7105   ZZ=            -65.1874
   XY=              0.1939   XZ=              1.4835   YZ=              0.1284
 Traceless Quadrupole moment (field-independent basis, Debye-Ang):
   XX=              2.9308   YY=              4.7731   ZZ=             -7.7039
   XY=              0.1939   XZ=              1.4835   YZ=              0.1284
 Octapole moment (field-independent basis, Debye-Ang**2):
  XXX=            -59.7467  YYY=             29.1607  ZZZ=              1.5804  XYY=            -12.5020
  XXY=            -18.6572  XXZ=              5.8249  XZZ=            -24.7592  YZZ=              1.5375
  YYZ=             -4.5905  XYZ=              4.0751
 Hexadecapole moment (field-independent basis, Debye-Ang**3):
 XXXX=          -1597.0189 YYYY=           -932.8628 ZZZZ=           -120.5804 XXXY=            129.4634
 XXXZ=             23.7137 YYYX=            -36.8884 YYYZ=             -1.6122 ZZZX=             -7.4386
 ZZZY=             -6.3259 XXYY=           -428.6594 XXZZ=           -324.2396 YYZZ=           -185.1544
 XXYZ=            -10.6332 YYXZ=              7.9959 ZZXY=             18.8966
 N-N= 5.711650907873D+02 E-N=-2.298547297879D+03  KE= 4.920415536650D+02
                          Isotropic Fermi Contact Couplings
        Atom                 a.u.       MegaHertz       Gauss      10(-4) cm-1
[...]
    16  H    0.000000
    17  O    6.022766   0.000000
    18  H    6.918542   1.130016   0.000000
    19  N    7.974224   2.374514   1.244498   0.000000
    20  H    7.772897   2.791816   1.787414   1.041429   0.000000
    21  N    8.694132   3.044165   2.125224   1.496673   1.888475
    22  H    9.640490   4.008741   2.998028   2.035670   2.296338
    23  H    8.995323   3.100820   2.346232   1.983227   2.716450
                   21         22         23
    21  N    0.000000
    22  H    1.041598   0.000000
    23  H    1.030630   1.567071   0.000000
 Stoichiometry    C8H12N2O
 Framework group  C1[X(C8H12N2O)]
 Deg. of freedom    63
 Full point group                 C1      NOp   1
 RotChk:  IX=0 Diff= 3.45D-04
 Largest Abelian subgroup         C1      NOp   1
 Largest concise Abelian subgroup C1      NOp   1
                         Standard orientation:                         
 ---------------------------------------------------------------------
 Center     Atomic      Atomic             Coordinates (Angstroms)
 Number     Number       Type             X           Y           Z
 ---------------------------------------------------------------------
      1          6           0       -0.504852    0.623893   -0.307730
      2          6           0       -1.016485    2.017864   -0.134693
      3          1           0       -0.455717    2.634079    0.569715
      4          1           0       -1.003402    2.522749   -1.111910
      5          1           0       -2.055658    1.907146    0.170611
      6          6           0        0.844729    0.190082   -0.119877
      7          6           0        1.161751   -1.191720   -0.180573
      8          6           0        1.892251    1.120188    0.110089
      9          6           0        2.468399   -1.619570   -0.017666
     10          1           0        0.343268   -1.889138   -0.333314
     11          6           0        3.199291    0.681124    0.270774
     12          1           0        1.674183    2.181663    0.125255
     13          6           0        3.490390   -0.684994    0.208601
     14          1           0        2.705868   -2.677210   -0.065818
     15          1           0        3.996376    1.397454    0.440100
     16          1           0        4.513894   -1.024350    0.332459
     17          8           0       -1.375955   -0.244617   -0.655172
     18          1           0       -2.331247   -0.102666   -0.068485
     19          7           0       -3.383322    0.053665    0.577639
     20          1           0       -3.140449   -0.351683    1.505691
     21          7           0       -4.177300   -1.135603    0.135746
     22          1           0       -5.124149   -1.001144    0.548451
     23          1           0       -4.403825   -0.887602   -0.838615
 ---------------------------------------------------------------------
 Rotational constants (GHZ):           2.4533003           0.5081621           0.4359241
 Leave Link  202 at Thu May 16 17:57:07 2019, MaxMem=   104857600 cpu:               0.4 elap:               0.0
 (Enter /opt/software/gaussian/g16.b01/l301.exe)
 Standard basis: 6-31G(d,p) (6D, 7F)
 Ernie: Thresh=  0.10000D-02 Tol=  0.10000D-05 Strict=F.
 There are   225 symmetry adapted cartesian basis functions of A   symmetry.
 There are   225 symmetry adapted basis functions of A   symmetry.
   225 basis functions,   392 primitive gaussians,   225 cartesian basis functions
    41 alpha electrons       41 beta electrons
       nuclear repulsion energy       576.4047066983 Hartrees.
 IExCor=  402 DFT=T Ex+Corr=B3LYP ExCW=0 ScaHFX=  0.200000
 ScaDFX=  0.800000  0.720000  1.000000  0.810000 ScalE2=  1.000000  1.000000
 IRadAn=      5 IRanWt=     -1 IRanGd=            0 ICorTp=0 IEmpDi=131
 NAtoms=   23 NActive=   23 NUniq=   23 SFac= 1.00D+00 NAtFMM=   60 NAOKFM=F Big=F
 Integral buffers will be    131072 words long.
 Raffenetti 2 integral format.
 Two-electron integral symmetry is turned on.
 R6Disp:  Grimme-D3 Dispersion energy=       -0.0157528815 Hartrees.
 Nuclear repulsion after empirical dispersion term =      576.3889538167 Hartrees.
 ------------------------------------------------------------------------------
 Polarizable Continuum Model (PCM)
 =================================
 Model                : PCM.
 Atomic radii         : UFF (Universal Force Field).
 Polarization charges : Total charges.
 Charge compensation  : None.
 Solution method      : On-the-fly selection.
 Cavity type          : Scaled VdW (van der Waals Surface) (Alpha=1.100).
 Cavity algorithm     : GePol (No added spheres)
                        Default sphere list used, NSphG=   23.
                        Lebedev-Laikov grids with approx.  5.0 points / Ang**2.
                        Smoothing algorithm: York/Karplus (Gamma=1.0000).
                        Polarization charges: spherical gaussians, with
                                              point-specific exponents (IZeta= 3).
                        Self-potential: point-specific (ISelfS= 7).
                        Self-field    : sphere-specific E.n sum rule (ISelfD= 2).
 1st derivatives      : Analytical E(r).r(x)/FMM algorithm (CHGder, D1EAlg=3).
                        Cavity 1st derivative terms included.
 Solvent              : Acetonitrile, Eps=  35.688000 Eps(inf)=   1.806874
 ------------------------------------------------------------------------------
 GePol: Number of generator spheres                  =      23
 GePol: Total number of spheres                      =      23
 GePol: Number of exposed spheres                    =      23 (100.00%)
 GePol: Number of points                             =    1840
 GePol: Average weight of points                     =       0.13
 GePol: Minimum weight of points                     =   0.79D-11
 GePol: Maximum weight of points                     =    0.20577
 GePol: Number of points with low weight             =     122
 GePol: Fraction of low-weight points (<1% of avg)   =       6.63%
 GePol: Cavity surface area                          =    241.504 Ang**2
 GePol: Cavity volume                                =    240.147 Ang**3
 Leave Link  301 at Thu May 16 17:57:08 2019, MaxMem=   104857600 cpu:               3.5 elap:               0.1
 (Enter /opt/software/gaussian/g16.b01/l302.exe)
 NPDir=0 NMtPBC=     1 NCelOv=     1 NCel=       1 NClECP=     1 NCelD=      1
         NCelK=      1 NCelE2=     1 NClLst=     1 CellRange=     0.0.
 One-electron integrals computed using PRISM.
 One-electron integral symmetry used in STVInt
 PrsmSu:  requested number of processors reduced to:  29 ShMem   1 Linda.
 NBasis=   225 RedAO= T EigKep=  4.76D-04  NBF=   225
 NBsUse=   225 1.00D-06 EigRej= -1.00D+00 NBFU=   225
 Precomputing XC quadrature grid using
 IXCGrd= 4 IRadAn=           5 IRanWt=          -1 IRanGd=           0 AccXCQ= 0.00D+00.
 Generated NRdTot=       0 NPtTot=           0 NUsed=           0 NTot=          32
 NSgBfM=   224   224   224   224   224 MxSgAt=    23 MxSgA2=    23.
 Leave Link  302 at Thu May 16 17:57:08 2019, MaxMem=   104857600 cpu:               6.6 elap:               0.2
 (Enter /opt/software/gaussian/g16.b01/l303.exe)
 DipDrv:  MaxL=1.
 Leave Link  303 at Thu May 16 17:57:08 2019, MaxMem=   104857600 cpu:               1.0 elap:               0.1
 (Enter /opt/software/gaussian/g16.b01/l401.exe)
 Initial guess from the checkpoint file:  "AH-opt-BnoH.chk"
 B after Tr=    -0.000000    0.000000   -0.000000
         Rot=    1.000000    0.000095   -0.000007   -0.000002 Ang=   0.01 deg.
 Guess basis will be translated and rotated to current coordinates.
 JPrj=2 DoOrth=T DoCkMO=T.
 Initial guess <Sx>= 0.0000 <Sy>= 0.0000 <Sz>= 0.0000 <S**2>=-0.0000 S=-0.0000
 Leave Link  401 at Thu May 16 17:57:08 2019, MaxMem=   104857600 cpu:               5.4 elap:               0.2
 (Enter /opt/software/gaussian/g16.b01/l502.exe)
 Integral symmetry usage will be decided dynamically.
 UHF open shell SCF:
 Using DIIS extrapolation, IDIIS=  1040.
 NGot=   104857600 LenX=   104746616 LenY=   104695550
 Requested convergence on RMS density matrix=1.00D-08 within 128 cycles.
 Requested convergence on MAX density matrix=1.00D-06.
 Requested convergence on             energy=1.00D-06.
 No special actions if energy rises.
 Fock matrices will be formed incrementally for  20 cycles.

 Cycle   1  Pass 1  IDiag  1:
 FoFJK:  IHMeth= 1 ICntrl=       0 DoSepK=F KAlg= 0 I1Cent=           0 FoldK=F
 IRaf= 840000000 NMat=       1 IRICut=       1 DoRegI=T DoRafI=F ISym2E= 0 IDoP0=0 IntGTp=1.
 FoFCou: FMM=F IPFlag=           0 FMFlag=      100000 FMFlg1=           0
         NFxFlg=           0 DoJE=F BraDBF=F KetDBF=F FulRan=T
         wScrn=  0.000000 ICntrl=         0 IOpCl=  1 I1Cent=           0 NGrid=           0
         NMat0=    1 NMatS0=      1 NMatT0=    0 NMatD0=    1 NMtDS0=    0 NMtDT0=    0
 Symmetry not used in FoFCou.
 Inv3:  Mode=1 IEnd=    10156800.
 Iteration    1 A*A^-1 deviation from unit magnitude is 3.55D-15 for    728.
 Iteration    1 A*A^-1 deviation from orthogonality  is 2.06D-15 for    959    491.
 Iteration    1 A^-1*A deviation from unit magnitude is 2.89D-15 for     92.
 Iteration    1 A^-1*A deviation from orthogonality  is 1.62D-15 for    979    366.
 E= -496.745428835781    
 DIIS: error= 1.72D-04 at cycle   1 NSaved=   1.
 NSaved= 1 IEnMin= 1 EnMin= -496.745428835781     IErMin= 1 ErrMin= 1.72D-04
 ErrMax= 1.72D-04  0.00D+00 EMaxC= 1.00D-01 BMatC= 2.41D-05 BMatP= 2.41D-05
 IDIUse=3 WtCom= 9.98D-01 WtEn= 1.72D-03
 Coeff-Com:  0.100D+01
 Coeff-En:   0.100D+01
 Coeff:      0.100D+01
 Gap=     1.853 Goal=   None    Shift=    0.000
 Gap=     1.853 Goal=   None    Shift=    0.000
 RMSDP=1.69D-05 MaxDP=8.50D-04              OVMax= 7.64D-04

 Cycle   2  Pass 1  IDiag  1:
 RMSU=  1.69D-05    CP:  1.00D+00
 E= -496.745438053796     Delta-E=       -0.000009218015 Rises=F Damp=F
 DIIS: error= 1.83D-05 at cycle   2 NSaved=   2.
 NSaved= 2 IEnMin= 2 EnMin= -496.745438053796     IErMin= 2 ErrMin= 1.83D-05
 ErrMax= 1.83D-05  0.00D+00 EMaxC= 1.00D-01 BMatC= 5.88D-07 BMatP= 2.41D-05
 IDIUse=1 WtCom= 1.00D+00 WtEn= 0.00D+00
 Coeff-Com: -0.263D-01 0.103D+01
 Coeff:     -0.263D-01 0.103D+01
 Gap=     0.081 Goal=   None    Shift=    0.000
 Gap=     0.081 Goal=   None    Shift=    0.000
 RMSDP=3.60D-06 MaxDP=1.38D-04 DE=-9.22D-06 OVMax= 2.31D-04

 Cycle   3  Pass 1  IDiag  1:
 RMSU=  3.47D-06    CP:  1.00D+00  1.06D+00
 E= -496.745437984159     Delta-E=        0.000000069636 Rises=F Damp=F
 DIIS: error= 2.69D-05 at cycle   3 NSaved=   3.
 NSaved= 3 IEnMin= 2 EnMin= -496.745438053796     IErMin= 2 ErrMin= 1.83D-05
 ErrMax= 2.69D-05  0.00D+00 EMaxC= 1.00D-01 BMatC= 1.18D-06 BMatP= 5.88D-07
 IDIUse=1 WtCom= 1.00D+00 WtEn= 0.00D+00
 Coeff-Com: -0.362D-01 0.628D+00 0.408D+00
 Coeff:     -0.362D-01 0.628D+00 0.408D+00
 Gap=     0.081 Goal=   None    Shift=    0.000
 Gap=     0.081 Goal=   None    Shift=    0.000
 RMSDP=2.45D-06 MaxDP=1.04D-04 DE= 6.96D-08 OVMax= 2.31D-04

 Cycle   4  Pass 1  IDiag  1:
 RMSU=  1.31D-06    CP:  1.00D+00  1.08D+00  4.18D-01
 E= -496.745438215746     Delta-E=       -0.000000231587 Rises=F Damp=F
 DIIS: error= 4.73D-06 at cycle   4 NSaved=   4.
 NSaved= 4 IEnMin= 4 EnMin= -496.745438215746     IErMin= 4 ErrMin= 4.73D-06
 ErrMax= 4.73D-06  0.00D+00 EMaxC= 1.00D-01 BMatC= 5.86D-08 BMatP= 5.88D-07
 IDIUse=1 WtCom= 1.00D+00 WtEn= 0.00D+00
 Coeff-Com: -0.141D-01 0.180D+00 0.212D+00 0.622D+00
 Coeff:     -0.141D-01 0.180D+00 0.212D+00 0.622D+00
 Gap=     0.081 Goal=   None    Shift=    0.000
 Gap=     0.081 Goal=   None    Shift=    0.000
 RMSDP=6.84D-07 MaxDP=2.53D-05 DE=-2.32D-07 OVMax= 6.29D-05

 Cycle   5  Pass 1  IDiag  1:
 RMSU=  4.16D-07    CP:  1.00D+00  1.08D+00  5.26D-01  7.03D-01
 E= -496.745438226243     Delta-E=       -0.000000010497 Rises=F Damp=F
 DIIS: error= 2.41D-06 at cycle   5 NSaved=   5.
 NSaved= 5 IEnMin= 5 EnMin= -496.745438226243     IErMin= 5 ErrMin= 2.41D-06
 ErrMax= 2.41D-06  0.00D+00 EMaxC= 1.00D-01 BMatC= 9.33D-09 BMatP= 5.86D-08
 IDIUse=1 WtCom= 1.00D+00 WtEn= 0.00D+00
 Coeff-Com: -0.538D-02 0.586D-01 0.948D-01 0.370D+00 0.482D+00
 Coeff:     -0.538D-02 0.586D-01 0.948D-01 0.370D+00 0.482D+00
 Gap=     0.081 Goal=   None    Shift=    0.000
 Gap=     0.081 Goal=   None    Shift=    0.000
 RMSDP=2.69D-07 MaxDP=9.04D-06 DE=-1.05D-08 OVMax= 2.99D-05

 Cycle   6  Pass 1  IDiag  1:
 RMSU=  1.33D-07    CP:  1.00D+00  1.09D+00  5.16D-01  8.20D-01  5.96D-01
 E= -496.745438228440     Delta-E=       -0.000000002197 Rises=F Damp=F
 DIIS: error= 5.90D-07 at cycle   6 NSaved=   6.
 NSaved= 6 IEnMin= 6 EnMin= -496.745438228440     IErMin= 6 ErrMin= 5.90D-07
 ErrMax= 5.90D-07  0.00D+00 EMaxC= 1.00D-01 BMatC= 4.03D-10 BMatP= 9.33D-09
 IDIUse=1 WtCom= 1.00D+00 WtEn= 0.00D+00
 Coeff-Com:  0.821D-04-0.597D-02 0.473D-02 0.397D-01 0.192D+00 0.769D+00
 Coeff:      0.821D-04-0.597D-02 0.473D-02 0.397D-01 0.192D+00 0.769D+00
 Gap=     0.081 Goal=   None    Shift=    0.000
 Gap=     0.081 Goal=   None    Shift=    0.000
 RMSDP=6.07D-08 MaxDP=1.38D-06 DE=-2.20D-09 OVMax= 4.20D-06

 Cycle   7  Pass 1  IDiag  1:
 RMSU=  4.36D-08    CP:  1.00D+00  1.09D+00  5.19D-01  8.33D-01  6.71D-01
                    CP:  8.87D-01
 E= -496.745438228524     Delta-E=       -0.000000000085 Rises=F Damp=F
 DIIS: error= 2.08D-07 at cycle   7 NSaved=   7.
 NSaved= 7 IEnMin= 7 EnMin= -496.745438228524     IErMin= 7 ErrMin= 2.08D-07
 ErrMax= 2.08D-07  0.00D+00 EMaxC= 1.00D-01 BMatC= 7.93D-11 BMatP= 4.03D-10
 IDIUse=1 WtCom= 1.00D+00 WtEn= 0.00D+00
 Coeff-Com:  0.357D-03-0.718D-02-0.238D-02 0.129D-02 0.936D-01 0.468D+00
 Coeff-Com:  0.447D+00
 Coeff:      0.357D-03-0.718D-02-0.238D-02 0.129D-02 0.936D-01 0.468D+00
 Coeff:      0.447D+00
 Gap=     0.081 Goal=   None    Shift=    0.000
 Gap=     0.081 Goal=   None    Shift=    0.000
 RMSDP=2.21D-08 MaxDP=8.19D-07 DE=-8.47D-11 OVMax= 1.53D-06

 Cycle   8  Pass 1  IDiag  1:
 RMSU=  1.45D-08    CP:  1.00D+00  1.09D+00  5.21D-01  8.33D-01  6.80D-01
                    CP:  9.26D-01  6.67D-01
 E= -496.745438228545     Delta-E=       -0.000000000021 Rises=F Damp=F
 DIIS: error= 3.81D-08 at cycle   8 NSaved=   8.
 NSaved= 8 IEnMin= 8 EnMin= -496.745438228545     IErMin= 8 ErrMin= 3.81D-08
 ErrMax= 3.81D-08  0.00D+00 EMaxC= 1.00D-01 BMatC= 2.73D-12 BMatP= 7.93D-11
 IDIUse=1 WtCom= 1.00D+00 WtEn= 0.00D+00
 Coeff-Com:  0.105D-03-0.174D-02-0.937D-03-0.504D-02 0.152D-01 0.735D-01
 Coeff-Com:  0.139D+00 0.780D+00
 Coeff:      0.105D-03-0.174D-02-0.937D-03-0.504D-02 0.152D-01 0.735D-01
 Coeff:      0.139D+00 0.780D+00
 Gap=     0.081 Goal=   None    Shift=    0.000
 Gap=     0.081 Goal=   None    Shift=    0.000
 RMSDP=7.72D-09 MaxDP=1.71D-07 DE=-2.06D-11 OVMax= 1.12D-06

 Error on total polarization charges =  0.00829
 SCF Done:  E(UB3LYP) =  -496.745438229     A.U. after    8 cycles
            NFock=  8  Conv=0.77D-08     -V/T= 2.0092
 <Sx>= 0.0000 <Sy>= 0.0000 <Sz>= 0.0000 <S**2>=-0.0000 S=-0.0000
 <L.S>=  0.00000000000    
 KE= 4.922063170367D+02 PE=-2.308133843862D+03 EE= 7.427931347796D+02
 Annihilation of the first spin contaminant:
 S**2 before annihilation    -0.0000,   after     0.0000
 Leave Link  502 at Thu May 16 17:57:16 2019, MaxMem=   104857600 cpu:             234.9 elap:               7.7
 (Enter /opt/software/gaussian/g16.b01/l701.exe)
 ... and contract with generalized density number  0.
 Compute integral first derivatives.
 R6Disp: Adding Grimme-D3 dispersion energy 1st derivatives to the gradient.
 PrsmSu:  requested number of processors reduced to:  30 ShMem   1 Linda.
 D1PCM: PCM CHGder 1st derivatives, ID1Alg=3 FixD1E=F DoIter=F DoCFld=F I1PDM=0.
 GePol: Maximum number of non-zero 1st derivatives   =     202
 CoulSu:  requested number of processors reduced to:  28 ShMem   1 Linda.
 CoulSu:  requested number of processors reduced to:  29 ShMem   1 Linda.
 Leave Link  701 at Thu May 16 17:57:17 2019, MaxMem=   104857600 cpu:              23.1 elap:               0.8
 (Enter /opt/software/gaussian/g16.b01/l702.exe)
 L702 exits ... SP integral derivatives will be done elsewhere.
 Leave Link  702 at Thu May 16 17:57:17 2019, MaxMem=   104857600 cpu:               0.6 elap:               0.0
 (Enter /opt/software/gaussian/g16.b01/l703.exe)
 Integral derivatives from FoFJK, PRISM(SPDF).
 Compute integral first derivatives, UseDBF=F ICtDFT=           0.
 Calling FoFJK, ICntrl=      2127 FMM=F ISym2X=0 I1Cent= 0 IOpClX= 1 NMat=1 NMatS=1 NMatT=0.
 FoFJK:  IHMeth= 1 ICntrl=    2127 DoSepK=F KAlg= 0 I1Cent=           0 FoldK=F
 IRaf=         0 NMat=       1 IRICut=       1 DoRegI=T DoRafI=F ISym2E= 0 IDoP0=0 IntGTp=1.
 FoFCou: FMM=F IPFlag=           0 FMFlag=      100000 FMFlg1=         800
         NFxFlg=           0 DoJE=F BraDBF=F KetDBF=F FulRan=T
         wScrn=  0.000000 ICntrl=      2127 IOpCl=  1 I1Cent=           0 NGrid=           0
         NMat0=    1 NMatS0=      1 NMatT0=    0 NMatD0=    1 NMtDS0=    0 NMtDT0=    0
 Symmetry not used in FoFCou.
 Leave Link  703 at Thu May 16 17:57:18 2019, MaxMem=   104857600 cpu:              46.9 elap:               1.5
 (Enter /opt/software/gaussian/g16.b01/l716.exe)
 Dipole        = 2.60719195D+00 8.95313799D-01-7.31816718D-02
 ***** Axes restored to original set *****
 -------------------------------------------------------------------
 Center     Atomic                   Forces (Hartrees/Bohr)
 Number     Number              X              Y              Z
 -------------------------------------------------------------------
      1        6          -0.015841926   -0.027282965   -0.007739776
      2        6           0.000437120    0.006576273   -0.001845850
      3        1           0.001225577   -0.001478762    0.000214493
      4        1           0.000970291   -0.000655355    0.001159139
      5        1          -0.004489727    0.003159812    0.002457413
      6        6           0.024099030    0.015505671   -0.002599776
      7        6          -0.008559325    0.001160223    0.003259242
      8        6          -0.005293636   -0.007271548   -0.001340876
      9        6           0.002775360    0.002448349   -0.000167057
     10        1           0.002300882    0.000951332   -0.001559948
     11        6           0.002655032   -0.000043312   -0.000811784
     12        1           0.000275752    0.000686137    0.001194609
     13        6          -0.000605494   -0.001344250   -0.000272977
     14        1          -0.000086581   -0.000361313    0.000342976
     15        1          -0.000226159    0.000181458    0.000027302
     16        1           0.000228245   -0.000066326    0.000105268
     17        8           0.049143801    0.038884739   -0.041935423
     18        1          -0.054622144   -0.028566723    0.051936125
     19        7           0.022650226   -0.016545230    0.014804189
     20        1          -0.005783891    0.017688937   -0.004835163
     21        7          -0.027488729   -0.003735748   -0.009153688
     22        1           0.010185959    0.003674551   -0.003043995
     23        1           0.006050338   -0.003565949   -0.000194444
 -------------------------------------------------------------------
 Cartesian Forces:  Max     0.054622144 RMS     0.015586562
 Leave Link  716 at Thu May 16 17:57:18 2019, MaxMem=   104857600 cpu:               0.7 elap:               0.0
 (Enter /opt/software/gaussian/g16.b01/l103.exe)

 GradGradGradGradGradGradGradGradGradGradGradGradGradGradGradGradGradGrad
 Berny optimization.
 Using GEDIIS/GDIIS optimizer.
 Bend failed for angle    18 -    17 -    19
 Tors failed for dihedral    18 -    17 -    19 -    20
 Tors failed for dihedral    18 -    17 -    19 -    21
 FormBX had a problem.
 Error termination via Lnk1e in /opt/software/gaussian/g16.b01/l103.exe at Thu May 16 17:57:18 2019.
 Job cpu time:       0 days  3 hours 56 minutes 48.4 seconds.
 Elapsed time:       0 days  0 hours  7 minutes 46.4 seconds.
 File lengths (MBytes):  RWF=    175 Int=      0 D2E=      0 Chk=     10 Scr=      1
