 Entering Gaussian System, Link 0=g16
 Initial command:
 /opt/software/gaussian/g16.b01/l1.exe "/scratch/rzk/Gau-13413.inp" -scrdir="/scratch/rzk/"
 Entering Link 1 = /opt/software/gaussian/g16.b01/l1.exe PID=     13445.
  
 Copyright (c) 1988-2017, Gaussian, Inc.  All Rights Reserved.
  
 This is part of the Gaussian(R) 16 program.  It is based on
 the Gaussian(R) 09 system (copyright 2009, Gaussian, Inc.),
 the Gaussian(R) 03 system (copyright 2003, Gaussian, Inc.),
 the Gaussian(R) 98 system (copyright 1998, Gaussian, Inc.),
 the Gaussian(R) 94 system (copyright 1995, Gaussian, Inc.),
 the Gaussian 92(TM) system (copyright 1992, Gaussian, Inc.),
 the Gaussian 90(TM) system (copyright 1990, Gaussian, Inc.),
 the Gaussian 88(TM) system (copyright 1988, Gaussian, Inc.),
 the Gaussian 86(TM) system (copyright 1986, Carnegie Mellon
 University), and the Gaussian 82(TM) system (copyright 1983,
 Carnegie Mellon University). Gaussian is a federally registered
 trademark of Gaussian, Inc.
  
 This software contains proprietary and confidential information,
 including trade secrets, belonging to Gaussian, Inc.
  
 This software is provided under written license and may be
 used, copied, transmitted, or stored only in accord with that
 written license.
  
 The following legend is applicable only to US Government
 contracts under FAR:
  
                    RESTRICTED RIGHTS LEGEND
  
 Use, reproduction and disclosure by the US Government is
 subject to restrictions as set forth in subparagraphs (a)
 and (c) of the Commercial Computer Software - Restricted
 Rights clause in FAR 52.227-19.
  
 Gaussian, Inc.
 340 Quinnipiac St., Bldg. 40, Wallingford CT 06492
  
  
 ---------------------------------------------------------------
 Warning -- This program may not be used in any manner that
 competes with the business of Gaussian, Inc. or will provide
 assistance to any competitor of Gaussian, Inc.  The licensee
 of this program is prohibited from giving any competitor of
 Gaussian, Inc. access to this program.  By using this program,
 the user acknowledges that Gaussian, Inc. is engaged in the
 business of creating and licensing software in the field of
 computational chemistry and represents and warrants to the
 licensee that it is not a competitor of Gaussian, Inc. and that
 it will not use this program in any manner prohibited above.
 ---------------------------------------------------------------
  

 Cite this work as:
 Gaussian 16, Revision B.01,
 M. J. Frisch, G. W. Trucks, H. B. Schlegel, G. E. Scuseria, 
 M. A. Robb, J. R. Cheeseman, G. Scalmani, V. Barone, 
 G. A. Petersson, H. Nakatsuji, X. Li, M. Caricato, A. V. Marenich, 
 J. Bloino, B. G. Janesko, R. Gomperts, B. Mennucci, H. P. Hratchian, 
 J. V. Ortiz, A. F. Izmaylov, J. L. Sonnenberg, D. Williams-Young, 
 F. Ding, F. Lipparini, F. Egidi, J. Goings, B. Peng, A. Petrone, 
 T. Henderson, D. Ranasinghe, V. G. Zakrzewski, J. Gao, N. Rega, 
 G. Zheng, W. Liang, M. Hada, M. Ehara, K. Toyota, R. Fukuda, 
 J. Hasegawa, M. Ishida, T. Nakajima, Y. Honda, O. Kitao, H. Nakai, 
 T. Vreven, K. Throssell, J. A. Montgomery, Jr., J. E. Peralta, 
 F. Ogliaro, M. J. Bearpark, J. J. Heyd, E. N. Brothers, K. N. Kudin, 
 V. N. Staroverov, T. A. Keith, R. Kobayashi, J. Normand, 
 K. Raghavachari, A. P. Rendell, J. C. Burant, S. S. Iyengar, 
 J. Tomasi, M. Cossi, J. M. Millam, M. Klene, C. Adamo, R. Cammi, 
 J. W. Ochterski, R. L. Martin, K. Morokuma, O. Farkas, 
 J. B. Foresman, and D. J. Fox, Gaussian, Inc., Wallingford CT, 2016.
 
 ******************************************
 Gaussian 16:  ES64L-G16RevB.01 20-Dec-2017
                28-May-2019 
 ******************************************
 %chk=AABH.chk
 ----------------------------------------------------------------------
 #p opt=(restart,modredundant) ub3lyp/6-31g(d,p) scrf=(iefpcm,solvent=a
 cetonitrile) guess=(mix,always) empiricaldispersion=gd3
 ----------------------------------------------------------------------
 1/18=20,19=15,26=3,35=1/3(2);
 2/9=110/2;
 99//99;
 2/9=110/2;
 3/5=1,6=6,7=101,11=2,25=1,30=1,70=2205,71=1,72=2,74=-5,116=2,124=31/1,2,3;
 4/13=-1/1;
 5/5=2,38=5,53=2/2;
 7//1,2,3,16;
 1/18=20,19=15,26=3/3(-5);
 2/9=110/2;
 6/7=2,8=2,9=2,10=2,19=2,28=1/1;
 99/9=1/99;
 Leave Link    1 at Tue May 28 00:34:59 2019, MaxMem=           0 cpu:               0.1 elap:               0.1
 (Enter /opt/software/gaussian/g16.b01/l103.exe)

 GradGradGradGradGradGradGradGradGradGradGradGradGradGradGradGradGradGrad
 Berny optimization.
 Restoring state from the checkpoint file "AABH.chk".
 ONIOM results not found on unit 2.
 Title:  Title Card Required
 Route:  #p opt=modredundant ub3lyp/6-31g(d,p) scrf=(iefpcm,solvent=acetonitrile)
  guess=(mix,always) empiricaldispersion=gd3
 FncErr=1.00D-07 GrdErr=1.00D-06 EigMax=2.50D+02 EigMin=1.00D-04
 Using GEDIIS/GDIIS optimizer.
 FormGI is forming the generalized inverse of G from B-inverse, IUseBI=4.
 Internal  Forces:  Max     0.036045313 RMS     0.003271378
 Search for a local minimum.
 Step number  21 out of a maximum of  198 on scan point    11 out of    54
 All quantities printed in internal units (Hartrees-Bohrs-Radians)
 RMS Force = .27476D-04 SwitMx=.10000D-02 MixMth= 2
 Mixed Optimization -- En-DIIS/RFO-DIIS
 Swapping is turned off.
 Update second derivatives using D2CorX and points    1    2    5    7    8
                                                      6    9   11   10   12
                                                     13   14   15   16   17
                                                     18   19   20   21
 DE= -2.22D-07 DEPred=-1.23D-07 R= 1.81D+00
 Trust test= 1.81D+00 RLast= 3.89D-03 DXMaxT set to 3.90D-01
 ITU=  0  0  0  1  1  1  1  1  1  1 -1  1  0 -1 -1  1  0  1 -1  1
 ITU=  0
     Eigenvalues ---    0.00286   0.00549   0.00741   0.00822   0.01567
     Eigenvalues ---    0.01614   0.01725   0.01863   0.01932   0.02057
     Eigenvalues ---    0.02080   0.02108   0.02131   0.02148   0.02152
     Eigenvalues ---    0.02163   0.02172   0.02176   0.02186   0.02203
     Eigenvalues ---    0.02260   0.02336   0.02379   0.02440   0.02621
     Eigenvalues ---    0.02990   0.03249   0.05003   0.06239   0.06661
     Eigenvalues ---    0.06772   0.06933   0.07436   0.08101   0.08840
     Eigenvalues ---    0.12901   0.13816   0.14286   0.15213   0.15542
     Eigenvalues ---    0.15749   0.15854   0.15934   0.15964   0.15992
     Eigenvalues ---    0.16004   0.16048   0.16055   0.16134   0.16289
     Eigenvalues ---    0.16387   0.16665   0.17277   0.19036   0.19691
     Eigenvalues ---    0.20772   0.21673   0.22058   0.22151   0.22512
     Eigenvalues ---    0.22751   0.23716   0.24040   0.25984   0.27258
     Eigenvalues ---    0.28214   0.29857   0.31759   0.33180   0.34014
     Eigenvalues ---    0.34292   0.34744   0.34823   0.35124   0.35245
     Eigenvalues ---    0.35286   0.35322   0.35350   0.35353   0.35413
     Eigenvalues ---    0.35419   0.35544   0.35726   0.35944   0.36406
     Eigenvalues ---    0.37829   0.38093   0.39092   0.41273   0.42147
     Eigenvalues ---    0.42386   0.43051   0.43683   0.44206   0.44808
     Eigenvalues ---    0.45246   0.45902   0.46451   0.47066   0.47244
     Eigenvalues ---    0.48475   0.48705   0.51795   0.55030   0.59918
     Eigenvalues ---    0.70835   1.44932   2.91576   4.64141  10.00994
     Eigenvalues ---   75.799621000.000001000.000001000.000001000.00000
     Eigenvalues --- 1000.000001000.000001000.000001000.000001000.00000
     Eigenvalues --- 1000.000001000.000001000.000001000.000001000.00000
     Eigenvalues --- 1000.000001000.000001000.000001000.000001000.00000
     Eigenvalues --- 1000.000001000.000001000.000001000.000001000.00000
     Eigenvalues --- 1000.000001000.000001000.000001000.000001000.00000
     Eigenvalues --- 1000.000001000.000001000.000001000.000001000.00000
     Eigenvalues --- 1000.000001000.000001000.000001000.000001000.00000
     Eigenvalues --- 1000.000001000.000001000.000001000.000001000.00000
     Eigenvalues --- 1000.000001000.000001000.000001000.000001000.00000
     Eigenvalues --- 1000.000001000.000001000.000001000.000001000.00000
     Eigenvalues --- 1000.000001000.000001000.000001000.000001000.00000
     Eigenvalues --- 1000.000001000.000001000.000001000.000001000.00000
     Eigenvalues --- 1000.000001000.000001000.000001000.000001000.00000
     Eigenvalues --- 1000.000001000.000001000.000001000.000001000.00000
     Eigenvalues --- 1000.000001000.000001000.00000
 En-DIIS/RFO-DIIS/Sim-DIIS IScMMF=       -3 using points:    21   20   19   18   17   16   15   14
 RFO step:  Lambda=-2.14827470D-06.
 NNeg= 0 NGDIIS= 8 SimSw=  2.50D-01 Rises=F DC= -2.22D-07 SmlDif=  1.00D-05
 NRisDI= 0 DoIntr=F SqrtH=F CThrHd= 10.0 CDAdj=  3.0
 RMS Error=  0.1562432089D-03 NUsed= 8 OKEnD=F EnDIS=F
 InvSVX:  RCond= 1.31D-08 Info=           0 Equed=N FErr=  1.13D-12 BErr=  6.99D-17
 DIIS inversion failure, remove point   8.
 InvSVX:  RCond= 1.49D-08 Info=           0 Equed=N FErr=  8.37D-13 BErr=  4.29D-17
 DIIS inversion failure, remove point   7.
 InvSVX:  RCond= 1.87D-08 Info=           0 Equed=N FErr=  6.02D-13 BErr=  8.23D-17
 DIIS inversion failure, remove point   6.
 InvSVX:  RCond= 2.55D-08 Info=           0 Equed=N FErr=  3.40D-13 BErr=  3.59D-17
 DIIS inversion failure, remove point   5.
 InvSVX:  RCond= 5.47D-08 Info=           0 Equed=N FErr=  1.88D-13 BErr=  2.85D-17
 DIIS inversion failure, remove point   4.
 InvSVX:  RCond= 4.64D-07 Info=           0 Equed=N FErr=  1.02D-14 BErr=  1.90D-17
 RFO-DIIS uses    3 points instead of    8
 DidBck=F Rises=F RFO-DIIS coefs:    1.45943   -0.41492   -0.04451    0.00000    0.00000
                  RFO-DIIS coefs:    0.00000    0.00000    0.00000
 Iteration  1 RMS(Cart)=  0.00041450 RMS(Int)=  0.00000020
 Iteration  2 RMS(Cart)=  0.00000031 RMS(Int)=  0.00000018
 Iteration  1 RMS(Cart)=  0.00000019 RMS(Int)=  0.00000000
 ITry= 1 IFail=0 DXMaxC= 1.71D-03 DCOld= 1.00D+10 DXMaxT= 3.90D-01 DXLimC= 3.00D+00 Rises=F
 Variable       Old X    -DE/DX   Delta X   Delta X   Delta X     New X
                                 (Linear)    (Quad)   (Total)
    R1        3.42285  -0.03605  -0.00000   0.00000   0.00000   3.42285
    R2        2.67119   0.00004  -0.00005  -0.00001  -0.00006   2.67113
    R3        2.88492  -0.00000  -0.00002   0.00000  -0.00002   2.88491
    R4        2.85881  -0.00003  -0.00002  -0.00005  -0.00007   2.85874
    R5        1.93157  -0.00000  -0.00000  -0.00000  -0.00001   1.93157
    R6        2.72398   0.00006   0.00014   0.00010   0.00024   2.72422
    R7        2.87701  -0.00000   0.00001  -0.00001  -0.00000   2.87701
    R8        2.85435  -0.00000  -0.00002  -0.00002  -0.00004   2.85431
    R9        3.56119   0.02232  -0.00000   0.00000   0.00000   3.56119
   R10        1.88973  -0.01440   0.00000   0.00000  -0.00000   1.88973
   R11        1.92827   0.00001  -0.00001   0.00001   0.00001   1.92828
   R12        2.68567  -0.00006   0.00013  -0.00003   0.00010   2.68577
   R13        1.93894  -0.00030  -0.00006   0.00003  -0.00003   1.93891
   R14        3.47579  -0.00011   0.00015  -0.00007   0.00008   3.47587
   R15        2.06078  -0.00000  -0.00000  -0.00001  -0.00001   2.06077
   R16        2.06312   0.00001  -0.00001   0.00001   0.00000   2.06312
   R17        2.06723  -0.00000   0.00001  -0.00002  -0.00001   2.06722
   R18        2.06742   0.00000  -0.00001  -0.00000  -0.00001   2.06741
   R19        2.06076  -0.00000   0.00000  -0.00000  -0.00000   2.06076
   R20        2.06203   0.00001   0.00002  -0.00003  -0.00000   2.06203
   R21        2.65275  -0.00000  -0.00000  -0.00000  -0.00001   2.65274
   R22        2.65349   0.00001   0.00000   0.00000   0.00001   2.65350
   R23        2.63730   0.00000   0.00001   0.00001   0.00001   2.63731
   R24        2.04674   0.00000  -0.00000  -0.00000  -0.00000   2.04674
   R25        2.63690   0.00000  -0.00001   0.00000  -0.00001   2.63689
   R26        2.04788  -0.00000  -0.00000  -0.00001  -0.00001   2.04787
   R27        2.63907  -0.00000  -0.00002  -0.00000  -0.00002   2.63905
   R28        2.05312  -0.00000  -0.00000  -0.00001  -0.00001   2.05311
   R29        2.63857   0.00000   0.00000  -0.00000   0.00000   2.63857
   R30        2.05268   0.00000   0.00000  -0.00001  -0.00001   2.05268
   R31        2.05244  -0.00000  -0.00000  -0.00000  -0.00000   2.05244
   R32        2.65603   0.00000  -0.00001   0.00000  -0.00001   2.65602
   R33        2.65213   0.00001  -0.00000   0.00002   0.00002   2.65214
   R34        2.63589   0.00001  -0.00001   0.00001  -0.00000   2.63589
   R35        2.04689  -0.00000   0.00000  -0.00001  -0.00000   2.04689
   R36        2.63720  -0.00000   0.00000  -0.00001  -0.00001   2.63719
   R37        2.04708   0.00000  -0.00001   0.00000  -0.00000   2.04707
   R38        2.63937  -0.00001   0.00001  -0.00001  -0.00000   2.63936
   R39        2.05263   0.00000  -0.00001   0.00000  -0.00001   2.05262
   R40        2.63703   0.00001  -0.00002   0.00002  -0.00001   2.63702
   R41        2.05237   0.00000   0.00000  -0.00000   0.00000   2.05237
   R42        2.05211   0.00000  -0.00000   0.00000  -0.00000   2.05211
    A1        1.92458   0.00001   0.00004   0.00000   0.00004   1.92462
    A2        1.89952  -0.00000   0.00003  -0.00002   0.00001   1.89953
    A3        1.99022   0.00002   0.00005   0.00002   0.00007   1.99030
    A4        1.92685  -0.00005  -0.00004  -0.00000  -0.00004   1.92681
    A5        1.83460   0.00002   0.00003   0.00002   0.00005   1.83465
    A6        2.00721   0.00005   0.00002  -0.00000   0.00001   2.00723
    A7        2.91765  -0.00110   0.00013   0.00004   0.00017   2.91782
    A8        1.83211  -0.00042  -0.00008   0.00004  -0.00003   1.83208
    A9        1.85046  -0.00039  -0.00006  -0.00003  -0.00009   1.85036
   A10        1.83531   0.00004  -0.00002  -0.00007  -0.00009   1.83522
   A11        1.70156  -0.00094   0.00003   0.00000   0.00004   1.70160
   A12        1.84159   0.00028  -0.00008   0.00004  -0.00003   1.84156
   A13        2.08792   0.00010   0.00006   0.00002   0.00008   2.08800
   A14        2.17906  -0.00001   0.00019  -0.00011   0.00008   2.17914
   A15        1.96862   0.00000  -0.00002   0.00001  -0.00001   1.96861
   A16        1.91967  -0.00000  -0.00003   0.00001  -0.00002   1.91965
   A17        1.90441  -0.00000   0.00004  -0.00003   0.00001   1.90442
   A18        1.87637  -0.00000   0.00003  -0.00003   0.00000   1.87637
   A19        1.89803   0.00000  -0.00001   0.00003   0.00002   1.89805
   A20        1.89528  -0.00000  -0.00000  -0.00000  -0.00000   1.89528
   A21        1.92354  -0.00000  -0.00002  -0.00001  -0.00004   1.92350
   A22        1.94159   0.00000  -0.00002  -0.00002  -0.00004   1.94155
   A23        1.92330  -0.00002   0.00003  -0.00001   0.00002   1.92332
   A24        1.90177   0.00000   0.00001  -0.00002  -0.00001   1.90176
   A25        1.90882   0.00001   0.00000   0.00004   0.00004   1.90886
   A26        1.86363   0.00001   0.00001   0.00001   0.00002   1.86365
   A27        2.09624  -0.00001  -0.00003  -0.00000  -0.00004   2.09621
   A28        2.12458   0.00001   0.00004   0.00003   0.00007   2.12465
   A29        2.06202  -0.00001  -0.00001  -0.00003  -0.00003   2.06199
   A30        2.11138   0.00000   0.00001   0.00002   0.00003   2.11140
   A31        2.07259   0.00000   0.00001   0.00000   0.00001   2.07261
   A32        2.09921  -0.00000  -0.00002  -0.00002  -0.00004   2.09917
   A33        2.11081   0.00000  -0.00000   0.00001   0.00001   2.11082
   A34        2.09685   0.00000   0.00001   0.00001   0.00002   2.09687
   A35        2.07540  -0.00001  -0.00001  -0.00002  -0.00003   2.07538
   A36        2.09961   0.00000  -0.00001   0.00000  -0.00000   2.09961
   A37        2.08766  -0.00001  -0.00001  -0.00002  -0.00003   2.08763
   A38        2.09591   0.00001   0.00001   0.00002   0.00003   2.09595
   A39        2.10030   0.00000   0.00001   0.00001   0.00002   2.10031
   A40        2.08581  -0.00000   0.00000  -0.00001  -0.00001   2.08580
   A41        2.09708   0.00000  -0.00001   0.00000  -0.00001   2.09707
   A42        2.08226  -0.00000  -0.00000  -0.00002  -0.00002   2.08224
   A43        2.10098   0.00000   0.00002   0.00002   0.00004   2.10102
   A44        2.09994  -0.00000  -0.00001  -0.00001  -0.00002   2.09992
   A45        2.10754   0.00001   0.00001   0.00004   0.00005   2.10758
   A46        2.11398  -0.00001  -0.00001  -0.00004  -0.00005   2.11393
   A47        2.06102  -0.00000  -0.00000   0.00000  -0.00000   2.06102
   A48        2.11090  -0.00000   0.00000  -0.00001  -0.00001   2.11089
   A49        2.08421  -0.00000   0.00001  -0.00002  -0.00001   2.08419
   A50        2.08807   0.00001  -0.00001   0.00003   0.00003   2.08810
   A51        2.11144   0.00000   0.00000   0.00001   0.00001   2.11145
   A52        2.09792  -0.00001  -0.00000  -0.00003  -0.00003   2.09789
   A53        2.07372   0.00001  -0.00000   0.00002   0.00002   2.07375
   A54        2.10053   0.00000   0.00000   0.00001   0.00001   2.10054
   A55        2.08597   0.00000   0.00000   0.00002   0.00002   2.08599
   A56        2.09668  -0.00001  -0.00001  -0.00003  -0.00003   2.09665
   A57        2.10082  -0.00000   0.00000  -0.00001  -0.00001   2.10081
   A58        2.08476   0.00001  -0.00002   0.00004   0.00002   2.08478
   A59        2.09760  -0.00000   0.00001  -0.00002  -0.00001   2.09759
   A60        2.08164   0.00000  -0.00001   0.00001   0.00000   2.08164
   A61        2.10080  -0.00000  -0.00001  -0.00001  -0.00001   2.10079
   A62        2.10074  -0.00000   0.00001  -0.00000   0.00001   2.10075
   A63        2.58770  -0.00078   0.00017  -0.00014   0.00003   2.58773
   A64        1.72677  -0.00132   0.00033  -0.00004   0.00029   1.72705
   A65        3.15917   0.00047  -0.00000  -0.00022  -0.00022   3.15895
   A66        3.70785  -0.00072   0.00057   0.00001   0.00059   3.70844
    D1        1.24259  -0.00002  -0.00009  -0.00016  -0.00024   1.24235
    D2       -2.84534   0.00000   0.00003  -0.00014  -0.00011  -2.84545
    D3       -3.10913   0.00001   0.00018  -0.00010   0.00008  -3.10904
    D4       -1.01462   0.00000   0.00018  -0.00011   0.00007  -1.01455
    D5        1.06268   0.00000   0.00018  -0.00012   0.00006   1.06274
    D6        1.03107  -0.00000   0.00007  -0.00009  -0.00002   1.03105
    D7        3.12557  -0.00001   0.00007  -0.00010  -0.00003   3.12554
    D8       -1.08031  -0.00001   0.00007  -0.00011  -0.00004  -1.08035
    D9        0.34789  -0.00001   0.00018   0.00004   0.00022   0.34811
   D10       -2.82230  -0.00001   0.00013   0.00005   0.00018  -2.82212
   D11        2.50449   0.00001   0.00029   0.00004   0.00034   2.50483
   D12       -0.66570   0.00001   0.00024   0.00006   0.00030  -0.66540
   D13        2.64772  -0.00007  -0.00058  -0.00010  -0.00068   2.64704
   D14       -1.46109  -0.00003  -0.00057  -0.00009  -0.00066  -1.46175
   D15        1.05757   0.00001   0.00028  -0.00002   0.00027   1.05784
   D16       -3.11420   0.00002   0.00026  -0.00005   0.00020  -3.11400
   D17       -1.05069   0.00001   0.00028  -0.00006   0.00022  -1.05047
   D18       -1.01437  -0.00001   0.00026  -0.00004   0.00022  -1.01416
   D19        1.09704  -0.00001   0.00024  -0.00008   0.00016   1.09719
   D20       -3.12263  -0.00002   0.00026  -0.00009   0.00017  -3.12246
   D21        0.51948   0.00001  -0.00019   0.00001  -0.00018   0.51931
   D22       -2.66182   0.00001  -0.00017  -0.00008  -0.00025  -2.66207
   D23        2.64227  -0.00000  -0.00020   0.00002  -0.00018   2.64209
   D24       -0.53903  -0.00001  -0.00019  -0.00006  -0.00025  -0.53928
   D25        0.96634   0.00056   0.00032   0.00014   0.00046   0.96680
   D26       -0.75687  -0.00011   0.00069   0.00012   0.00081  -0.75605
   D27        2.04700  -0.00001  -0.00020  -0.00008  -0.00028   2.04672
   D28       -1.54311  -0.00040   0.00004  -0.00013  -0.00009  -1.54320
   D29        2.81035   0.00014  -0.00043   0.00007  -0.00036   2.80999
   D30        0.28069  -0.00049  -0.00070   0.00011  -0.00058   0.28011
   D31       -1.58462  -0.00023  -0.00045  -0.00001  -0.00046  -1.58508
   D32        2.16891  -0.00086  -0.00072   0.00003  -0.00069   2.16822
   D33        3.11217  -0.00000  -0.00005   0.00002  -0.00003   3.11214
   D34       -0.03353  -0.00000  -0.00007   0.00001  -0.00006  -0.03359
   D35       -0.00184   0.00000   0.00000   0.00001   0.00001  -0.00183
   D36        3.13565   0.00000  -0.00002  -0.00000  -0.00002   3.13563
   D37       -3.11190   0.00000   0.00004  -0.00002   0.00002  -3.11187
   D38        0.01262  -0.00000   0.00005  -0.00006  -0.00001   0.01261
   D39        0.00164  -0.00000  -0.00001  -0.00001  -0.00002   0.00162
   D40        3.12615  -0.00000  -0.00000  -0.00005  -0.00005   3.12610
   D41        0.00084  -0.00000   0.00001  -0.00001   0.00000   0.00084
   D42        3.14035  -0.00000   0.00001  -0.00000   0.00000   3.14036
   D43       -3.13659   0.00000   0.00003   0.00000   0.00004  -3.13656
   D44        0.00292   0.00000   0.00003   0.00001   0.00004   0.00296
   D45       -0.00043   0.00000   0.00001   0.00001   0.00001  -0.00042
   D46        3.13852  -0.00000   0.00002  -0.00002  -0.00000   3.13852
   D47       -3.12515   0.00000  -0.00000   0.00005   0.00004  -3.12511
   D48        0.01380   0.00000   0.00000   0.00002   0.00003   0.01383
   D49        0.00042   0.00000  -0.00002   0.00001  -0.00001   0.00041
   D50        3.14087   0.00000   0.00000   0.00000   0.00001   3.14088
   D51       -3.13909  -0.00000  -0.00001   0.00000  -0.00001  -3.13910
   D52        0.00137  -0.00000   0.00001  -0.00000   0.00001   0.00138
   D53       -0.00062  -0.00000   0.00001  -0.00001   0.00000  -0.00062
   D54       -3.14108  -0.00000  -0.00001  -0.00000  -0.00002  -3.14109
   D55       -3.13955   0.00000   0.00000   0.00001   0.00001  -3.13954
   D56        0.00317   0.00000  -0.00002   0.00002  -0.00000   0.00317
   D57        3.09666  -0.00000   0.00004  -0.00005  -0.00001   3.09664
   D58       -0.04461  -0.00000  -0.00001  -0.00004  -0.00005  -0.04465
   D59       -0.00640   0.00000   0.00002   0.00003   0.00005  -0.00635
   D60        3.13552   0.00000  -0.00002   0.00005   0.00002   3.13554
   D61       -3.09586   0.00000  -0.00003   0.00003  -0.00000  -3.09586
   D62        0.03019   0.00000  -0.00004   0.00005   0.00002   0.03021
   D63        0.00705  -0.00000  -0.00001  -0.00005  -0.00007   0.00698
   D64        3.13310  -0.00000  -0.00002  -0.00003  -0.00005   3.13305
   D65        0.00164  -0.00000  -0.00001   0.00001  -0.00001   0.00163
   D66       -3.14132   0.00000  -0.00002   0.00001  -0.00001  -3.14133
   D67       -3.14028  -0.00000   0.00003  -0.00001   0.00002  -3.14026
   D68       -0.00005  -0.00000   0.00002  -0.00000   0.00002  -0.00003
   D69       -0.00294   0.00000  -0.00000   0.00004   0.00004  -0.00290
   D70        3.13635   0.00000   0.00000   0.00004   0.00004   3.13639
   D71       -3.12920   0.00000   0.00001   0.00001   0.00002  -3.12918
   D72        0.01009   0.00000   0.00001   0.00001   0.00002   0.01011
   D73        0.00264  -0.00000  -0.00000  -0.00002  -0.00002   0.00261
   D74       -3.14117  -0.00000  -0.00001   0.00001  -0.00000  -3.14117
   D75       -3.13758  -0.00000   0.00001  -0.00003  -0.00002  -3.13760
   D76        0.00180  -0.00000  -0.00000   0.00001   0.00000   0.00180
   D77       -0.00200   0.00000   0.00001   0.00000   0.00001  -0.00199
   D78       -3.14138  -0.00000   0.00002  -0.00003  -0.00001  -3.14139
   D79       -3.14127   0.00000   0.00001   0.00000   0.00001  -3.14126
   D80        0.00253  -0.00000   0.00002  -0.00003  -0.00001   0.00252
         Item               Value     Threshold  Converged?
 Maximum Force            0.000194     0.000450     YES
 RMS     Force            0.000027     0.000300     YES
 Maximum Displacement     0.001707     0.001800     YES
 RMS     Displacement     0.000415     0.001200     YES
 Predicted change in Energy=-6.807640D-08
 Optimization completed.
    -- Stationary point found.
                           ----------------------------
                           !   Optimized Parameters   !
                           ! (Angstroms and Degrees)  !
 --------------------------                            --------------------------
 ! Name  Definition              Value          Derivative Info.                !
 --------------------------------------------------------------------------------
 ! R1    R(1,3)                  1.8113         -DE/DX =   -0.036               !
 ! R2    R(1,5)                  1.4135         -DE/DX =    0.0                 !
 ! R3    R(1,11)                 1.5266         -DE/DX =    0.0                 !
 ! R4    R(1,19)                 1.5128         -DE/DX =    0.0                 !
 ! R5    R(2,8)                  1.0221         -DE/DX =    0.0                 !
 ! R6    R(3,4)                  1.4415         -DE/DX =    0.0001              !
 ! R7    R(3,15)                 1.5224         -DE/DX =    0.0                 !
 ! R8    R(3,30)                 1.5105         -DE/DX =    0.0                 !
 ! R9    R(4,10)                 1.8845         -DE/DX =    0.0223              !
 ! R10   R(5,9)                  1.0            -DE/DX =   -0.0144              !
 ! R11   R(6,7)                  1.0204         -DE/DX =    0.0                 !
 ! R12   R(6,8)                  1.4212         -DE/DX =   -0.0001              !
 ! R13   R(6,10)                 1.026          -DE/DX =   -0.0003              !
 ! R14   R(8,9)                  1.8393         -DE/DX =   -0.0001              !
 ! R15   R(11,12)                1.0905         -DE/DX =    0.0                 !
 ! R16   R(11,13)                1.0918         -DE/DX =    0.0                 !
 ! R17   R(11,14)                1.0939         -DE/DX =    0.0                 !
 ! R18   R(15,16)                1.094          -DE/DX =    0.0                 !
 ! R19   R(15,17)                1.0905         -DE/DX =    0.0                 !
 ! R20   R(15,18)                1.0912         -DE/DX =    0.0                 !
 ! R21   R(19,20)                1.4038         -DE/DX =    0.0                 !
 ! R22   R(19,21)                1.4042         -DE/DX =    0.0                 !
 ! R23   R(20,22)                1.3956         -DE/DX =    0.0                 !
 ! R24   R(20,23)                1.0831         -DE/DX =    0.0                 !
 ! R25   R(21,24)                1.3954         -DE/DX =    0.0                 !
 ! R26   R(21,25)                1.0837         -DE/DX =    0.0                 !
 ! R27   R(22,26)                1.3965         -DE/DX =    0.0                 !
 ! R28   R(22,27)                1.0865         -DE/DX =    0.0                 !
 ! R29   R(24,26)                1.3963         -DE/DX =    0.0                 !
 ! R30   R(24,28)                1.0862         -DE/DX =    0.0                 !
 ! R31   R(26,29)                1.0861         -DE/DX =    0.0                 !
 ! R32   R(30,31)                1.4055         -DE/DX =    0.0                 !
 ! R33   R(30,32)                1.4034         -DE/DX =    0.0                 !
 ! R34   R(31,33)                1.3949         -DE/DX =    0.0                 !
 ! R35   R(31,34)                1.0832         -DE/DX =    0.0                 !
 ! R36   R(32,35)                1.3955         -DE/DX =    0.0                 !
 ! R37   R(32,36)                1.0833         -DE/DX =    0.0                 !
 ! R38   R(33,37)                1.3967         -DE/DX =    0.0                 !
 ! R39   R(33,38)                1.0862         -DE/DX =    0.0                 !
 ! R40   R(35,37)                1.3955         -DE/DX =    0.0                 !
 ! R41   R(35,39)                1.0861         -DE/DX =    0.0                 !
 ! R42   R(37,40)                1.0859         -DE/DX =    0.0                 !
 ! A1    A(5,1,11)             110.2701         -DE/DX =    0.0                 !
 ! A2    A(5,1,19)             108.8342         -DE/DX =    0.0                 !
 ! A3    A(11,1,19)            114.0314         -DE/DX =    0.0                 !
 ! A4    A(4,3,15)             110.4003         -DE/DX =    0.0                 !
 ! A5    A(4,3,30)             105.1148         -DE/DX =    0.0                 !
 ! A6    A(15,3,30)            115.0048         -DE/DX =    0.0                 !
 ! A7    A(3,4,10)             167.1691         -DE/DX =   -0.0011              !
 ! A8    A(1,5,9)              104.9723         -DE/DX =   -0.0004              !
 ! A9    A(7,6,8)              106.0234         -DE/DX =   -0.0004              !
 ! A10   A(7,6,10)             105.1554         -DE/DX =    0.0                 !
 ! A11   A(8,6,10)              97.4921         -DE/DX =   -0.0009              !
 ! A12   A(2,8,6)              105.5155         -DE/DX =    0.0003              !
 ! A13   A(2,8,9)              119.629          -DE/DX =    0.0001              !
 ! A14   A(6,8,9)              124.8512         -DE/DX =    0.0                 !
 ! A15   A(1,11,12)            112.7934         -DE/DX =    0.0                 !
 ! A16   A(1,11,13)            109.9889         -DE/DX =    0.0                 !
 ! A17   A(1,11,14)            109.1149         -DE/DX =    0.0                 !
 ! A18   A(12,11,13)           107.5079         -DE/DX =    0.0                 !
 ! A19   A(12,11,14)           108.7493         -DE/DX =    0.0                 !
 ! A20   A(13,11,14)           108.5916         -DE/DX =    0.0                 !
 ! A21   A(3,15,16)            110.2105         -DE/DX =    0.0                 !
 ! A22   A(3,15,17)            111.2451         -DE/DX =    0.0                 !
 ! A23   A(3,15,18)            110.197          -DE/DX =    0.0                 !
 ! A24   A(16,15,17)           108.9636         -DE/DX =    0.0                 !
 ! A25   A(16,15,18)           109.3673         -DE/DX =    0.0                 !
 ! A26   A(17,15,18)           106.7779         -DE/DX =    0.0                 !
 ! A27   A(1,19,20)            120.1058         -DE/DX =    0.0                 !
 ! A28   A(1,19,21)            121.7297         -DE/DX =    0.0                 !
 ! A29   A(20,19,21)           118.1449         -DE/DX =    0.0                 !
 ! A30   A(19,20,22)           120.973          -DE/DX =    0.0                 !
 ! A31   A(19,20,23)           118.7509         -DE/DX =    0.0                 !
 ! A32   A(22,20,23)           120.2757         -DE/DX =    0.0                 !
 ! A33   A(19,21,24)           120.9404         -DE/DX =    0.0                 !
 ! A34   A(19,21,25)           120.1406         -DE/DX =    0.0                 !
 ! A35   A(24,21,25)           118.9119         -DE/DX =    0.0                 !
 ! A36   A(20,22,26)           120.2988         -DE/DX =    0.0                 !
 ! A37   A(20,22,27)           119.6141         -DE/DX =    0.0                 !
 ! A38   A(26,22,27)           120.087          -DE/DX =    0.0                 !
 ! A39   A(21,24,26)           120.3381         -DE/DX =    0.0                 !
 ! A40   A(21,24,28)           119.5081         -DE/DX =    0.0                 !
 ! A41   A(26,24,28)           120.1537         -DE/DX =    0.0                 !
 ! A42   A(22,26,24)           119.3047         -DE/DX =    0.0                 !
 ! A43   A(22,26,29)           120.3774         -DE/DX =    0.0                 !
 ! A44   A(24,26,29)           120.3178         -DE/DX =    0.0                 !
 ! A45   A(3,30,31)            120.7529         -DE/DX =    0.0                 !
 ! A46   A(3,30,32)            121.1219         -DE/DX =    0.0                 !
 ! A47   A(31,30,32)           118.0876         -DE/DX =    0.0                 !
 ! A48   A(30,31,33)           120.9458         -DE/DX =    0.0                 !
 ! A49   A(30,31,34)           119.4164         -DE/DX =    0.0                 !
 ! A50   A(33,31,34)           119.6378         -DE/DX =    0.0                 !
 ! A51   A(30,32,35)           120.9765         -DE/DX =    0.0                 !
 ! A52   A(30,32,36)           120.202          -DE/DX =    0.0                 !
 ! A53   A(35,32,36)           118.8156         -DE/DX =    0.0                 !
 ! A54   A(31,33,37)           120.3517         -DE/DX =    0.0                 !
 ! A55   A(31,33,38)           119.5172         -DE/DX =    0.0                 !
 ! A56   A(37,33,38)           120.1311         -DE/DX =    0.0                 !
 ! A57   A(32,35,37)           120.3681         -DE/DX =    0.0                 !
 ! A58   A(32,35,39)           119.448          -DE/DX =    0.0                 !
 ! A59   A(37,35,39)           120.1838         -DE/DX =    0.0                 !
 ! A60   A(33,37,35)           119.269          -DE/DX =    0.0                 !
 ! A61   A(33,37,40)           120.3671         -DE/DX =    0.0                 !
 ! A62   A(35,37,40)           120.3638         -DE/DX =    0.0                 !
 ! A63   L(5,9,8,3,-1)         148.2642         -DE/DX =   -0.0008              !
 ! A64   L(4,10,6,5,-1)         98.9364         -DE/DX =   -0.0013              !
 ! A65   L(5,9,8,3,-2)         181.0071         -DE/DX =    0.0005              !
 ! A66   L(4,10,6,5,-2)        212.4441         -DE/DX =   -0.0007              !
 ! D1    D(11,1,5,9)            71.1954         -DE/DX =    0.0                 !
 ! D2    D(19,1,5,9)          -163.026          -DE/DX =    0.0                 !
 ! D3    D(5,1,11,12)         -178.1398         -DE/DX =    0.0                 !
 ! D4    D(5,1,11,13)          -58.1335         -DE/DX =    0.0                 !
 ! D5    D(5,1,11,14)           60.8869         -DE/DX =    0.0                 !
 ! D6    D(19,1,11,12)          59.0759         -DE/DX =    0.0                 !
 ! D7    D(19,1,11,13)         179.0822         -DE/DX =    0.0                 !
 ! D8    D(19,1,11,14)         -61.8974         -DE/DX =    0.0                 !
 ! D9    D(5,1,19,20)           19.9326         -DE/DX =    0.0                 !
 ! D10   D(5,1,19,21)         -161.7059         -DE/DX =    0.0                 !
 ! D11   D(11,1,19,20)         143.4969         -DE/DX =    0.0                 !
 ! D12   D(11,1,19,21)         -38.1416         -DE/DX =    0.0                 !
 ! D13   D(15,3,4,10)          151.7032         -DE/DX =   -0.0001              !
 ! D14   D(30,3,4,10)          -83.7144         -DE/DX =    0.0                 !
 ! D15   D(4,3,15,16)           60.5943         -DE/DX =    0.0                 !
 ! D16   D(4,3,15,17)         -178.4307         -DE/DX =    0.0                 !
 ! D17   D(4,3,15,18)          -60.2001         -DE/DX =    0.0                 !
 ! D18   D(30,3,15,16)         -58.1194         -DE/DX =    0.0                 !
 ! D19   D(30,3,15,17)          62.8556         -DE/DX =    0.0                 !
 ! D20   D(30,3,15,18)        -178.9138         -DE/DX =    0.0                 !
 ! D21   D(4,3,30,31)           29.7643         -DE/DX =    0.0                 !
 ! D22   D(4,3,30,32)         -152.5109         -DE/DX =    0.0                 !
 ! D23   D(15,3,30,31)         151.3912         -DE/DX =    0.0                 !
 ! D24   D(15,3,30,32)         -30.884          -DE/DX =    0.0                 !
 ! D25   D(3,4,6,7)             55.3672         -DE/DX =    0.0006              !
 ! D26   D(3,4,6,8)            -43.3654         -DE/DX =   -0.0001              !
 ! D27   D(1,5,8,2)            117.2844         -DE/DX =    0.0                 !
 ! D28   D(1,5,8,6)            -88.4136         -DE/DX =   -0.0004              !
 ! D29   D(7,6,8,2)            161.0211         -DE/DX =    0.0001              !
 ! D30   D(7,6,8,9)             16.0826         -DE/DX =   -0.0005              !
 ! D31   D(10,6,8,2)           -90.7921         -DE/DX =   -0.0002              !
 ! D32   D(10,6,8,9)           124.2694         -DE/DX =   -0.0009              !
 ! D33   D(1,19,20,22)         178.3139         -DE/DX =    0.0                 !
 ! D34   D(1,19,20,23)          -1.9211         -DE/DX =    0.0                 !
 ! D35   D(21,19,20,22)         -0.1056         -DE/DX =    0.0                 !
 ! D36   D(21,19,20,23)        179.6594         -DE/DX =    0.0                 !
 ! D37   D(1,19,21,24)        -178.2985         -DE/DX =    0.0                 !
 ! D38   D(1,19,21,25)           0.7229         -DE/DX =    0.0                 !
 ! D39   D(20,19,21,24)          0.094          -DE/DX =    0.0                 !
 ! D40   D(20,19,21,25)        179.1154         -DE/DX =    0.0                 !
 ! D41   D(19,20,22,26)          0.048          -DE/DX =    0.0                 !
 ! D42   D(19,20,22,27)        179.929          -DE/DX =    0.0                 !
 ! D43   D(23,20,22,26)       -179.7135         -DE/DX =    0.0                 !
 ! D44   D(23,20,22,27)          0.1676         -DE/DX =    0.0                 !
 ! D45   D(19,21,24,26)         -0.0247         -DE/DX =    0.0                 !
 ! D46   D(19,21,24,28)        179.8241         -DE/DX =    0.0                 !
 ! D47   D(25,21,24,26)       -179.0579         -DE/DX =    0.0                 !
 ! D48   D(25,21,24,28)          0.7909         -DE/DX =    0.0                 !
 ! D49   D(20,22,26,24)          0.0239         -DE/DX =    0.0                 !
 ! D50   D(20,22,26,29)        179.9589         -DE/DX =    0.0                 !
 ! D51   D(27,22,26,24)       -179.8566         -DE/DX =    0.0                 !
 ! D52   D(27,22,26,29)          0.0784         -DE/DX =    0.0                 !
 ! D53   D(21,24,26,22)         -0.0354         -DE/DX =    0.0                 !
 ! D54   D(21,24,26,29)       -179.9704         -DE/DX =    0.0                 !
 ! D55   D(28,24,26,22)       -179.8832         -DE/DX =    0.0                 !
 ! D56   D(28,24,26,29)          0.1818         -DE/DX =    0.0                 !
 ! D57   D(3,30,31,33)         177.4254         -DE/DX =    0.0                 !
 ! D58   D(3,30,31,34)          -2.5558         -DE/DX =    0.0                 !
 ! D59   D(32,30,31,33)         -0.3669         -DE/DX =    0.0                 !
 ! D60   D(32,30,31,34)        179.6519         -DE/DX =    0.0                 !
 ! D61   D(3,30,32,35)        -177.3798         -DE/DX =    0.0                 !
 ! D62   D(3,30,32,36)           1.7299         -DE/DX =    0.0                 !
 ! D63   D(31,30,32,35)          0.404          -DE/DX =    0.0                 !
 ! D64   D(31,30,32,36)        179.5136         -DE/DX =    0.0                 !
 ! D65   D(30,31,33,37)          0.0939         -DE/DX =    0.0                 !
 ! D66   D(30,31,33,38)       -179.9842         -DE/DX =    0.0                 !
 ! D67   D(34,31,33,37)       -179.925          -DE/DX =    0.0                 !
 ! D68   D(34,31,33,38)         -0.0031         -DE/DX =    0.0                 !
 ! D69   D(30,32,35,37)         -0.1684         -DE/DX =    0.0                 !
 ! D70   D(30,32,35,39)        179.6997         -DE/DX =    0.0                 !
 ! D71   D(36,32,35,37)       -179.2902         -DE/DX =    0.0                 !
 ! D72   D(36,32,35,39)          0.5779         -DE/DX =    0.0                 !
 ! D73   D(31,33,37,35)          0.1511         -DE/DX =    0.0                 !
 ! D74   D(31,33,37,40)       -179.9757         -DE/DX =    0.0                 !
 ! D75   D(38,33,37,35)       -179.7703         -DE/DX =    0.0                 !
 ! D76   D(38,33,37,40)          0.1029         -DE/DX =    0.0                 !
 ! D77   D(32,35,37,33)         -0.1145         -DE/DX =    0.0                 !
 ! D78   D(32,35,37,40)       -179.9877         -DE/DX =    0.0                 !
 ! D79   D(39,35,37,33)       -179.9816         -DE/DX =    0.0                 !
 ! D80   D(39,35,37,40)          0.1452         -DE/DX =    0.0                 !
 --------------------------------------------------------------------------------
 Lowest energy point so far.  Saving SCF results.
 Iteration  1 RMS(Cart)=  0.15631659 RMS(Int)=  0.01647312
 Iteration  2 RMS(Cart)=  0.18740675 RMS(Int)=  0.00553856
 Iteration  3 RMS(Cart)=  0.09539424 RMS(Int)=  0.00392187
 New curvilinear step failed, DQL= 5.27D-02 SP=-1.60D-01.
 RedCar failed.
 Error termination via Lnk1e in /opt/software/gaussian/g16.b01/l103.exe at Tue May 28 00:34:59 2019.
 Job cpu time:       0 days  0 hours  0 minutes  0.2 seconds.
 Elapsed time:       0 days  0 hours  0 minutes  0.3 seconds.
 File lengths (MBytes):  RWF=     41 Int=      0 D2E=      0 Chk=     46 Scr=      1
