 Entering Gaussian System, Link 0=g16
 Initial command:
 /opt/software/gaussian/g16.b01/l1.exe "/localscratch/rzk.14592660.0/Gau-7307.inp" -scrdir="/localscratch/rzk.14592660.0/"
 Entering Link 1 = /opt/software/gaussian/g16.b01/l1.exe PID=      7308.
  
 Copyright (c) 1988-2017, Gaussian, Inc.  All Rights Reserved.
  
 This is part of the Gaussian(R) 16 program.  It is based on
 the Gaussian(R) 09 system (copyright 2009, Gaussian, Inc.),
 the Gaussian(R) 03 system (copyright 2003, Gaussian, Inc.),
 the Gaussian(R) 98 system (copyright 1998, Gaussian, Inc.),
 the Gaussian(R) 94 system (copyright 1995, Gaussian, Inc.),
 the Gaussian 92(TM) system (copyright 1992, Gaussian, Inc.),
 the Gaussian 90(TM) system (copyright 1990, Gaussian, Inc.),
 the Gaussian 88(TM) system (copyright 1988, Gaussian, Inc.),
 the Gaussian 86(TM) system (copyright 1986, Carnegie Mellon
 University), and the Gaussian 82(TM) system (copyright 1983,
 Carnegie Mellon University). Gaussian is a federally registered
 trademark of Gaussian, Inc.
  
 This software contains proprietary and confidential information,
 including trade secrets, belonging to Gaussian, Inc.
  
 This software is provided under written license and may be
 used, copied, transmitted, or stored only in accord with that
 written license.
  
 The following legend is applicable only to US Government
 contracts under FAR:
  
                    RESTRICTED RIGHTS LEGEND
  
 Use, reproduction and disclosure by the US Government is
 subject to restrictions as set forth in subparagraphs (a)
 and (c) of the Commercial Computer Software - Restricted
 Rights clause in FAR 52.227-19.
  
 Gaussian, Inc.
 340 Quinnipiac St., Bldg. 40, Wallingford CT 06492
  
  
 ---------------------------------------------------------------
 Warning -- This program may not be used in any manner that
 competes with the business of Gaussian, Inc. or will provide
 assistance to any competitor of Gaussian, Inc.  The licensee
 of this program is prohibited from giving any competitor of
 Gaussian, Inc. access to this program.  By using this program,
 the user acknowledges that Gaussian, Inc. is engaged in the
 business of creating and licensing software in the field of
 computational chemistry and represents and warrants to the
 licensee that it is not a competitor of Gaussian, Inc. and that
 it will not use this program in any manner prohibited above.
 ---------------------------------------------------------------
  

 Cite this work as:
 Gaussian 16, Revision B.01,
 M. J. Frisch, G. W. Trucks, H. B. Schlegel, G. E. Scuseria, 
 M. A. Robb, J. R. Cheeseman, G. Scalmani, V. Barone, 
 G. A. Petersson, H. Nakatsuji, X. Li, M. Caricato, A. V. Marenich, 
 J. Bloino, B. G. Janesko, R. Gomperts, B. Mennucci, H. P. Hratchian, 
 J. V. Ortiz, A. F. Izmaylov, J. L. Sonnenberg, D. Williams-Young, 
 F. Ding, F. Lipparini, F. Egidi, J. Goings, B. Peng, A. Petrone, 
 T. Henderson, D. Ranasinghe, V. G. Zakrzewski, J. Gao, N. Rega, 
 G. Zheng, W. Liang, M. Hada, M. Ehara, K. Toyota, R. Fukuda, 
 J. Hasegawa, M. Ishida, T. Nakajima, Y. Honda, O. Kitao, H. Nakai, 
 T. Vreven, K. Throssell, J. A. Montgomery, Jr., J. E. Peralta, 
 F. Ogliaro, M. J. Bearpark, J. J. Heyd, E. N. Brothers, K. N. Kudin, 
 V. N. Staroverov, T. A. Keith, R. Kobayashi, J. Normand, 
 K. Raghavachari, A. P. Rendell, J. C. Burant, S. S. Iyengar, 
 J. Tomasi, M. Cossi, J. M. Millam, M. Klene, C. Adamo, R. Cammi, 
 J. W. Ochterski, R. L. Martin, K. Morokuma, O. Farkas, 
 J. B. Foresman, and D. J. Fox, Gaussian, Inc., Wallingford CT, 2016.
 
 ******************************************
 Gaussian 16:  ES64L-G16RevB.01 20-Dec-2017
                10-May-2019 
 ******************************************
 %NProcShared=32
 Will use up to   32 processors via shared memory.
 %chk=AH-Opt-State-12.chk
 ----------------------------------------------------------------------
 #p opt td=(50-50,nstates=12,root=12) ub3lyp/6-31g(d,p) scrf=(iefpcm,so
 lvent=acetonitrile) guess=(core,mix,always) empiricaldispersion=gd3
 ----------------------------------------------------------------------
 1/18=20,19=15,26=3,38=1/1,3;
 2/9=110,12=2,17=6,18=5,40=1/2;
 3/5=1,6=6,7=101,11=2,25=1,30=1,70=2201,71=1,72=2,74=-5,116=2,124=31/1,2,3,8;
 4/5=2,13=-1/1;
 5/5=2,38=5,53=2/2;
 8/6=1,10=2,107=12,108=12/1;
 9/8=12,15=2,41=12,42=1,48=2,70=2/14;
 10/5=4,28=12/2;
 6/7=2,8=2,9=2,10=2/1;
 7/12=6,13=5,14=12/1,2,3,16;
 1/18=20,19=15,26=3/3(2);
 2/9=110/2;
 99//99;
 2/9=110/2;
 3/5=1,6=6,7=101,11=2,25=1,30=1,70=2205,71=1,72=2,74=-5,116=2,124=31/1,2,3,8;
 4/5=2,13=-1/1;
 5/5=2,38=5,53=2/2;
 8/6=1,10=2,107=12,108=12/1;
 9/8=12,15=2,41=12,42=1,48=2,49=4,70=2/14;
 10/5=4,28=12/2;
 7/12=6,13=5,14=12/1,2,3,16;
 1/18=20,19=15,26=3/3(-8);
 2/9=110/2;
 6/7=2,8=2,9=2,10=2/1;
 99/9=10/99;
 Leave Link    1 at Fri May 10 12:32:57 2019, MaxMem=           0 cpu:               2.4 elap:               0.1
 (Enter /opt/software/gaussian/g16.b01/l101.exe)
 -------------------
 Title Card Required
 -------------------
 Symbolic Z-matrix:
 Charge =  0 Multiplicity = 1
 C                    -1.69731  -0.2014   -0.00002 
 O                    -2.21791  -1.31224  -0.00003 
 C                    -2.55327   1.04945  -0.00002 
 H                    -2.34332   1.66352   0.88201 
 H                    -2.34287   1.66396  -0.88163 
 H                    -3.60462   0.76106  -0.0004 
 C                    -0.20697  -0.05671   0.00006 
 C                     0.57802  -1.22203   0.00005 
 C                     0.42835   1.19547   0.00008 
 C                     1.96697  -1.13917  0. 
 H                     0.07595  -2.18349   0. 
 C                     1.82098   1.27802  0. 
 H                    -0.15524   2.10952  -0.00004 
 C                     2.59142   0.1129   -0.00003 
 H                     2.56501  -2.04535  -0.00008 
 H                     2.30385   2.25026  -0.00014 
 H                     3.6753    0.17925  -0.00013 
 
 ITRead=  0  0  0  0  0  0  0  0  0  0  0  0  0  0  0  0  0
 MicOpt= -1 -1 -1 -1 -1 -1 -1 -1 -1 -1 -1 -1 -1 -1 -1 -1 -1
 NAtoms=     17 NQM=       17 NQMF=       0 NMMI=      0 NMMIF=      0
                NMic=       0 NMicF=      0.
                    Isotopes and Nuclear Properties:
 (Nuclear quadrupole moments (NQMom) in fm**2, nuclear magnetic moments (NMagM)
  in nuclear magnetons)

  Atom         1           2           3           4           5           6           7           8           9          10
 IAtWgt=          12          16          12           1           1           1          12          12          12          12
 AtmWgt=  12.0000000  15.9949146  12.0000000   1.0078250   1.0078250   1.0078250  12.0000000  12.0000000  12.0000000  12.0000000
 NucSpn=           0           0           0           1           1           1           0           0           0           0
 AtZEff=  -0.0000000  -0.0000000  -0.0000000  -0.0000000  -0.0000000  -0.0000000  -0.0000000  -0.0000000  -0.0000000  -0.0000000
 NQMom=    0.0000000   0.0000000   0.0000000   0.0000000   0.0000000   0.0000000   0.0000000   0.0000000   0.0000000   0.0000000
 NMagM=    0.0000000   0.0000000   0.0000000   2.7928460   2.7928460   2.7928460   0.0000000   0.0000000   0.0000000   0.0000000
 AtZNuc=   6.0000000   8.0000000   6.0000000   1.0000000   1.0000000   1.0000000   6.0000000   6.0000000   6.0000000   6.0000000

  Atom        11          12          13          14          15          16          17
 IAtWgt=           1          12           1          12           1           1           1
 AtmWgt=   1.0078250  12.0000000   1.0078250  12.0000000   1.0078250   1.0078250   1.0078250
 NucSpn=           1           0           1           0           1           1           1
 AtZEff=  -0.0000000  -0.0000000  -0.0000000  -0.0000000  -0.0000000  -0.0000000  -0.0000000
 NQMom=    0.0000000   0.0000000   0.0000000   0.0000000   0.0000000   0.0000000   0.0000000
 NMagM=    2.7928460   0.0000000   2.7928460   0.0000000   2.7928460   2.7928460   2.7928460
 AtZNuc=   1.0000000   6.0000000   1.0000000   6.0000000   1.0000000   1.0000000   1.0000000
 Leave Link  101 at Fri May 10 12:32:57 2019, MaxMem=   104857600 cpu:               4.7 elap:               0.2
 (Enter /opt/software/gaussian/g16.b01/l103.exe)

 GradGradGradGradGradGradGradGradGradGradGradGradGradGradGradGradGradGrad
 Berny optimization.
 Initialization pass.
                           ----------------------------
                           !    Initial Parameters    !
                           ! (Angstroms and Degrees)  !
 --------------------------                            --------------------------
 ! Name  Definition              Value          Derivative Info.                !
 --------------------------------------------------------------------------------
 ! R1    R(1,2)                  1.2268         estimate D2E/DX2                !
 ! R2    R(1,3)                  1.5157         estimate D2E/DX2                !
 ! R3    R(1,7)                  1.4973         estimate D2E/DX2                !
 ! R4    R(3,4)                  1.0951         estimate D2E/DX2                !
 ! R5    R(3,5)                  1.095          estimate D2E/DX2                !
 ! R6    R(3,6)                  1.0902         estimate D2E/DX2                !
 ! R7    R(7,8)                  1.4051         estimate D2E/DX2                !
 ! R8    R(7,9)                  1.4041         estimate D2E/DX2                !
 ! R9    R(8,10)                 1.3914         estimate D2E/DX2                !
 ! R10   R(8,11)                 1.0847         estimate D2E/DX2                !
 ! R11   R(9,12)                 1.3951         estimate D2E/DX2                !
 ! R12   R(9,13)                 1.0845         estimate D2E/DX2                !
 ! R13   R(10,14)                1.3991         estimate D2E/DX2                !
 ! R14   R(10,15)                1.0857         estimate D2E/DX2                !
 ! R15   R(12,14)                1.3968         estimate D2E/DX2                !
 ! R16   R(12,16)                1.0856         estimate D2E/DX2                !
 ! R17   R(14,17)                1.0859         estimate D2E/DX2                !
 ! A1    A(2,1,3)              120.5057         estimate D2E/DX2                !
 ! A2    A(2,1,7)              120.6555         estimate D2E/DX2                !
 ! A3    A(3,1,7)              118.8388         estimate D2E/DX2                !
 ! A4    A(1,3,4)              110.7628         estimate D2E/DX2                !
 ! A5    A(1,3,5)              110.7696         estimate D2E/DX2                !
 ! A6    A(1,3,6)              109.0446         estimate D2E/DX2                !
 ! A7    A(4,3,5)              107.2746         estimate D2E/DX2                !
 ! A8    A(4,3,6)              109.4827         estimate D2E/DX2                !
 ! A9    A(5,3,6)              109.4796         estimate D2E/DX2                !
 ! A10   A(1,7,8)              118.42           estimate D2E/DX2                !
 ! A11   A(1,7,9)              122.4471         estimate D2E/DX2                !
 ! A12   A(8,7,9)              119.1329         estimate D2E/DX2                !
 ! A13   A(7,8,10)             120.5516         estimate D2E/DX2                !
 ! A14   A(7,8,11)             118.4615         estimate D2E/DX2                !
 ! A15   A(10,8,11)            120.9869         estimate D2E/DX2                !
 ! A16   A(7,9,12)             120.294          estimate D2E/DX2                !
 ! A17   A(7,9,13)             120.5415         estimate D2E/DX2                !
 ! A18   A(12,9,13)            119.1645         estimate D2E/DX2                !
 ! A19   A(8,10,14)            119.9207         estimate D2E/DX2                !
 ! A20   A(8,10,15)            120.0096         estimate D2E/DX2                !
 ! A21   A(14,10,15)           120.0697         estimate D2E/DX2                !
 ! A22   A(9,12,14)            120.0826         estimate D2E/DX2                !
 ! A23   A(9,12,16)            119.8039         estimate D2E/DX2                !
 ! A24   A(14,12,16)           120.1135         estimate D2E/DX2                !
 ! A25   A(10,14,12)           120.0182         estimate D2E/DX2                !
 ! A26   A(10,14,17)           120.0103         estimate D2E/DX2                !
 ! A27   A(12,14,17)           119.9715         estimate D2E/DX2                !
 ! D1    D(2,1,3,4)            120.5247         estimate D2E/DX2                !
 ! D2    D(2,1,3,5)           -120.5655         estimate D2E/DX2                !
 ! D3    D(2,1,3,6)             -0.0202         estimate D2E/DX2                !
 ! D4    D(7,1,3,4)            -59.4729         estimate D2E/DX2                !
 ! D5    D(7,1,3,5)             59.437          estimate D2E/DX2                !
 ! D6    D(7,1,3,6)            179.9823         estimate D2E/DX2                !
 ! D7    D(2,1,7,8)              0.003          estimate D2E/DX2                !
 ! D8    D(2,1,7,9)           -179.9999         estimate D2E/DX2                !
 ! D9    D(3,1,7,8)           -179.9994         estimate D2E/DX2                !
 ! D10   D(3,1,7,9)             -0.0023         estimate D2E/DX2                !
 ! D11   D(1,7,8,10)           179.9943         estimate D2E/DX2                !
 ! D12   D(1,7,8,11)            -0.0009         estimate D2E/DX2                !
 ! D13   D(9,7,8,10)            -0.003          estimate D2E/DX2                !
 ! D14   D(9,7,8,11)          -179.9981         estimate D2E/DX2                !
 ! D15   D(1,7,9,12)          -179.993          estimate D2E/DX2                !
 ! D16   D(1,7,9,13)            -0.0045         estimate D2E/DX2                !
 ! D17   D(8,7,9,12)             0.0041         estimate D2E/DX2                !
 ! D18   D(8,7,9,13)           179.9926         estimate D2E/DX2                !
 ! D19   D(7,8,10,14)            0.0009         estimate D2E/DX2                !
 ! D20   D(7,8,10,15)         -179.9956         estimate D2E/DX2                !
 ! D21   D(11,8,10,14)         179.9959         estimate D2E/DX2                !
 ! D22   D(11,8,10,15)          -0.0005         estimate D2E/DX2                !
 ! D23   D(7,9,12,14)           -0.0033         estimate D2E/DX2                !
 ! D24   D(7,9,12,16)          179.9907         estimate D2E/DX2                !
 ! D25   D(13,9,12,14)        -179.9919         estimate D2E/DX2                !
 ! D26   D(13,9,12,16)           0.002          estimate D2E/DX2                !
 ! D27   D(8,10,14,12)           0.0            estimate D2E/DX2                !
 ! D28   D(8,10,14,17)        -179.9966         estimate D2E/DX2                !
 ! D29   D(15,10,14,12)        179.9965         estimate D2E/DX2                !
 ! D30   D(15,10,14,17)         -0.0001         estimate D2E/DX2                !
 ! D31   D(9,12,14,10)           0.0011         estimate D2E/DX2                !
 ! D32   D(9,12,14,17)         179.9978         estimate D2E/DX2                !
 ! D33   D(16,12,14,10)       -179.9927         estimate D2E/DX2                !
 ! D34   D(16,12,14,17)          0.0039         estimate D2E/DX2                !
 --------------------------------------------------------------------------------
 Trust Radius=3.00D-01 FncErr=1.00D-07 GrdErr=1.00D-06 EigMax=2.50D+02 EigMin=1.00D-04
 Number of steps in this run=     88 maximum allowed number of steps=    102.
 GradGradGradGradGradGradGradGradGradGradGradGradGradGradGradGradGradGrad

 Leave Link  103 at Fri May 10 12:32:57 2019, MaxMem=   104857600 cpu:               0.5 elap:               0.0
 (Enter /opt/software/gaussian/g16.b01/l202.exe)
                          Input orientation:                          
 ---------------------------------------------------------------------
 Center     Atomic      Atomic             Coordinates (Angstroms)
 Number     Number       Type             X           Y           Z
 ---------------------------------------------------------------------
      1          6           0       -1.697308   -0.201402   -0.000018
      2          8           0       -2.217905   -1.312239   -0.000029
      3          6           0       -2.553274    1.049452   -0.000024
      4          1           0       -2.343318    1.663518    0.882011
      5          1           0       -2.342868    1.663956   -0.881626
      6          1           0       -3.604616    0.761060   -0.000401
      7          6           0       -0.206967   -0.056710    0.000057
      8          6           0        0.578022   -1.222025    0.000049
      9          6           0        0.428351    1.195472    0.000075
     10          6           0        1.966970   -1.139173   -0.000003
     11          1           0        0.075953   -2.183491    0.000004
     12          6           0        1.820979    1.278019   -0.000002
     13          1           0       -0.155236    2.109523   -0.000039
     14          6           0        2.591420    0.112896   -0.000029
     15          1           0        2.565010   -2.045346   -0.000081
     16          1           0        2.303854    2.250264   -0.000141
     17          1           0        3.675304    0.179252   -0.000125
 ---------------------------------------------------------------------
                    Distance matrix (angstroms):
                    1          2          3          4          5
     1  C    0.000000
     2  O    1.226776   0.000000
     3  C    1.515689   2.385384   0.000000
     4  H    2.161766   3.106260   1.095054   0.000000
     5  H    2.161837   3.106536   1.095038   1.763637   0.000000
     6  H    2.136389   2.494301   1.090179   1.784364   1.784317
     7  C    1.497348   2.370701   2.593984   2.881150   2.880995
     8  C    2.493752   2.797382   3.868413   4.199815   4.199742
     9  C    2.543557   3.645722   2.985198   2.946019   2.945595
    10  C    3.782373   4.188452   5.022219   5.216475   5.216272
    11  H    2.659536   2.453745   4.167104   4.629286   4.629343
    12  C    3.816678   4.798127   4.380221   4.274099   4.273620
    13  H    2.778194   3.995380   2.621896   2.400966   2.400304
    14  C    4.300229   5.016036   5.229246   5.247291   5.246923
    15  H    4.644081   4.838773   5.981188   6.214937   6.214765
    16  H    4.692543   5.756538   5.003363   4.766411   4.765795
    17  H    5.386080   6.079018   6.289072   6.261391   6.260973
                    6          7          8          9         10
     6  H    0.000000
     7  C    3.494677   0.000000
     8  C    4.628940   1.405050   0.000000
     9  C    4.056296   1.404133   2.422126   0.000000
    10  C    5.886719   2.428524   1.391417   2.796054   0.000000
    11  H    4.713488   2.145517   1.084661   3.397289   2.160219
    12  C    5.450168   2.427770   2.791982   1.395072   2.421597
    13  H    3.703589   2.166851   3.411287   1.084464   3.880436
    14  C    6.229846   2.803522   2.415737   2.418851   1.399148
    15  H    6.777920   3.411529   2.150809   3.881780   1.085726
    16  H    6.093254   3.409744   3.877536   2.151766   3.406138
    17  H    7.303132   3.889435   3.399520   3.402265   2.157927
                   11         12         13         14         15
    11  H    0.000000
    12  C    3.876489   0.000000
    13  H    4.299235   2.144021   0.000000
    14  C    3.406019   1.396815   3.395679   0.000000
    15  H    2.492888   3.405633   4.966153   2.158404   0.000000
    16  H    4.962028   1.085555   2.463114   2.156626   4.303541
    17  H    4.305564   2.155414   4.289404   1.085913   2.486280
                   16         17
    16  H    0.000000
    17  H    2.483942   0.000000
 Stoichiometry    C8H8O
 Framework group  C1[X(C8H8O)]
 Deg. of freedom    45
 Full point group                 C1      NOp   1
 Largest Abelian subgroup         C1      NOp   1
 Largest concise Abelian subgroup C1      NOp   1
                         Standard orientation:                         
 ---------------------------------------------------------------------
 Center     Atomic      Atomic             Coordinates (Angstroms)
 Number     Number       Type             X           Y           Z
 ---------------------------------------------------------------------
      1          6           0       -1.697308   -0.201402   -0.000018
      2          8           0       -2.217905   -1.312239   -0.000029
      3          6           0       -2.553274    1.049452   -0.000024
      4          1           0       -2.343318    1.663518    0.882011
      5          1           0       -2.342868    1.663956   -0.881626
      6          1           0       -3.604616    0.761060   -0.000401
      7          6           0       -0.206967   -0.056710    0.000057
      8          6           0        0.578022   -1.222025    0.000049
      9          6           0        0.428351    1.195472    0.000075
     10          6           0        1.966970   -1.139173   -0.000003
     11          1           0        0.075953   -2.183491    0.000004
     12          6           0        1.820979    1.278019   -0.000002
     13          1           0       -0.155236    2.109523   -0.000039
     14          6           0        2.591420    0.112896   -0.000029
     15          1           0        2.565010   -2.045346   -0.000081
     16          1           0        2.303854    2.250264   -0.000141
     17          1           0        3.675304    0.179252   -0.000125
 ---------------------------------------------------------------------
 Rotational constants (GHZ):           3.6751930           1.2126784           0.9169999
 Leave Link  202 at Fri May 10 12:32:57 2019, MaxMem=   104857600 cpu:               1.3 elap:               0.1
 (Enter /opt/software/gaussian/g16.b01/l301.exe)
 Standard basis: 6-31G(d,p) (6D, 7F)
 Ernie: Thresh=  0.10000D-02 Tol=  0.10000D-05 Strict=F.
 There are   175 symmetry adapted cartesian basis functions of A   symmetry.
 There are   175 symmetry adapted basis functions of A   symmetry.
   175 basis functions,   308 primitive gaussians,   175 cartesian basis functions
    32 alpha electrons       32 beta electrons
       nuclear repulsion energy       400.5229786133 Hartrees.
 IExCor=  402 DFT=T Ex+Corr=B3LYP ExCW=0 ScaHFX=  0.200000
 ScaDFX=  0.800000  0.720000  1.000000  0.810000 ScalE2=  1.000000  1.000000
 IRadAn=      5 IRanWt=     -1 IRanGd=            0 ICorTp=0 IEmpDi=131
 NAtoms=   17 NActive=   17 NUniq=   17 SFac= 1.00D+00 NAtFMM=   60 NAOKFM=F Big=F
 Integral buffers will be    131072 words long.
 Raffenetti 2 integral format.
 Two-electron integral symmetry is turned on.
 R6Disp:  Grimme-D3 Dispersion energy=       -0.0112399629 Hartrees.
 Nuclear repulsion after empirical dispersion term =      400.5117386504 Hartrees.
 ------------------------------------------------------------------------------
 Polarizable Continuum Model (PCM)
 =================================
 Model                : PCM.
 Atomic radii         : UFF (Universal Force Field).
 Polarization charges : Total charges.
 Charge compensation  : None.
 Solution method      : On-the-fly selection.
 Cavity type          : Scaled VdW (van der Waals Surface) (Alpha=1.100).
 Cavity algorithm     : GePol (No added spheres)
                        Default sphere list used, NSphG=   17.
                        Lebedev-Laikov grids with approx.  5.0 points / Ang**2.
                        Smoothing algorithm: York/Karplus (Gamma=1.0000).
                        Polarization charges: spherical gaussians, with
                                              point-specific exponents (IZeta= 3).
                        Self-potential: point-specific (ISelfS= 7).
                        Self-field    : sphere-specific E.n sum rule (ISelfD= 2).
 1st derivatives      : Analytical E(r).r(x)/FMM algorithm (CHGder, D1EAlg=3).
                        Cavity 1st derivative terms included.
 Solvent              : Acetonitrile, Eps=  35.688000 Eps(inf)=   1.806874
 ------------------------------------------------------------------------------
 Spheres list:
 ISph  on   Nord     Re0    Alpha      Xe            Ye            Ze
    1   C      1    1.9255  1.100     -1.697308     -0.201402     -0.000018
    2   O      2    1.7500  1.100     -2.217905     -1.312239     -0.000029
    3   C      3    1.9255  1.100     -2.553274      1.049452     -0.000024
    4   H      4    1.4430  1.100     -2.343318      1.663518      0.882011
    5   H      5    1.4430  1.100     -2.342868      1.663956     -0.881626
    6   H      6    1.4430  1.100     -3.604616      0.761060     -0.000401
    7   C      7    1.9255  1.100     -0.206967     -0.056710      0.000057
    8   C      8    1.9255  1.100      0.578022     -1.222025      0.000049
    9   C      9    1.9255  1.100      0.428351      1.195472      0.000075
   10   C     10    1.9255  1.100      1.966970     -1.139173     -0.000003
   11   H     11    1.4430  1.100      0.075953     -2.183491      0.000004
   12   C     12    1.9255  1.100      1.820979      1.278019     -0.000002
   13   H     13    1.4430  1.100     -0.155236      2.109523     -0.000039
   14   C     14    1.9255  1.100      2.591420      0.112896     -0.000029
   15   H     15    1.4430  1.100      2.565010     -2.045346     -0.000081
   16   H     16    1.4430  1.100      2.303854      2.250264     -0.000141
   17   H     17    1.4430  1.100      3.675304      0.179252     -0.000125
 ------------------------------------------------------------------------------
 GePol: Number of generator spheres                  =      17
 GePol: Total number of spheres                      =      17
 GePol: Number of exposed spheres                    =      17 (100.00%)
 GePol: Number of points                             =    1447
 GePol: Average weight of points                     =       0.13
 GePol: Minimum weight of points                     =   0.90D-07
 GePol: Maximum weight of points                     =    0.20577
 GePol: Number of points with low weight             =      84
 GePol: Fraction of low-weight points (<1% of avg)   =       5.81%
 GePol: Cavity surface area                          =    189.225 Ang**2
 GePol: Cavity volume                                =    188.062 Ang**3
 Leave Link  301 at Fri May 10 12:32:57 2019, MaxMem=   104857600 cpu:               3.2 elap:               0.1
 (Enter /opt/software/gaussian/g16.b01/l302.exe)
 NPDir=0 NMtPBC=     1 NCelOv=     1 NCel=       1 NClECP=     1 NCelD=      1
         NCelK=      1 NCelE2=     1 NClLst=     1 CellRange=     0.0.
 One-electron integrals computed using PRISM.
 One-electron integral symmetry used in STVInt
 PrsmSu:  requested number of processors reduced to:  30 ShMem   1 Linda.
 NBasis=   175 RedAO= T EigKep=  4.70D-04  NBF=   175
 NBsUse=   175 1.00D-06 EigRej= -1.00D+00 NBFU=   175
 Precomputing XC quadrature grid using
 IXCGrd= 4 IRadAn=           5 IRanWt=          -1 IRanGd=           0 AccXCQ= 0.00D+00.
 Generated NRdTot=       0 NPtTot=           0 NUsed=           0 NTot=          32
 NSgBfM=   175   175   175   175   175 MxSgAt=    17 MxSgA2=    17.
 Leave Link  302 at Fri May 10 12:32:57 2019, MaxMem=   104857600 cpu:               7.5 elap:               0.3
 (Enter /opt/software/gaussian/g16.b01/l303.exe)
 DipDrv:  MaxL=1.
 Leave Link  303 at Fri May 10 12:32:58 2019, MaxMem=   104857600 cpu:               2.4 elap:               0.1
 (Enter /opt/software/gaussian/g16.b01/l308.exe)
 Leave Link  308 at Fri May 10 12:32:58 2019, MaxMem=   104857600 cpu:               2.3 elap:               0.1
 (Enter /opt/software/gaussian/g16.b01/l401.exe)
 Core hamiltonian diagonalized for initial guess.
 JPrj=0 DoOrth=F DoCkMO=T.
 Mixing orbitals, IMix= 1 IMixAn=  0 NRI=1 NE=   32 Coef=  7.07106781D-01  7.07106781D-01
 Mixing orbitals, IMix= 1 IMixAn=  0 NRI=1 NE=   32 Coef= -7.07106781D-01  7.07106781D-01
 Initial guess <Sx>= 0.0000 <Sy>= 0.0000 <Sz>= 0.0000 <S**2>= 1.0000 S= 0.6180
 Leave Link  401 at Fri May 10 12:32:58 2019, MaxMem=   104857600 cpu:               1.3 elap:               0.1
 (Enter /opt/software/gaussian/g16.b01/l502.exe)
 Integral symmetry usage will be decided dynamically.
 UHF open shell SCF:
 Using DIIS extrapolation, IDIIS=  1040.
 NGot=   104857600 LenX=   104788772 LenY=   104757706
 Requested convergence on RMS density matrix=1.00D-08 within 128 cycles.
 Requested convergence on MAX density matrix=1.00D-06.
 Requested convergence on             energy=1.00D-06.
 No special actions if energy rises.
 Fock matrices will be formed incrementally for  20 cycles.

 Cycle   1  Pass 1  IDiag  1:
 FoFJK:  IHMeth= 1 ICntrl=       0 DoSepK=F KAlg= 0 I1Cent=           0 FoldK=F
 IRaf= 920000000 NMat=       1 IRICut=       1 DoRegI=T DoRafI=F ISym2E= 0 IDoP0=0 IntGTp=1.
 FoFCou: FMM=F IPFlag=           0 FMFlag=      100000 FMFlg1=           0
         NFxFlg=           0 DoJE=F BraDBF=F KetDBF=F FulRan=T
         wScrn=  0.000000 ICntrl=         0 IOpCl=  1 I1Cent=           0 NGrid=           0
         NMat0=    1 NMatS0=      1 NMatT0=    0 NMatD0=    1 NMtDS0=    0 NMtDT0=    0
 Symmetry not used in FoFCou.
 Inv3:  Mode=1 IEnd=     6281427.
 Iteration    1 A*A^-1 deviation from unit magnitude is 3.11D-15 for   1370.
 Iteration    1 A*A^-1 deviation from orthogonality  is 2.23D-15 for   1164    192.
 Iteration    1 A^-1*A deviation from unit magnitude is 3.11D-15 for   1370.
 Iteration    1 A^-1*A deviation from orthogonality  is 1.84D-15 for   1120    190.
 E= -305.541273211789    
 DIIS: error= 4.89D-01 at cycle   1 NSaved=   1.
 NSaved= 1 IEnMin= 1 EnMin= -305.541273211789     IErMin= 1 ErrMin= 4.89D-01
 ErrMax= 4.89D-01  0.00D+00 EMaxC= 1.00D-01 BMatC= 1.76D+02 BMatP= 1.76D+02
 IDIUse=3 WtCom= 0.00D+00 WtEn= 1.00D+00
 Coeff-Com:  0.100D+01
 Coeff-En:   0.100D+01
 Coeff:      0.100D+01
 Gap=     0.160 Goal=   None    Shift=    0.000
 Gap=     0.138 Goal=   None    Shift=    0.000
 GapD=    0.138 DampG=1.000 DampE=0.250 DampFc=0.2500 IDamp=-1.
 Damping current iteration by 2.50D-01
 RMSDP=2.31D-01 MaxDP=1.12D+01              OVMax= 9.98D-01

 Cycle   2  Pass 1  IDiag  1:
 RMSU=  5.60D-02    CP:  8.41D-01
 E= -343.246453277451     Delta-E=      -37.705180065663 Rises=F Damp=T
 DIIS: error= 3.08D-01 at cycle   2 NSaved=   2.
 NSaved= 2 IEnMin= 2 EnMin= -343.246453277451     IErMin= 2 ErrMin= 3.08D-01
 ErrMax= 3.08D-01  0.00D+00 EMaxC= 1.00D-01 BMatC= 6.60D+01 BMatP= 1.76D+02
 IDIUse=3 WtCom= 0.00D+00 WtEn= 1.00D+00
 Coeff-Com: -0.132D+01 0.232D+01
 Coeff-En:   0.000D+00 0.100D+01
 Coeff:      0.000D+00 0.100D+01
 Gap=     0.200 Goal=   None    Shift=    0.000
 Gap=     0.199 Goal=   None    Shift=    0.000
 RMSDP=1.41D-01 MaxDP=4.06D+00 DE=-3.77D+01 OVMax= 9.52D-01

 Cycle   3  Pass 1  IDiag  1:
 RMSU=  1.29D-01    CP:  2.15D-01  1.11D+00
 E= -339.977475875050     Delta-E=        3.268977402401 Rises=F Damp=F
 DIIS: error= 1.56D-01 at cycle   3 NSaved=   3.
 NSaved= 3 IEnMin= 2 EnMin= -343.246453277451     IErMin= 3 ErrMin= 1.56D-01
 ErrMax= 1.56D-01  0.00D+00 EMaxC= 1.00D-01 BMatC= 6.20D+01 BMatP= 6.60D+01
 IDIUse=3 WtCom= 0.00D+00 WtEn= 1.00D+00
 EnCoef did   100 forward-backward iterations
 Coeff-Com: -0.112D+01 0.201D+01 0.114D+00
 Coeff-En:   0.373D+00 0.250D-01 0.602D+00
 Coeff:      0.373D+00 0.250D-01 0.602D+00
 Gap=     0.371 Goal=   None    Shift=    0.000
 Gap=     0.380 Goal=   None    Shift=    0.000
 RMSDP=1.44D-01 MaxDP=4.54D+00 DE= 3.27D+00 OVMax= 9.99D-01

 Cycle   4  Pass 1  IDiag  1:
 RMSU=  2.61D-02    CP:  1.06D-01  5.50D-02  1.20D-02
 E= -379.380797773107     Delta-E=      -39.403321898056 Rises=F Damp=F
 DIIS: error= 1.42D-01 at cycle   4 NSaved=   4.
 NSaved= 4 IEnMin= 4 EnMin= -379.380797773107     IErMin= 4 ErrMin= 1.42D-01
 ErrMax= 1.42D-01  0.00D+00 EMaxC= 1.00D-01 BMatC= 1.65D+01 BMatP= 6.20D+01
 IDIUse=3 WtCom= 0.00D+00 WtEn= 1.00D+00
 Coeff-Com: -0.613D+00 0.104D+01 0.108D+00 0.464D+00
 Coeff-En:   0.000D+00 0.000D+00 0.122D+00 0.878D+00
 Coeff:      0.000D+00 0.000D+00 0.122D+00 0.878D+00
 Gap=    -0.474 Goal=   None    Shift=    0.000
 Gap=    -0.478 Goal=   None    Shift=    0.000
 RMSDP=5.81D-02 MaxDP=3.06D+00 DE=-3.94D+01 OVMax= 9.78D-01

 Cycle   5  Pass 1  IDiag  1:
 RMSU=  4.96D-02    CP:  1.08D-01  5.16D-01  3.24D-02  4.03D-01
 E= -362.222148686057     Delta-E=       17.158649087049 Rises=F Damp=F
 DIIS: error= 1.45D-01 at cycle   5 NSaved=   5.
 NSaved= 5 IEnMin= 4 EnMin= -379.380797773107     IErMin= 4 ErrMin= 1.42D-01
 ErrMax= 1.45D-01  0.00D+00 EMaxC= 1.00D-01 BMatC= 4.23D+01 BMatP= 1.65D+01
 IDIUse=2 WtCom= 0.00D+00 WtEn= 1.00D+00
 Coeff-En:   0.000D+00 0.000D+00 0.000D+00 0.744D+00 0.256D+00
 Coeff:      0.000D+00 0.000D+00 0.000D+00 0.744D+00 0.256D+00
 Gap=    -0.069 Goal=   None    Shift=    0.000
 Gap=    -0.069 Goal=   None    Shift=    0.000
 RMSDP=5.49D-02 MaxDP=2.96D+00 DE= 1.72D+01 OVMax= 9.34D-01

 Cycle   6  Pass 1  IDiag  1:
 RMSU=  1.82D-02    CP:  1.04D-01  7.43D-02  3.37D-02  5.41D-01  8.53D-02
 E= -383.493351857446     Delta-E=      -21.271203171389 Rises=F Damp=F
 DIIS: error= 7.81D-02 at cycle   6 NSaved=   6.
 NSaved= 6 IEnMin= 6 EnMin= -383.493351857446     IErMin= 6 ErrMin= 7.81D-02
 ErrMax= 7.81D-02  0.00D+00 EMaxC= 1.00D-01 BMatC= 5.05D+00 BMatP= 1.65D+01
 IDIUse=3 WtCom= 2.19D-01 WtEn= 7.81D-01
 Coeff-Com: -0.110D+00 0.216D+00-0.420D-01 0.266D+00 0.614D-01 0.608D+00
 Coeff-En:   0.000D+00 0.000D+00 0.000D+00 0.201D+00 0.000D+00 0.799D+00
 Coeff:     -0.239D-01 0.472D-01-0.918D-02 0.215D+00 0.134D-01 0.758D+00
 Gap=     0.190 Goal=   None    Shift=    0.000
 Gap=     0.190 Goal=   None    Shift=    0.000
 RMSDP=1.41D-02 MaxDP=3.23D-01 DE=-2.13D+01 OVMax= 5.64D-01

 Cycle   7  Pass 1  IDiag  1:
 RMSU=  9.67D-03    CP:  9.76D-02  2.47D-02  1.55D-02  6.56D-01  7.69D-02
                    CP:  5.04D-01
 E= -384.159060259963     Delta-E=       -0.665708402517 Rises=F Damp=F
 DIIS: error= 6.23D-02 at cycle   7 NSaved=   7.
 NSaved= 7 IEnMin= 7 EnMin= -384.159060259963     IErMin= 7 ErrMin= 6.23D-02
 ErrMax= 6.23D-02  0.00D+00 EMaxC= 1.00D-01 BMatC= 2.86D+00 BMatP= 5.05D+00
 IDIUse=3 WtCom= 3.77D-01 WtEn= 6.23D-01
 Coeff-Com: -0.610D-01 0.102D+00-0.198D-01 0.891D-01 0.101D-01 0.424D+00
 Coeff-Com:  0.456D+00
 Coeff-En:   0.000D+00 0.000D+00 0.000D+00 0.000D+00 0.000D+00 0.361D+00
 Coeff-En:   0.639D+00
 Coeff:     -0.230D-01 0.386D-01-0.747D-02 0.336D-01 0.381D-02 0.385D+00
 Coeff:      0.570D+00
 Gap=     0.308 Goal=   None    Shift=    0.000
 Gap=     0.308 Goal=   None    Shift=    0.000
 RMSDP=6.45D-03 MaxDP=2.01D-01 DE=-6.66D-01 OVMax= 3.49D-01

 Cycle   8  Pass 1  IDiag  1:
 RMSU=  4.30D-03    CP:  9.07D-02  2.88D-02  1.67D-02  6.23D-01  7.62D-02
                    CP:  6.30D-01  5.78D-01
 E= -384.805401471571     Delta-E=       -0.646341211608 Rises=F Damp=F
 DIIS: error= 2.81D-02 at cycle   8 NSaved=   8.
 NSaved= 8 IEnMin= 8 EnMin= -384.805401471571     IErMin= 8 ErrMin= 2.81D-02
 ErrMax= 2.81D-02  0.00D+00 EMaxC= 1.00D-01 BMatC= 5.15D-01 BMatP= 2.86D+00
 IDIUse=3 WtCom= 7.19D-01 WtEn= 2.81D-01
 Coeff-Com: -0.876D-02 0.894D-02-0.313D-02-0.194D-01-0.684D-03 0.137D+00
 Coeff-Com:  0.323D+00 0.563D+00
 Coeff-En:   0.000D+00 0.000D+00 0.000D+00 0.000D+00 0.000D+00 0.000D+00
 Coeff-En:   0.102D+00 0.898D+00
 Coeff:     -0.629D-02 0.643D-02-0.225D-02-0.140D-01-0.492D-03 0.985D-01
 Coeff:      0.261D+00 0.657D+00
 Gap=     0.221 Goal=   None    Shift=    0.000
 Gap=     0.220 Goal=   None    Shift=    0.000
 RMSDP=3.39D-03 MaxDP=1.18D-01 DE=-6.46D-01 OVMax= 1.70D-01

 Cycle   9  Pass 1  IDiag  1:
 RMSU=  1.98D-03    CP:  8.90D-02  2.83D-02  1.67D-02  6.28D-01  7.60D-02
                    CP:  6.18D-01  7.46D-01  4.90D-01
 E= -384.872743212811     Delta-E=       -0.067341741240 Rises=F Damp=F
 DIIS: error= 2.39D-02 at cycle   9 NSaved=   9.
 NSaved= 9 IEnMin= 9 EnMin= -384.872743212811     IErMin= 9 ErrMin= 2.39D-02
 ErrMax= 2.39D-02  0.00D+00 EMaxC= 1.00D-01 BMatC= 2.45D-01 BMatP= 5.15D-01
 IDIUse=3 WtCom= 7.61D-01 WtEn= 2.39D-01
 Coeff-Com: -0.451D-03-0.189D-02-0.608D-04-0.141D-01 0.268D-02 0.211D-01
 Coeff-Com:  0.101D+00 0.447D+00 0.444D+00
 Coeff-En:   0.000D+00 0.000D+00 0.000D+00 0.000D+00 0.000D+00 0.000D+00
 Coeff-En:   0.000D+00 0.332D+00 0.668D+00
 Coeff:     -0.343D-03-0.144D-02-0.463D-04-0.108D-01 0.204D-02 0.160D-01
 Coeff:      0.769D-01 0.420D+00 0.498D+00
 Gap=     0.208 Goal=   None    Shift=    0.000
 Gap=     0.208 Goal=   None    Shift=    0.000
 RMSDP=1.72D-03 MaxDP=6.84D-02 DE=-6.73D-02 OVMax= 9.59D-02

 Cycle  10  Pass 1  IDiag  1:
 RMSU=  5.88D-04    CP:  8.97D-02  2.68D-02  1.67D-02  6.23D-01  7.77D-02
                    CP:  6.18D-01  6.97D-01  7.10D-01  3.92D-01
 E= -384.919951358961     Delta-E=       -0.047208146150 Rises=F Damp=F
 DIIS: error= 9.74D-03 at cycle  10 NSaved=  10.
 NSaved=10 IEnMin=10 EnMin= -384.919951358961     IErMin=10 ErrMin= 9.74D-03
 ErrMax= 9.74D-03  0.00D+00 EMaxC= 1.00D-01 BMatC= 2.81D-02 BMatP= 2.45D-01
 IDIUse=3 WtCom= 9.03D-01 WtEn= 9.74D-02
 Coeff-Com:  0.895D-03-0.190D-02-0.299D-03-0.536D-02 0.189D-02-0.417D-03
 Coeff-Com: -0.511D-02 0.157D+00 0.324D+00 0.529D+00
 Coeff-En:   0.000D+00 0.000D+00 0.000D+00 0.000D+00 0.000D+00 0.000D+00
 Coeff-En:   0.000D+00 0.000D+00 0.615D-01 0.939D+00
 Coeff:      0.808D-03-0.172D-02-0.270D-03-0.484D-02 0.171D-02-0.376D-03
 Coeff:     -0.461D-02 0.142D+00 0.298D+00 0.569D+00
 Gap=     0.200 Goal=   None    Shift=    0.000
 Gap=     0.200 Goal=   None    Shift=    0.000
 RMSDP=4.55D-04 MaxDP=2.15D-02 DE=-4.72D-02 OVMax= 2.65D-02

 Cycle  11  Pass 1  IDiag  1:
 RMSU=  1.86D-04    CP:  8.95D-02  2.75D-02  1.67D-02  6.22D-01  7.74D-02
                    CP:  6.23D-01  6.93D-01  6.95D-01  5.33D-01  5.26D-01
 E= -384.925267215177     Delta-E=       -0.005315856216 Rises=F Damp=F
 DIIS: error= 1.40D-03 at cycle  11 NSaved=  11.
 NSaved=11 IEnMin=11 EnMin= -384.925267215177     IErMin=11 ErrMin= 1.40D-03
 ErrMax= 1.40D-03  0.00D+00 EMaxC= 1.00D-01 BMatC= 1.44D-03 BMatP= 2.81D-02
 IDIUse=3 WtCom= 9.86D-01 WtEn= 1.40D-02
 Coeff-Com: -0.342D-03 0.755D-03-0.209D-03-0.302D-03 0.227D-03 0.826D-03
 Coeff-Com: -0.962D-02 0.128D-01 0.844D-01 0.284D+00 0.628D+00
 Coeff-En:   0.000D+00 0.000D+00 0.000D+00 0.000D+00 0.000D+00 0.000D+00
 Coeff-En:   0.000D+00 0.000D+00 0.000D+00 0.000D+00 0.100D+01
 Coeff:     -0.337D-03 0.745D-03-0.206D-03-0.298D-03 0.223D-03 0.814D-03
 Coeff:     -0.949D-02 0.126D-01 0.832D-01 0.280D+00 0.633D+00
 Gap=     0.196 Goal=   None    Shift=    0.000
 Gap=     0.196 Goal=   None    Shift=    0.000
 RMSDP=9.00D-05 MaxDP=3.22D-03 DE=-5.32D-03 OVMax= 5.30D-03

 Cycle  12  Pass 1  IDiag  1:
 RMSU=  4.47D-05    CP:  8.95D-02  2.74D-02  1.67D-02  6.22D-01  7.74D-02
                    CP:  6.23D-01  6.94D-01  6.94D-01  5.32D-01  6.29D-01
                    CP:  7.43D-01
 E= -384.925570659217     Delta-E=       -0.000303444039 Rises=F Damp=F
 DIIS: error= 1.76D-04 at cycle  12 NSaved=  12.
 NSaved=12 IEnMin=12 EnMin= -384.925570659217     IErMin=12 ErrMin= 1.76D-04
 ErrMax= 1.76D-04  0.00D+00 EMaxC= 1.00D-01 BMatC= 4.45D-05 BMatP= 1.44D-03
 IDIUse=3 WtCom= 9.98D-01 WtEn= 1.76D-03
 Coeff-Com: -0.217D-04 0.110D-03 0.132D-04 0.105D-04-0.561D-04 0.657D-05
 Coeff-Com: -0.327D-02 0.241D-02 0.291D-01 0.105D+00 0.277D+00 0.590D+00
 Coeff-En:   0.000D+00 0.000D+00 0.000D+00 0.000D+00 0.000D+00 0.000D+00
 Coeff-En:   0.000D+00 0.000D+00 0.000D+00 0.000D+00 0.000D+00 0.100D+01
 Coeff:     -0.216D-04 0.109D-03 0.131D-04 0.105D-04-0.560D-04 0.656D-05
 Coeff:     -0.326D-02 0.241D-02 0.290D-01 0.105D+00 0.276D+00 0.591D+00
 Gap=     0.196 Goal=   None    Shift=    0.000
 Gap=     0.196 Goal=   None    Shift=    0.000
 RMSDP=2.24D-05 MaxDP=7.84D-04 DE=-3.03D-04 OVMax= 1.99D-03

 Cycle  13  Pass 1  IDiag  1:
 RMSU=  1.64D-05    CP:  8.95D-02  2.74D-02  1.67D-02  6.22D-01  7.74D-02
                    CP:  6.23D-01  6.94D-01  6.93D-01  5.33D-01  6.23D-01
                    CP:  7.70D-01  7.22D-01
 E= -384.925579829204     Delta-E=       -0.000009169988 Rises=F Damp=F
 DIIS: error= 8.90D-05 at cycle  13 NSaved=  13.
 NSaved=13 IEnMin=13 EnMin= -384.925579829204     IErMin=13 ErrMin= 8.90D-05
 ErrMax= 8.90D-05  0.00D+00 EMaxC= 1.00D-01 BMatC= 9.01D-06 BMatP= 4.45D-05
 IDIUse=1 WtCom= 1.00D+00 WtEn= 0.00D+00
 Coeff-Com:  0.401D-04-0.559D-04 0.292D-04 0.728D-04-0.644D-04-0.241D-03
 Coeff-Com: -0.840D-03 0.576D-03 0.796D-02 0.319D-01 0.903D-01 0.322D+00
 Coeff-Com:  0.548D+00
 Coeff:      0.401D-04-0.559D-04 0.292D-04 0.728D-04-0.644D-04-0.241D-03
 Coeff:     -0.840D-03 0.576D-03 0.796D-02 0.319D-01 0.903D-01 0.322D+00
 Coeff:      0.548D+00
 Gap=     0.196 Goal=   None    Shift=    0.000
 Gap=     0.196 Goal=   None    Shift=    0.000
 RMSDP=9.17D-06 MaxDP=3.24D-04 DE=-9.17D-06 OVMax= 8.24D-04

 Cycle  14  Pass 1  IDiag  1:
 RMSU=  5.75D-06    CP:  8.95D-02  2.74D-02  1.67D-02  6.22D-01  7.74D-02
                    CP:  6.22D-01  6.94D-01  6.93D-01  5.33D-01  6.25D-01
                    CP:  7.66D-01  7.79D-01  6.17D-01
 E= -384.925581972709     Delta-E=       -0.000002143505 Rises=F Damp=F
 DIIS: error= 5.03D-05 at cycle  14 NSaved=  14.
 NSaved=14 IEnMin=14 EnMin= -384.925581972709     IErMin=14 ErrMin= 5.03D-05
 ErrMax= 5.03D-05  0.00D+00 EMaxC= 1.00D-01 BMatC= 1.01D-06 BMatP= 9.01D-06
 IDIUse=1 WtCom= 1.00D+00 WtEn= 0.00D+00
 Coeff-Com: -0.245D-05 0.481D-05-0.221D-06 0.319D-04-0.150D-04-0.164D-03
 Coeff-Com: -0.884D-04 0.853D-03 0.951D-03 0.470D-02 0.524D-02 0.212D-01
 Coeff-Com:  0.151D+00 0.816D+00
 Coeff:     -0.245D-05 0.481D-05-0.221D-06 0.319D-04-0.150D-04-0.164D-03
 Coeff:     -0.884D-04 0.853D-03 0.951D-03 0.470D-02 0.524D-02 0.212D-01
 Coeff:      0.151D+00 0.816D+00
 Gap=     0.196 Goal=   None    Shift=    0.000
 Gap=     0.196 Goal=   None    Shift=    0.000
 RMSDP=3.94D-06 MaxDP=1.07D-04 DE=-2.14D-06 OVMax= 2.39D-04

 Cycle  15  Pass 1  IDiag  1:
 RMSU=  2.56D-06    CP:  8.95D-02  2.74D-02  1.67D-02  6.22D-01  7.74D-02
                    CP:  6.22D-01  6.94D-01  6.94D-01  5.32D-01  6.25D-01
                    CP:  7.64D-01  7.69D-01  7.04D-01  1.01D+00
 E= -384.925582164267     Delta-E=       -0.000000191558 Rises=F Damp=F
 DIIS: error= 1.60D-05 at cycle  15 NSaved=  15.
 NSaved=15 IEnMin=15 EnMin= -384.925582164267     IErMin=15 ErrMin= 1.60D-05
 ErrMax= 1.60D-05  0.00D+00 EMaxC= 1.00D-01 BMatC= 1.87D-07 BMatP= 1.01D-06
 IDIUse=1 WtCom= 1.00D+00 WtEn= 0.00D+00
 Coeff-Com: -0.466D-05 0.745D-05-0.339D-06 0.905D-05-0.225D-05-0.966D-04
 Coeff-Com:  0.565D-04 0.601D-03-0.265D-03-0.833D-03-0.829D-02-0.301D-01
 Coeff-Com:  0.219D-01 0.482D+00 0.535D+00
 Coeff:     -0.466D-05 0.745D-05-0.339D-06 0.905D-05-0.225D-05-0.966D-04
 Coeff:      0.565D-04 0.601D-03-0.265D-03-0.833D-03-0.829D-02-0.301D-01
 Coeff:      0.219D-01 0.482D+00 0.535D+00
 Gap=     0.196 Goal=   None    Shift=    0.000
 Gap=     0.196 Goal=   None    Shift=    0.000
 RMSDP=1.55D-06 MaxDP=5.76D-05 DE=-1.92D-07 OVMax= 1.32D-04

 Cycle  16  Pass 1  IDiag  1:
 RMSU=  9.70D-07    CP:  8.95D-02  2.74D-02  1.67D-02  6.22D-01  7.74D-02
                    CP:  6.22D-01  6.94D-01  6.94D-01  5.32D-01  6.25D-01
                    CP:  7.63D-01  7.73D-01  7.03D-01  1.12D+00  8.08D-01
 E= -384.925582211283     Delta-E=       -0.000000047016 Rises=F Damp=F
 DIIS: error= 3.15D-06 at cycle  16 NSaved=  16.
 NSaved=16 IEnMin=16 EnMin= -384.925582211283     IErMin=16 ErrMin= 3.15D-06
 ErrMax= 3.15D-06  0.00D+00 EMaxC= 1.00D-01 BMatC= 5.29D-09 BMatP= 1.87D-07
 IDIUse=1 WtCom= 1.00D+00 WtEn= 0.00D+00
 Coeff-Com:  0.132D-05-0.221D-05-0.223D-06-0.254D-06 0.773D-06-0.618D-06
 Coeff-Com:  0.108D-04 0.575D-05-0.105D-03-0.391D-03-0.105D-02-0.882D-02
 Coeff-Com: -0.116D-01 0.107D-01 0.146D+00 0.865D+00
 Coeff:      0.132D-05-0.221D-05-0.223D-06-0.254D-06 0.773D-06-0.618D-06
 Coeff:      0.108D-04 0.575D-05-0.105D-03-0.391D-03-0.105D-02-0.882D-02
 Coeff:     -0.116D-01 0.107D-01 0.146D+00 0.865D+00
 Gap=     0.196 Goal=   None    Shift=    0.000
 Gap=     0.196 Goal=   None    Shift=    0.000
 RMSDP=2.55D-07 MaxDP=1.45D-05 DE=-4.70D-08 OVMax= 2.88D-05

 Cycle  17  Pass 1  IDiag  1:
 RMSU=  1.72D-07    CP:  8.95D-02  2.74D-02  1.67D-02  6.22D-01  7.74D-02
                    CP:  6.22D-01  6.94D-01  6.94D-01  5.32D-01  6.25D-01
                    CP:  7.63D-01  7.72D-01  7.06D-01  1.13D+00  8.61D-01
                    CP:  9.18D-01
 E= -384.925582212986     Delta-E=       -0.000000001704 Rises=F Damp=F
 DIIS: error= 6.94D-07 at cycle  17 NSaved=  17.
 NSaved=17 IEnMin=17 EnMin= -384.925582212986     IErMin=17 ErrMin= 6.94D-07
 ErrMax= 6.94D-07  0.00D+00 EMaxC= 1.00D-01 BMatC= 2.56D-10 BMatP= 5.29D-09
 IDIUse=1 WtCom= 1.00D+00 WtEn= 0.00D+00
 Coeff-Com:  0.683D-07-0.257D-06 0.117D-06 0.661D-07-0.581D-07 0.183D-05
 Coeff-Com:  0.286D-05-0.227D-04-0.253D-04-0.514D-04 0.121D-03-0.557D-03
 Coeff-Com: -0.175D-02-0.768D-02 0.120D-01 0.149D+00 0.849D+00
 Coeff:      0.683D-07-0.257D-06 0.117D-06 0.661D-07-0.581D-07 0.183D-05
 Coeff:      0.286D-05-0.227D-04-0.253D-04-0.514D-04 0.121D-03-0.557D-03
 Coeff:     -0.175D-02-0.768D-02 0.120D-01 0.149D+00 0.849D+00
 Gap=     0.196 Goal=   None    Shift=    0.000
 Gap=     0.196 Goal=   None    Shift=    0.000
 RMSDP=7.99D-08 MaxDP=3.09D-06 DE=-1.70D-09 OVMax= 6.05D-06

 Cycle  18  Pass 1  IDiag  1:
 RMSU=  6.67D-08    CP:  8.95D-02  2.74D-02  1.67D-02  6.22D-01  7.74D-02
                    CP:  6.22D-01  6.94D-01  6.94D-01  5.32D-01  6.25D-01
                    CP:  7.63D-01  7.72D-01  7.06D-01  1.13D+00  8.61D-01
                    CP:  9.30D-01  1.18D+00
 E= -384.925582213097     Delta-E=       -0.000000000110 Rises=F Damp=F
 DIIS: error= 4.77D-07 at cycle  18 NSaved=  18.
 NSaved=18 IEnMin=18 EnMin= -384.925582213097     IErMin=18 ErrMin= 4.77D-07
 ErrMax= 4.77D-07  0.00D+00 EMaxC= 1.00D-01 BMatC= 1.21D-10 BMatP= 2.56D-10
 IDIUse=1 WtCom= 1.00D+00 WtEn= 0.00D+00
 Coeff-Com: -0.203D-07-0.909D-08 0.192D-07-0.161D-06-0.281D-07 0.178D-05
 Coeff-Com: -0.110D-05-0.111D-04 0.529D-05 0.335D-04 0.183D-03 0.119D-02
 Coeff-Com:  0.873D-03-0.615D-02-0.264D-01-0.124D+00 0.408D+00 0.746D+00
 Coeff:     -0.203D-07-0.909D-08 0.192D-07-0.161D-06-0.281D-07 0.178D-05
 Coeff:     -0.110D-05-0.111D-04 0.529D-05 0.335D-04 0.183D-03 0.119D-02
 Coeff:      0.873D-03-0.615D-02-0.264D-01-0.124D+00 0.408D+00 0.746D+00
 Gap=     0.196 Goal=   None    Shift=    0.000
 Gap=     0.196 Goal=   None    Shift=    0.000
 RMSDP=5.05D-08 MaxDP=2.26D-06 DE=-1.10D-10 OVMax= 4.55D-06

 Cycle  19  Pass 1  IDiag  1:
 RMSU=  3.54D-08    CP:  8.95D-02  2.74D-02  1.67D-02  6.22D-01  7.74D-02
                    CP:  6.22D-01  6.94D-01  6.94D-01  5.32D-01  6.25D-01
                    CP:  7.63D-01  7.72D-01  7.06D-01  1.13D+00  8.64D-01
                    CP:  9.36D-01  1.37D+00  1.00D+00
 E= -384.925582213147     Delta-E=       -0.000000000050 Rises=F Damp=F
 DIIS: error= 1.67D-07 at cycle  19 NSaved=  19.
 NSaved=19 IEnMin=19 EnMin= -384.925582213147     IErMin=19 ErrMin= 1.67D-07
 ErrMax= 1.67D-07  0.00D+00 EMaxC= 1.00D-01 BMatC= 1.74D-11 BMatP= 1.21D-10
 IDIUse=1 WtCom= 1.00D+00 WtEn= 0.00D+00
 Coeff-Com: -0.224D-07 0.738D-07-0.901D-09-0.851D-07 0.511D-08 0.158D-06
 Coeff-Com: -0.124D-05 0.228D-05 0.795D-05 0.227D-04 0.239D-04 0.675D-03
 Coeff-Com:  0.823D-03-0.600D-03-0.117D-01-0.797D-01-0.587D-01 0.289D+00
 Coeff-Com:  0.860D+00
 Coeff:     -0.224D-07 0.738D-07-0.901D-09-0.851D-07 0.511D-08 0.158D-06
 Coeff:     -0.124D-05 0.228D-05 0.795D-05 0.227D-04 0.239D-04 0.675D-03
 Coeff:      0.823D-03-0.600D-03-0.117D-01-0.797D-01-0.587D-01 0.289D+00
 Coeff:      0.860D+00
 Gap=     0.196 Goal=   None    Shift=    0.000
 Gap=     0.196 Goal=   None    Shift=    0.000
 RMSDP=2.41D-08 MaxDP=1.34D-06 DE=-5.00D-11 OVMax= 2.44D-06

 Cycle  20  Pass 1  IDiag  1:
 RMSU=  1.00D-08    CP:  8.95D-02  2.74D-02  1.67D-02  6.22D-01  7.74D-02
                    CP:  6.22D-01  6.94D-01  6.94D-01  5.32D-01  6.25D-01
                    CP:  7.63D-01  7.72D-01  7.06D-01  1.13D+00  8.64D-01
                    CP:  9.38D-01  1.47D+00  1.19D+00  1.00D+00
 E= -384.925582213157     Delta-E=       -0.000000000011 Rises=F Damp=F
 DIIS: error= 5.40D-08 at cycle  20 NSaved=  20.
 NSaved=20 IEnMin=20 EnMin= -384.925582213157     IErMin=20 ErrMin= 5.40D-08
 ErrMax= 5.40D-08  0.00D+00 EMaxC= 1.00D-01 BMatC= 6.21D-13 BMatP= 1.74D-11
 IDIUse=1 WtCom= 1.00D+00 WtEn= 0.00D+00
 Coeff-Com: -0.434D-08 0.827D-08-0.225D-08 0.535D-08 0.279D-08-0.119D-06
 Coeff-Com:  0.811D-07 0.696D-06 0.300D-07-0.233D-05-0.148D-04-0.107D-04
 Coeff-Com: -0.190D-05 0.286D-03 0.723D-03-0.201D-03-0.349D-01-0.119D-01
 Coeff-Com:  0.593D-01 0.987D+00
 Coeff:     -0.434D-08 0.827D-08-0.225D-08 0.535D-08 0.279D-08-0.119D-06
 Coeff:      0.811D-07 0.696D-06 0.300D-07-0.233D-05-0.148D-04-0.107D-04
 Coeff:     -0.190D-05 0.286D-03 0.723D-03-0.201D-03-0.349D-01-0.119D-01
 Coeff:      0.593D-01 0.987D+00
 Gap=     0.196 Goal=   None    Shift=    0.000
 Gap=     0.196 Goal=   None    Shift=    0.000
 RMSDP=6.61D-09 MaxDP=3.85D-07 DE=-1.05D-11 OVMax= 7.60D-07

 Error on total polarization charges =  0.00756
 SCF Done:  E(UB3LYP) =  -384.925582213     A.U. after   20 cycles
            NFock= 20  Conv=0.66D-08     -V/T= 2.0097
 <Sx>= 0.0000 <Sy>= 0.0000 <Sz>= 0.0000 <S**2>= 0.0000 S= 0.0000
 <L.S>=  0.00000000000    
 KE= 3.812319387701D+02 PE=-1.695278713315D+03 EE= 5.286094536811D+02
 Annihilation of the first spin contaminant:
 S**2 before annihilation     0.0000,   after    -0.0000
 Leave Link  502 at Fri May 10 12:33:09 2019, MaxMem=   104857600 cpu:             359.8 elap:              11.5
 (Enter /opt/software/gaussian/g16.b01/l801.exe)
 DoSCS=F DFT=T ScalE2(SS,OS)=  1.000000  1.000000
 ExpMin= 1.61D-01 ExpMax= 5.48D+03 ExpMxC= 8.25D+02 IAcc=3 IRadAn=         5 AccDes= 0.00D+00
 HarFok:  IExCor=  205 AccDes= 0.00D+00 IRadAn=         5 IDoV=-2 UseB2=F ITyADJ=14
 ICtDFT= 12500011 ScaDFX=  1.000000  1.000000  1.000000  1.000000
 Largest valence mixing into a core orbital is  5.78D-05
 Largest core mixing into a valence orbital is  1.22D-05
 Largest valence mixing into a core orbital is  5.78D-05
 Largest core mixing into a valence orbital is  1.22D-05
 Range of M.O.s used for correlation:    10   175
 NBasis=   175 NAE=    32 NBE=    32 NFC=     9 NFV=     0
 NROrb=    166 NOA=    23 NOB=    23 NVA=   143 NVB=   143
 Leave Link  801 at Fri May 10 12:33:09 2019, MaxMem=   104857600 cpu:               2.2 elap:               0.1
 (Enter /opt/software/gaussian/g16.b01/l914.exe)
 UHF ground state
 Ignoring spin specification with unrestricted ground state.
 Two-electron integrals replicated using symmetry.
 MDV=   104857600 DFT=T DoStab=F Mixed=T DoRPA=T DoScal=F NonHer=T
 NEqPCM:  Using equilibrium solvation (IEInf=0, Eps=  35.6880, EpsInf=   1.8069)
 Making orbital integer symmetry assigments:
 Orbital symmetries:
 Alpha Orbitals:
       Occupied  (A) (A) (A) (A) (A) (A) (A) (A) (A) (A) (A) (A)
                 (A) (A) (A) (A) (A) (A) (A) (A) (A) (A) (A) (A)
                 (A) (A) (A) (A) (A) (A) (A) (A)
       Virtual   (A) (A) (A) (A) (A) (A) (A) (A) (A) (A) (A) (A)
                 (A) (A) (A) (A) (A) (A) (A) (A) (A) (A) (A) (A)
                 (A) (A) (A) (A) (A) (A) (A) (A) (A) (A) (A) (A)
                 (A) (A) (A) (A) (A) (A) (A) (A) (A) (A) (A) (A)
                 (A) (A) (A) (A) (A) (A) (A) (A) (A) (A) (A) (A)
                 (A) (A) (A) (A) (A) (A) (A) (A) (A) (A) (A) (A)
                 (A) (A) (A) (A) (A) (A) (A) (A) (A) (A) (A) (A)
                 (A) (A) (A) (A) (A) (A) (A) (A) (A) (A) (A) (A)
                 (A) (A) (A) (A) (A) (A) (A) (A) (A) (A) (A) (A)
                 (A) (A) (A) (A) (A) (A) (A) (A) (A) (A) (A) (A)
                 (A) (A) (A) (A) (A) (A) (A) (A) (A) (A) (A) (A)
                 (A) (A) (A) (A) (A) (A) (A) (A) (A) (A) (A)
 Beta  Orbitals:
       Occupied  (A) (A) (A) (A) (A) (A) (A) (A) (A) (A) (A) (A)
                 (A) (A) (A) (A) (A) (A) (A) (A) (A) (A) (A) (A)
                 (A) (A) (A) (A) (A) (A) (A) (A)
       Virtual   (A) (A) (A) (A) (A) (A) (A) (A) (A) (A) (A) (A)
                 (A) (A) (A) (A) (A) (A) (A) (A) (A) (A) (A) (A)
                 (A) (A) (A) (A) (A) (A) (A) (A) (A) (A) (A) (A)
                 (A) (A) (A) (A) (A) (A) (A) (A) (A) (A) (A) (A)
                 (A) (A) (A) (A) (A) (A) (A) (A) (A) (A) (A) (A)
                 (A) (A) (A) (A) (A) (A) (A) (A) (A) (A) (A) (A)
                 (A) (A) (A) (A) (A) (A) (A) (A) (A) (A) (A) (A)
                 (A) (A) (A) (A) (A) (A) (A) (A) (A) (A) (A) (A)
                 (A) (A) (A) (A) (A) (A) (A) (A) (A) (A) (A) (A)
                 (A) (A) (A) (A) (A) (A) (A) (A) (A) (A) (A) (A)
                 (A) (A) (A) (A) (A) (A) (A) (A) (A) (A) (A) (A)
                 (A) (A) (A) (A) (A) (A) (A) (A) (A) (A) (A)
    48 initial guesses have been made.
 Convergence on wavefunction:    0.000001000000000
 Davidson Disk Diagonalization:  ConvIn= 1.00D-06 SkipCon=T Conv= 1.00D-06.
 Max sub-space:  2000 roots to seek:    48 dimension of matrix:         6578
 Iteration     1 Dimension    48 NMult     0 NNew     48
 CISAX will form    10 AO SS matrices at one time.
 NMat=    10 NSing=    10 JSym2X= 0.
 FoFJK:  IHMeth= 1 ICntrl=       0 DoSepK=F KAlg= 0 I1Cent=           0 FoldK=F
 IRaf= 920000000 NMat=      20 IRICut=      25 DoRegI=T DoRafI=T ISym2E= 0 IDoP0=0 IntGTp=1.
 FoFCou: FMM=F IPFlag=           0 FMFlag=      100000 FMFlg1=           0
         NFxFlg=           0 DoJE=F BraDBF=F KetDBF=F FulRan=T
         wScrn=  0.000000 ICntrl=         0 IOpCl=  1 I1Cent=           0 NGrid=           0
         NMat0=   20 NMatS0=     10 NMatT0=    0 NMatD0=   20 NMtDS0=    0 NMtDT0=    0
 Symmetry not used in FoFCou.
 Raff kept on since  89.02% of shell-pairs survive, threshold=   0.20 IRatSp=89.
 NMat=    10 NSing=    10 JSym2X= 0.
 NMat=    10 NSing=    10 JSym2X= 0.
 NMat=    10 NSing=    10 JSym2X= 0.
 NMat=     8 NSing=     8 JSym2X= 0.
 New state      2 was old state      3
 New state      3 was old state      2
 New state      4 was old state      5
 New state      5 was old state      9
 New state      6 was old state      4
 New state      7 was old state     12
 New state      8 was old state      6
 New state      9 was old state      8
 New state     10 was old state      7
 New state     11 was old state     17
 New state     12 was old state     11
 Excitation Energies [eV] at current iteration:
 Root      1 :     3.402310421727350
 Root      2 :     3.675344354658340
 Root      3 :     3.869578696994740
 Root      4 :     4.048571909450080
 Root      5 :     4.636409179451098
 Root      6 :     4.847791364034046
 Root      7 :     5.190602174993265
 Root      8 :     5.570356433901084
 Root      9 :     5.789198241369843
 Root     10 :     5.808077302761792
 Root     11 :     5.908705263388912
 Root     12 :     6.541350143737939
 Root     13 :     6.543664382247004
 Root     14 :     6.582484526144079
 Root     15 :     6.675310179427986
 Root     16 :     6.754369188450333
 Root     17 :     6.787072776931114
 Root     18 :     6.788404519447491
 Root     19 :     6.913772717813353
 Root     20 :     7.085016373840666
 Root     21 :     7.324760193335464
 Root     22 :     7.369120261691100
 Root     23 :     7.575607210772049
 Root     24 :     7.765762490899782
 Root     25 :     7.851845986523185
 Root     26 :     7.874598559198459
 Root     27 :     7.911565577201342
 Root     28 :     7.979014875256979
 Root     29 :     8.016341460766636
 Root     30 :     8.172185885995361
 Root     31 :     8.201823387338862
 Root     32 :     8.224220856420983
 Root     33 :     8.483351058724825
 Root     34 :     8.516143558920652
 Root     35 :     8.551332671818297
 Root     36 :     8.557409744256615
 Root     37 :     8.601362275599911
 Root     38 :     8.614416781767838
 Root     39 :     8.673912549519597
 Root     40 :     8.687931035816623
 Root     41 :     8.843867756465682
 Root     42 :     8.863850299042435
 Root     43 :     8.924568332134367
 Root     44 :     8.934263883413628
 Root     45 :     9.124614179335685
 Root     46 :     9.301712004860125
 Root     47 :     9.706780713205701
 Root     48 :    10.005936361312576
 Iteration     2 Dimension    72 NMult    48 NNew     24
 CISAX will form     8 AO SS matrices at one time.
 NMat=     8 NSing=     8 JSym2X= 0.
 NMat=     8 NSing=     8 JSym2X= 0.
 NMat=     8 NSing=     8 JSym2X= 0.
 Root      1 not converged, maximum delta is    0.032957074391886
 Root      2 not converged, maximum delta is    0.110248998875914
 Root      3 not converged, maximum delta is    0.019111854083060
 Root      4 not converged, maximum delta is    0.027617914408534
 Root      5 not converged, maximum delta is    0.074131297918274
 Root      6 not converged, maximum delta is    0.048550999663330
 New state      7 was old state      8
 Root      7 not converged, maximum delta is    0.062016228324325
 New state      8 was old state      7
 Root      8 not converged, maximum delta is    0.047063609862152
 New state      9 was old state     11
 Root      9 not converged, maximum delta is    0.153214738401887
 New state     10 was old state      9
 Root     10 not converged, maximum delta is    0.016327991021911
 New state     11 was old state     10
 Root     11 not converged, maximum delta is    0.010138152534745
 Root     12 not converged, maximum delta is    0.100162014113402
 Excitation Energies [eV] at current iteration:
 Root      1 :     3.312080823827321   Change is   -0.090229597900029
 Root      2 :     3.359832241031695   Change is   -0.315512113626645
 Root      3 :     3.824697711580678   Change is   -0.044880985414063
 Root      4 :     3.997200592496547   Change is   -0.051371316953532
 Root      5 :     4.462810871301141   Change is   -0.173598308149958
 Root      6 :     4.716790771496097   Change is   -0.131000592537949
 Root      7 :     5.074289833750412   Change is   -0.496066600150672
 Root      8 :     5.150119481358711   Change is   -0.040482693634554
 Root      9 :     5.420524628290145   Change is   -0.488180635098767
 Root     10 :     5.773268141982559   Change is   -0.015930099387284
 Root     11 :     5.800142315902566   Change is   -0.007934986859225
 Root     12 :     6.238475577755805   Change is   -0.302874565982134
 Iteration     3 Dimension    96 NMult    72 NNew     24
 CISAX will form     8 AO SS matrices at one time.
 NMat=     8 NSing=     8 JSym2X= 0.
 NMat=     8 NSing=     8 JSym2X= 0.
 NMat=     8 NSing=     8 JSym2X= 0.
 Root      1 not converged, maximum delta is    0.002239732072575
 Root      2 not converged, maximum delta is    0.011370970036796
 Root      3 not converged, maximum delta is    0.002384970386472
 Root      4 not converged, maximum delta is    0.002520825743893
 Root      5 not converged, maximum delta is    0.003374516608575
 Root      6 not converged, maximum delta is    0.004199026205870
 Root      7 not converged, maximum delta is    0.010059902658756
 Root      8 not converged, maximum delta is    0.006321392975788
 Root      9 not converged, maximum delta is    0.024217170499350
 Root     10 not converged, maximum delta is    0.001899727763248
 Root     11 not converged, maximum delta is    0.001028267640082
 Root     12 not converged, maximum delta is    0.017514338219024
 Excitation Energies [eV] at current iteration:
 Root      1 :     3.310977115212387   Change is   -0.001103708614934
 Root      2 :     3.351917082029467   Change is   -0.007915159002228
 Root      3 :     3.823286595321580   Change is   -0.001411116259098
 Root      4 :     3.995812623255596   Change is   -0.001387969240951
 Root      5 :     4.459539132502440   Change is   -0.003271738798701
 Root      6 :     4.712903136476549   Change is   -0.003887635019548
 Root      7 :     5.058347578336335   Change is   -0.015942255414077
 Root      8 :     5.148919891165432   Change is   -0.001199590193279
 Root      9 :     5.391784141225317   Change is   -0.028740487064827
 Root     10 :     5.772715745237165   Change is   -0.000552396745394
 Root     11 :     5.799917443508974   Change is   -0.000224872393592
 Root     12 :     6.223547773659032   Change is   -0.014927804096774
 Iteration     4 Dimension   120 NMult    96 NNew     24
 CISAX will form     8 AO SS matrices at one time.
 NMat=     8 NSing=     8 JSym2X= 0.
 NMat=     8 NSing=     8 JSym2X= 0.
 NMat=     8 NSing=     8 JSym2X= 0.
 Root      1 not converged, maximum delta is    0.000359935554259
 Root      2 not converged, maximum delta is    0.000803108098028
 Root      3 not converged, maximum delta is    0.000325543755991
 Root      4 not converged, maximum delta is    0.000289805005496
 Root      5 not converged, maximum delta is    0.000590656697072
 Root      6 not converged, maximum delta is    0.000715224398685
 Root      7 not converged, maximum delta is    0.003931673559980
 Root      8 not converged, maximum delta is    0.000394835944882
 Root      9 not converged, maximum delta is    0.004300311167188
 Root     10 not converged, maximum delta is    0.000510114204367
 Root     11 not converged, maximum delta is    0.000150586734777
 Root     12 not converged, maximum delta is    0.003901789357475
 Excitation Energies [eV] at current iteration:
 Root      1 :     3.310955973070896   Change is   -0.000021142141491
 Root      2 :     3.351756859902574   Change is   -0.000160222126892
 Root      3 :     3.823252443816282   Change is   -0.000034151505298
 Root      4 :     3.995788733447832   Change is   -0.000023889807764
 Root      5 :     4.459468903402507   Change is   -0.000070229099933
 Root      6 :     4.712709501269481   Change is   -0.000193635207068
 Root      7 :     5.056841107667821   Change is   -0.001506470668514
 Root      8 :     5.148875314089709   Change is   -0.000044577075723
 Root      9 :     5.390527036843929   Change is   -0.001257104381387
 Root     10 :     5.772682380738329   Change is   -0.000033364498836
 Root     11 :     5.799906788616112   Change is   -0.000010654892863
 Root     12 :     6.222625934763795   Change is   -0.000921838895237
 Iteration     5 Dimension   144 NMult   120 NNew     24
 CISAX will form     8 AO SS matrices at one time.
 NMat=     8 NSing=     8 JSym2X= 0.
 NMat=     8 NSing=     8 JSym2X= 0.
 NMat=     8 NSing=     8 JSym2X= 0.
 Root      1 not converged, maximum delta is    0.000052518714595
 Root      2 not converged, maximum delta is    0.000100878677002
 Root      3 not converged, maximum delta is    0.000055313900268
 Root      4 not converged, maximum delta is    0.000046614805697
 Root      5 not converged, maximum delta is    0.000092624176232
 Root      6 not converged, maximum delta is    0.000221026129615
 Root      7 not converged, maximum delta is    0.001133898607471
 Root      8 not converged, maximum delta is    0.000097945485930
 Root      9 not converged, maximum delta is    0.000718357914795
 Root     10 not converged, maximum delta is    0.000054963293774
 Root     11 not converged, maximum delta is    0.000034135527723
 Root     12 not converged, maximum delta is    0.003422262026584
 Excitation Energies [eV] at current iteration:
 Root      1 :     3.310955406087928   Change is   -0.000000566982968
 Root      2 :     3.351753853967997   Change is   -0.000003005934578
 Root      3 :     3.823251595672354   Change is   -0.000000848143927
 Root      4 :     3.995788130703145   Change is   -0.000000602744687
 Root      5 :     4.459466846878853   Change is   -0.000002056523653
 Root      6 :     4.712693999937707   Change is   -0.000015501331774
 Root      7 :     5.056736670657004   Change is   -0.000104437010817
 Root      8 :     5.148873605834762   Change is   -0.000001708254947
 Root      9 :     5.390462876083913   Change is   -0.000064160760017
 Root     10 :     5.772680328619833   Change is   -0.000002052118496
 Root     11 :     5.799906172261064   Change is   -0.000000616355048
 Root     12 :     6.222458261846683   Change is   -0.000167672917111
 Iteration     6 Dimension   168 NMult   144 NNew     24
 CISAX will form     8 AO SS matrices at one time.
 NMat=     8 NSing=     8 JSym2X= 0.
 NMat=     8 NSing=     8 JSym2X= 0.
 NMat=     8 NSing=     8 JSym2X= 0.
 Root      1 not converged, maximum delta is    0.000005040482149
 Root      2 not converged, maximum delta is    0.000013882667518
 Root      3 not converged, maximum delta is    0.000006670761496
 Root      4 not converged, maximum delta is    0.000005659802541
 Root      5 not converged, maximum delta is    0.000015450331555
 Root      6 not converged, maximum delta is    0.000022533409222
 Root      7 not converged, maximum delta is    0.000128697778827
 Root      8 not converged, maximum delta is    0.000012670967329
 Root      9 not converged, maximum delta is    0.000142013940393
 Root     10 not converged, maximum delta is    0.000020146186033
 Root     11 not converged, maximum delta is    0.000009078451350
 Root     12 not converged, maximum delta is    0.001433354807426
 Excitation Energies [eV] at current iteration:
 Root      1 :     3.310955393613546   Change is   -0.000000012474383
 Root      2 :     3.351753801465077   Change is   -0.000000052502919
 Root      3 :     3.823251574379751   Change is   -0.000000021292603
 Root      4 :     3.995788118006513   Change is   -0.000000012696632
 Root      5 :     4.459466781336993   Change is   -0.000000065541860
 Root      6 :     4.712693580936138   Change is   -0.000000419001569
 Root      7 :     5.056730931136516   Change is   -0.000005739520487
 Root      8 :     5.148873535142465   Change is   -0.000000070692296
 Root      9 :     5.390459833826049   Change is   -0.000003042257864
 Root     10 :     5.772680203729091   Change is   -0.000000124890742
 Root     11 :     5.799906126135310   Change is   -0.000000046125754
 Root     12 :     6.222441904349076   Change is   -0.000016357497608
 Iteration     7 Dimension   192 NMult   168 NNew     24
 CISAX will form     8 AO SS matrices at one time.
 NMat=     8 NSing=     8 JSym2X= 0.
 NMat=     8 NSing=     8 JSym2X= 0.
 NMat=     8 NSing=     8 JSym2X= 0.
 Root      1 has converged.
 Root      2 not converged, maximum delta is    0.000002464459847
 Root      3 not converged, maximum delta is    0.000001345691586
 Root      4 has converged.
 Root      5 not converged, maximum delta is    0.000003166196468
 Root      6 not converged, maximum delta is    0.000005944627017
 Root      7 not converged, maximum delta is    0.000023264662195
 Root      8 not converged, maximum delta is    0.000003003518889
 Root      9 not converged, maximum delta is    0.000035413393285
 Root     10 not converged, maximum delta is    0.000006594726924
 Root     11 not converged, maximum delta is    0.000002724606030
 Root     12 not converged, maximum delta is    0.000115660144660
 Excitation Energies [eV] at current iteration:
 Root      1 :     3.310955393380923   Change is   -0.000000000232622
 Root      2 :     3.351753800667125   Change is   -0.000000000797952
 Root      3 :     3.823251573952636   Change is   -0.000000000427115
 Root      4 :     3.995788117721075   Change is   -0.000000000285438
 Root      5 :     4.459466779594668   Change is   -0.000000001742325
 Root      6 :     4.712693567581598   Change is   -0.000000013354540
 Root      7 :     5.056730659123165   Change is   -0.000000272013352
 Root      8 :     5.148873532634891   Change is   -0.000000002507575
 Root      9 :     5.390459699663281   Change is   -0.000000134162767
 Root     10 :     5.772680192812814   Change is   -0.000000010916276
 Root     11 :     5.799906123196514   Change is   -0.000000002938796
 Root     12 :     6.222440938961401   Change is   -0.000000965387674
 Iteration     8 Dimension   212 NMult   192 NNew     20
 CISAX will form    10 AO SS matrices at one time.
 NMat=    10 NSing=    10 JSym2X= 0.
 NMat=    10 NSing=    10 JSym2X= 0.
 Root      1 has converged.
 Root      2 has converged.
 Root      3 has converged.
 Root      4 has converged.
 Root      5 has converged.
 Root      6 not converged, maximum delta is    0.000001559932668
 Root      7 not converged, maximum delta is    0.000003493838666
 Root      8 has converged.
 Root      9 not converged, maximum delta is    0.000007506168474
 Root     10 not converged, maximum delta is    0.000001472072136
 Root     11 has converged.
 Root     12 not converged, maximum delta is    0.000012439432763
 Excitation Energies [eV] at current iteration:
 Root      1 :     3.310955393380749   Change is   -0.000000000000174
 Root      2 :     3.351753800650251   Change is   -0.000000000016874
 Root      3 :     3.823251573942358   Change is   -0.000000000010278
 Root      4 :     3.995788117719265   Change is   -0.000000000001810
 Root      5 :     4.459466779530589   Change is   -0.000000000064078
 Root      6 :     4.712693567077942   Change is   -0.000000000503656
 Root      7 :     5.056730649308443   Change is   -0.000000009814722
 Root      8 :     5.148873532512288   Change is   -0.000000000122603
 Root      9 :     5.390459692097739   Change is   -0.000000007565543
 Root     10 :     5.772680191914434   Change is   -0.000000000898380
 Root     11 :     5.799906122981326   Change is   -0.000000000215189
 Root     12 :     6.222440882699880   Change is   -0.000000056261521
 Iteration     9 Dimension   222 NMult   212 NNew     10
 CISAX will form    10 AO SS matrices at one time.
 NMat=    10 NSing=    10 JSym2X= 0.
 Root      1 has converged.
 Root      2 has converged.
 Root      3 has converged.
 Root      4 has converged.
 Root      5 has converged.
 Root      6 has converged.
 Root      7 has converged.
 Root      8 has converged.
 Root      9 not converged, maximum delta is    0.000001051253606
 Root     10 has converged.
 Root     11 has converged.
 Root     12 not converged, maximum delta is    0.000005131385142
 Excitation Energies [eV] at current iteration:
 Root      1 :     3.310955393380749   Change is    0.000000000000000
 Root      2 :     3.351753800650104   Change is   -0.000000000000147
 Root      3 :     3.823251573942315   Change is   -0.000000000000043
 Root      4 :     3.995788117719183   Change is   -0.000000000000082
 Root      5 :     4.459466779529556   Change is   -0.000000000001032
 Root      6 :     4.712693567059154   Change is   -0.000000000018787
 Root      7 :     5.056730648965891   Change is   -0.000000000342552
 Root      8 :     5.148873532511297   Change is   -0.000000000000990
 Root      9 :     5.390459691755547   Change is   -0.000000000342191
 Root     10 :     5.772680191859550   Change is   -0.000000000054884
 Root     11 :     5.799906122981311   Change is   -0.000000000000014
 Root     12 :     6.222440879155483   Change is   -0.000000003544396
 Iteration    10 Dimension   226 NMult   222 NNew      4
 CISAX will form     4 AO SS matrices at one time.
 NMat=     4 NSing=     4 JSym2X= 0.
 Root      1 has converged.
 Root      2 has converged.
 Root      3 has converged.
 Root      4 has converged.
 Root      5 has converged.
 Root      6 has converged.
 Root      7 has converged.
 Root      8 has converged.
 Root      9 has converged.
 Root     10 has converged.
 Root     11 has converged.
 Root     12 not converged, maximum delta is    0.000001223291392
 Excitation Energies [eV] at current iteration:
 Root      1 :     3.310955393380724   Change is   -0.000000000000025
 Root      2 :     3.351753800650030   Change is   -0.000000000000074
 Root      3 :     3.823251573942422   Change is    0.000000000000107
 Root      4 :     3.995788117719100   Change is   -0.000000000000082
 Root      5 :     4.459466779529501   Change is   -0.000000000000055
 Root      6 :     4.712693567058806   Change is   -0.000000000000349
 Root      7 :     5.056730648965598   Change is   -0.000000000000293
 Root      8 :     5.148873532510723   Change is   -0.000000000000575
 Root      9 :     5.390459691738771   Change is   -0.000000000016776
 Root     10 :     5.772680191859592   Change is    0.000000000000042
 Root     11 :     5.799906122981326   Change is    0.000000000000014
 Root     12 :     6.222440878864607   Change is   -0.000000000290877
 Iteration    11 Dimension   228 NMult   226 NNew      2
 CISAX will form     2 AO SS matrices at one time.
 NMat=     2 NSing=     2 JSym2X= 0.
 Root      1 has converged.
 Root      2 has converged.
 Root      3 has converged.
 Root      4 has converged.
 Root      5 has converged.
 Root      6 has converged.
 Root      7 has converged.
 Root      8 has converged.
 Root      9 has converged.
 Root     10 has converged.
 Root     11 has converged.
 Root     12 has converged.
 Excitation Energies [eV] at current iteration:
 Root      1 :     3.310955393380799   Change is    0.000000000000075
 Root      2 :     3.351753800650079   Change is    0.000000000000049
 Root      3 :     3.823251573942358   Change is   -0.000000000000064
 Root      4 :     3.995788117719100   Change is    0.000000000000000
 Root      5 :     4.459466779529539   Change is    0.000000000000037
 Root      6 :     4.712693567058754   Change is   -0.000000000000052
 Root      7 :     5.056730648965241   Change is   -0.000000000000357
 Root      8 :     5.148873532510755   Change is    0.000000000000032
 Root      9 :     5.390459691738741   Change is   -0.000000000000030
 Root     10 :     5.772680191859536   Change is   -0.000000000000057
 Root     11 :     5.799906122981326   Change is    0.000000000000000
 Root     12 :     6.222440878845476   Change is   -0.000000000019130
 Convergence achieved on expansion vectors.
 ***********************************************************************
 Excited states from <AA,BB:AA,BB> singles matrix:
 ***********************************************************************
 
 ExtSpn:  IState=     1 X2= 1.003 Y2= 0.003 X2-Y2-1= 0.00D+00
          S2Grnd=  0.000 Ra=  0.500 Rb=  0.500 T=  1.000 S2Ext=  2.000 S2=  2.000
 ExtSpn:  IState=     2 X2= 1.037 Y2= 0.037 X2-Y2-1=-2.22D-16
          S2Grnd=  0.000 Ra=  0.500 Rb=  0.500 T=  1.000 S2Ext=  2.000 S2=  2.000
 ExtSpn:  IState=     3 X2= 1.001 Y2= 0.001 X2-Y2-1=-4.44D-16
          S2Grnd=  0.000 Ra=  0.500 Rb=  0.500 T= -1.000 S2Ext=  0.000 S2=  0.000
 ExtSpn:  IState=     4 X2= 1.004 Y2= 0.004 X2-Y2-1=-5.55D-16
          S2Grnd=  0.000 Ra=  0.500 Rb=  0.500 T=  1.000 S2Ext=  2.000 S2=  2.000
 ExtSpn:  IState=     5 X2= 1.013 Y2= 0.013 X2-Y2-1=-4.44D-16
          S2Grnd=  0.000 Ra=  0.500 Rb=  0.500 T=  1.000 S2Ext=  2.000 S2=  2.000
 ExtSpn:  IState=     6 X2= 1.004 Y2= 0.004 X2-Y2-1=-9.99D-16
          S2Grnd=  0.000 Ra=  0.500 Rb=  0.500 T= -1.000 S2Ext= -0.000 S2=  0.000
 ExtSpn:  IState=     7 X2= 1.009 Y2= 0.009 X2-Y2-1= 4.44D-16
          S2Grnd=  0.000 Ra=  0.500 Rb=  0.500 T= -1.000 S2Ext= -0.000 S2=  0.000
 ExtSpn:  IState=     8 X2= 1.003 Y2= 0.003 X2-Y2-1=-1.33D-15
          S2Grnd=  0.000 Ra=  0.500 Rb=  0.500 T=  1.000 S2Ext=  2.000 S2=  2.000
 ExtSpn:  IState=     9 X2= 1.017 Y2= 0.017 X2-Y2-1=-1.11D-16
          S2Grnd=  0.000 Ra=  0.500 Rb=  0.500 T=  1.000 S2Ext=  2.000 S2=  2.000
 ExtSpn:  IState=    10 X2= 1.000 Y2= 0.000 X2-Y2-1=-1.11D-16
          S2Grnd=  0.000 Ra=  0.500 Rb=  0.500 T=  1.000 S2Ext=  2.000 S2=  2.000
 ExtSpn:  IState=    11 X2= 1.000 Y2= 0.000 X2-Y2-1= 8.88D-16
          S2Grnd=  0.000 Ra=  0.500 Rb=  0.500 T= -1.000 S2Ext=  0.000 S2=  0.000
 ExtSpn:  IState=    12 X2= 1.009 Y2= 0.009 X2-Y2-1= 0.00D+00
          S2Grnd=  0.000 Ra=  0.500 Rb=  0.500 T= -1.000 S2Ext= -0.000 S2=  0.000
 1PDM for each excited state written to RWF  633
 Ground to excited state transition densities written to RWF  633
 Ground to excited state transition electric dipole moments (Au):
       state          X           Y           Z        Dip. S.      Osc.
         1        -0.0000      0.0000      0.0000      0.0000      0.0000
         2        -0.0000     -0.0000     -0.0000      0.0000      0.0000
         3        -0.0000      0.0000     -0.0217      0.0005      0.0000
         4         0.0000     -0.0000     -0.0000      0.0000      0.0000
         5         0.0000      0.0000     -0.0000      0.0000      0.0000
         6        -0.1973      0.5865      0.0000      0.3829      0.0442
         7        -1.8530     -0.2588     -0.0000      3.5006      0.4337
         8         0.0000      0.0000     -0.0000      0.0000      0.0000
         9        -0.0000     -0.0000     -0.0000      0.0000      0.0000
        10         0.0000     -0.0000      0.0000      0.0000      0.0000
        11        -0.0000     -0.0001      0.0017      0.0000      0.0000
        12        -0.0588     -1.2266     -0.0000      1.5080      0.2299
 Ground to excited state transition velocity dipole moments (Au):
       state          X           Y           Z        Dip. S.      Osc.
         1         0.0000      0.0000     -0.0000      0.0000      0.0000
         2         0.0000     -0.0000      0.0000      0.0000      0.0000
         3         0.0000      0.0000      0.0014      0.0000      0.0000
         4        -0.0000      0.0000     -0.0000      0.0000      0.0000
         5        -0.0000     -0.0000      0.0000      0.0000      0.0000
         6         0.0340     -0.1048     -0.0000      0.0121      0.0467
         7         0.3351      0.0422     -0.0000      0.1141      0.4092
         8        -0.0000     -0.0000     -0.0000      0.0000      0.0000
         9         0.0000      0.0000      0.0000      0.0000      0.0000
        10         0.0000      0.0000     -0.0000      0.0000      0.0000
        11        -0.0000      0.0000     -0.0030      0.0000      0.0000
        12         0.0078      0.2799      0.0000      0.0784      0.2286
 Ground to excited state transition magnetic dipole moments (Au):
       state          X           Y           Z
         1         0.0000      0.0000      0.0000
         2        -0.0000     -0.0000     -0.0000
         3         0.4298      0.7301      0.0000
         4        -0.0000     -0.0000     -0.0000
         5         0.0000      0.0000     -0.0000
         6        -0.0000     -0.0000     -0.5200
         7        -0.0000     -0.0000     -0.0684
         8        -0.0000     -0.0000     -0.0000
         9        -0.0000     -0.0000     -0.0000
        10         0.0000      0.0000      0.0000
        11         0.0955      0.0143      0.0001
        12         0.0000     -0.0000      0.9077
 Ground to excited state transition velocity quadrupole moments (Au):
       state          XX          YY          ZZ          XY          XZ          YZ
         1         0.0000      0.0000     -0.0000     -0.0000     -0.0000      0.0000
         2         0.0000      0.0000     -0.0000     -0.0000     -0.0000      0.0000
         3         0.0000      0.0000      0.0000     -0.0000     -0.0501      0.0296
         4        -0.0000      0.0000     -0.0000      0.0000      0.0000     -0.0000
         5        -0.0000     -0.0000      0.0000     -0.0000     -0.0000      0.0000
         6         0.0248      0.0039      0.0053     -0.2086     -0.0000     -0.0000
         7         0.2746     -0.0358      0.0099     -0.1113      0.0000     -0.0000
         8        -0.0000      0.0000     -0.0000      0.0000      0.0000     -0.0000
         9         0.0000     -0.0000      0.0000     -0.0000      0.0000     -0.0000
        10        -0.0000      0.0000     -0.0000      0.0000     -0.0000      0.0000
        11         0.0000     -0.0000     -0.0000      0.0001     -0.0214      0.0161
        12         0.0182      0.0220     -0.0063      0.6713      0.0000      0.0000
 <0|del|b> * <b|rxdel|0> + <0|del|b> * <b|delr+rdel|0>
 Rotatory Strengths (R) in cgs (10**-40 erg-esu-cm/Gauss)
       state          XX          YY          ZZ    R(velocity)    E-M Angle
         1         0.0000      0.0000      0.0000      0.0000       90.00
         2        -0.0000     -0.0000     -0.0000     -0.0000       90.00
         3         0.0033      0.0036      0.0058      0.0042       90.00
         4        -0.0000      0.0000     -0.0000     -0.0000       90.00
         5        -0.0000     -0.0000      0.0000     -0.0000       90.00
[...]
     4  H   -0.000000  -0.000000   0.000000   0.000000  -0.000000  -0.000000
     5  H   -0.000000  -0.000000   0.000000  -0.000000   0.000000  -0.000000
     6  H   -0.000000   0.000000   0.000000  -0.000000  -0.000000   0.000000
     7  C   -0.000000  -0.000000  -0.000000   0.000000   0.000000   0.000000
     8  C   -0.000000   0.000000   0.000000   0.000000   0.000000  -0.000000
     9  C   -0.000000  -0.000000   0.000000   0.000000   0.000000  -0.000000
    10  C    0.000000   0.000000   0.000000  -0.000000  -0.000000  -0.000000
    11  H   -0.000000   0.000000   0.000000  -0.000000  -0.000000  -0.000000
    12  C    0.000000  -0.000000  -0.000000  -0.000000  -0.000000   0.000000
    13  H    0.000000   0.000000   0.000000   0.000000   0.000000  -0.000000
    14  C    0.000000  -0.000000  -0.000000  -0.000000  -0.000000   0.000000
    15  H   -0.000000   0.000000   0.000000  -0.000000  -0.000000  -0.000000
    16  H    0.000000   0.000000  -0.000000  -0.000000  -0.000000  -0.000000
    17  H    0.000000  -0.000000  -0.000000   0.000000   0.000000   0.000000
               7          8          9         10         11         12
     1  C   -0.000000  -0.000000  -0.000000   0.000000  -0.000000   0.000000
     2  O   -0.000000   0.000000  -0.000000   0.000000   0.000000  -0.000000
     3  C   -0.000000   0.000000   0.000000   0.000000   0.000000  -0.000000
     4  H    0.000000   0.000000   0.000000  -0.000000  -0.000000  -0.000000
     5  H    0.000000   0.000000   0.000000  -0.000000  -0.000000  -0.000000
     6  H    0.000000  -0.000000  -0.000000  -0.000000  -0.000000   0.000000
     7  C   -0.000000  -0.000000   0.000000  -0.000000  -0.000000   0.000000
     8  C   -0.000000   0.000000  -0.000000   0.000000  -0.000000  -0.000000
     9  C    0.000000  -0.000000   0.000000   0.000000   0.000000  -0.000000
    10  C   -0.000000   0.000000   0.000000  -0.000000   0.000000   0.000000
    11  H   -0.000000  -0.000000   0.000000   0.000000   0.000000   0.000000
    12  C    0.000000  -0.000000  -0.000000   0.000000   0.000000   0.000000
    13  H    0.000000  -0.000000   0.000000  -0.000000   0.000000   0.000000
    14  C   -0.000000   0.000000  -0.000000   0.000000  -0.000000   0.000000
    15  H    0.000000  -0.000000   0.000000  -0.000000  -0.000000   0.000000
    16  H   -0.000000  -0.000000   0.000000  -0.000000   0.000000   0.000000
    17  H    0.000000   0.000000   0.000000   0.000000  -0.000000  -0.000000
              13         14         15         16         17
     1  C    0.000000   0.000000  -0.000000   0.000000   0.000000
     2  O    0.000000  -0.000000   0.000000   0.000000  -0.000000
     3  C    0.000000  -0.000000   0.000000  -0.000000  -0.000000
     4  H    0.000000  -0.000000  -0.000000  -0.000000   0.000000
     5  H    0.000000  -0.000000  -0.000000  -0.000000   0.000000
     6  H   -0.000000   0.000000  -0.000000  -0.000000   0.000000
     7  C    0.000000  -0.000000   0.000000  -0.000000   0.000000
     8  C   -0.000000   0.000000  -0.000000  -0.000000   0.000000
     9  C    0.000000  -0.000000   0.000000   0.000000   0.000000
    10  C   -0.000000   0.000000  -0.000000  -0.000000   0.000000
    11  H    0.000000  -0.000000  -0.000000   0.000000  -0.000000
    12  C    0.000000   0.000000   0.000000   0.000000  -0.000000
    13  H   -0.000000  -0.000000  -0.000000   0.000000   0.000000
    14  C   -0.000000   0.000000   0.000000  -0.000000  -0.000000
    15  H   -0.000000   0.000000   0.000000  -0.000000  -0.000000
    16  H    0.000000  -0.000000  -0.000000  -0.000000   0.000000
    17  H    0.000000  -0.000000  -0.000000   0.000000   0.000000
 Mulliken charges and spin densities:
               1          2
     1  C    0.400011   0.000000
     2  O   -0.513236  -0.000000
     3  C   -0.401449  -0.000000
     4  H    0.151437   0.000000
     5  H    0.151453   0.000000
     6  H    0.133800   0.000000
     7  C    0.037278  -0.000000
     8  C   -0.111209   0.000000
     9  C   -0.129053   0.000000
    10  C   -0.102295  -0.000000
    11  H    0.117221   0.000000
    12  C   -0.106128   0.000000
    13  H    0.117254  -0.000000
    14  C   -0.091036   0.000000
    15  H    0.117102   0.000000
    16  H    0.116695  -0.000000
    17  H    0.112156   0.000000
 Sum of Mulliken charges =  -0.00000  -0.00000
 Mulliken charges and spin densities with hydrogens summed into heavy atoms:
               1          2
     1  C    0.400011   0.000000
     2  O   -0.513236  -0.000000
     3  C    0.035241  -0.000000
     7  C    0.037278  -0.000000
     8  C    0.006012   0.000000
     9  C   -0.011799  -0.000000
    10  C    0.014807  -0.000000
    12  C    0.010568   0.000000
    14  C    0.021120   0.000000
 Electronic spatial extent (au):  <R**2>=           1252.2362
 Charge=             -0.0000 electrons
 Dipole moment (field-independent basis, Debye):
    X=              2.3274    Y=              3.3254    Z=              0.0003  Tot=              4.0589
 Quadrupole moment (field-independent basis, Debye-Ang):
   XX=            -49.5293   YY=            -49.1410   ZZ=            -54.3699
   XY=             -7.7873   XZ=             -0.0013   YZ=             -0.0003
 Traceless Quadrupole moment (field-independent basis, Debye-Ang):
   XX=              1.4841   YY=              1.8723   ZZ=             -3.3565
   XY=             -7.7873   XZ=             -0.0013   YZ=             -0.0003
 Octapole moment (field-independent basis, Debye-Ang**2):
  XXX=             19.3643  YYY=              4.4387  ZZZ=             -0.0001  XYY=             10.4692
  XXY=             16.6763  XXZ=             -0.0002  XZZ=             -9.1602  YZZ=             -0.6436
  YYZ=              0.0001  XYZ=              0.0010
 Hexadecapole moment (field-independent basis, Debye-Ang**3):
 XXXX=          -1089.0686 YYYY=           -408.8732 ZZZZ=            -60.5144 XXXY=            -33.4416
 XXXZ=             -0.0003 YYYX=             -7.0340 YYYZ=             -0.0039 ZZZX=              0.0056
 ZZZY=             -0.0043 XXYY=           -262.6007 XXZZ=           -211.3306 YYZZ=            -85.6669
 XXYZ=             -0.0021 YYXZ=              0.0002 ZZXY=              0.8296
 N-N= 3.963629044985D+02 E-N=-1.686657276588D+03  KE= 3.807807872054D+02
                          Isotropic Fermi Contact Couplings
        Atom                 a.u.       MegaHertz       Gauss      10(-4) cm-1
     1  C(13)              0.00000       0.00004       0.00001       0.00001
     2  O(17)             -0.00000       0.00002       0.00001       0.00001
     3  C(13)             -0.00000      -0.00001      -0.00000      -0.00000
     4  H(1)               0.00000       0.00002       0.00001       0.00001
     5  H(1)               0.00000       0.00002       0.00001       0.00001
     6  H(1)               0.00000       0.00000       0.00000       0.00000
     7  C(13)             -0.00000      -0.00000      -0.00000      -0.00000
     8  C(13)              0.00000       0.00000       0.00000       0.00000
     9  C(13)             -0.00000      -0.00000      -0.00000      -0.00000
    10  C(13)             -0.00000      -0.00002      -0.00001      -0.00001
    11  H(1)               0.00000       0.00002       0.00001       0.00001
    12  C(13)              0.00000       0.00001       0.00000       0.00000
    13  H(1)              -0.00000      -0.00002      -0.00001      -0.00001
    14  C(13)              0.00000       0.00001       0.00000       0.00000
    15  H(1)               0.00000       0.00001       0.00000       0.00000
    16  H(1)              -0.00000      -0.00001      -0.00000      -0.00000
    17  H(1)              -0.00000      -0.00000      -0.00000      -0.00000
 --------------------------------------------------------
       Center         ----  Spin Dipole Couplings  ----
                      3XX-RR        3YY-RR        3ZZ-RR
 --------------------------------------------------------
     1   Atom       -0.000000     -0.000000      0.000000
     2   Atom        0.000000      0.000000     -0.000001
     3   Atom        0.000000     -0.000000      0.000000
     4   Atom       -0.000000      0.000000     -0.000000
     5   Atom       -0.000000      0.000000     -0.000000
     6   Atom        0.000000     -0.000000      0.000000
     7   Atom       -0.000000     -0.000000      0.000000
     8   Atom        0.000000      0.000000     -0.000000
     9   Atom        0.000000      0.000000     -0.000000
    10   Atom        0.000000      0.000000     -0.000000
    11   Atom       -0.000000     -0.000000      0.000000
    12   Atom       -0.000000     -0.000000      0.000000
    13   Atom        0.000000      0.000000     -0.000000
    14   Atom       -0.000000     -0.000000      0.000000
    15   Atom        0.000000     -0.000000      0.000000
    16   Atom       -0.000000      0.000000     -0.000000
    17   Atom        0.000000     -0.000000      0.000000
 --------------------------------------------------------
                        XY            XZ            YZ
 --------------------------------------------------------
     1   Atom       -0.000000     -0.000000     -0.000000
     2   Atom       -0.000000      0.000000      0.000000
     3   Atom        0.000000      0.000000     -0.000000
     4   Atom       -0.000000     -0.000000     -0.000000
     5   Atom       -0.000000      0.000000      0.000000
     6   Atom       -0.000000     -0.000000     -0.000000
     7   Atom        0.000000     -0.000000     -0.000000
     8   Atom       -0.000000     -0.000000      0.000000
     9   Atom       -0.000000     -0.000000      0.000000
    10   Atom        0.000000      0.000000     -0.000000
    11   Atom       -0.000000     -0.000000      0.000000
    12   Atom        0.000000     -0.000000      0.000000
    13   Atom        0.000000      0.000000     -0.000000
    14   Atom       -0.000000      0.000000     -0.000000
    15   Atom        0.000000     -0.000000      0.000000
    16   Atom        0.000000     -0.000000     -0.000000
    17   Atom       -0.000000     -0.000000     -0.000000
 --------------------------------------------------------


 ---------------------------------------------------------------------------------
              Anisotropic Spin Dipole Couplings in Principal Axis System
 ---------------------------------------------------------------------------------

       Atom             a.u.   MegaHertz   Gauss  10(-4) cm-1        Axes

              Baa    -0.0000    -0.000    -0.000    -0.000  0.4196  0.9077  0.0001
     1 C(13)  Bbb    -0.0000    -0.000    -0.000    -0.000  0.9077 -0.4196 -0.0000
              Bcc     0.0000     0.000     0.000     0.000 -0.0000 -0.0001  1.0000
 
              Baa    -0.0000     0.000     0.000     0.000 -0.0006 -0.0000  1.0000
     2 O(17)  Bbb     0.0000    -0.000    -0.000    -0.000  0.3845  0.9231  0.0002
              Bcc     0.0000    -0.000    -0.000    -0.000  0.9231 -0.3845  0.0005
 
              Baa    -0.0000    -0.000    -0.000    -0.000 -0.2691  0.9631  0.0007
     3 C(13)  Bbb     0.0000     0.000     0.000     0.000 -0.1855 -0.0526  0.9812
              Bcc     0.0000     0.000     0.000     0.000  0.9451  0.2639  0.1928
 
              Baa    -0.0000    -0.000    -0.000    -0.000  0.6225  0.3473  0.7014
     4 H(1)   Bbb    -0.0000    -0.000    -0.000    -0.000 -0.6013 -0.3614  0.7126
              Bcc     0.0000     0.000     0.000     0.000 -0.5009  0.8653  0.0161
 
              Baa    -0.0000    -0.000    -0.000    -0.000 -0.6223 -0.3475  0.7015
     5 H(1)   Bbb    -0.0000    -0.000    -0.000    -0.000  0.6014  0.3615  0.7125
              Bcc     0.0000     0.000     0.000     0.000 -0.5012  0.8652 -0.0160
 
              Baa    -0.0000    -0.000    -0.000    -0.000  0.3453  0.9385  0.0004
     6 H(1)   Bbb     0.0000     0.000     0.000     0.000 -0.0004 -0.0003  1.0000
              Bcc     0.0000     0.000     0.000     0.000  0.9385 -0.3453  0.0002
 
              Baa    -0.0000    -0.000    -0.000    -0.000  0.7610 -0.6488 -0.0003
     7 C(13)  Bbb    -0.0000    -0.000    -0.000    -0.000  0.6488  0.7610  0.0008
              Bcc     0.0000     0.000     0.000     0.000 -0.0003 -0.0008  1.0000
 
              Baa    -0.0000    -0.000    -0.000    -0.000  0.0014 -0.0003  1.0000
     8 C(13)  Bbb     0.0000     0.000     0.000     0.000  0.4417  0.8971 -0.0004
              Bcc     0.0000     0.000     0.000     0.000  0.8971 -0.4417 -0.0014
 
              Baa    -0.0000    -0.000    -0.000    -0.000  0.0005 -0.0002  1.0000
     9 C(13)  Bbb     0.0000     0.000     0.000     0.000  0.8153  0.5791 -0.0003
              Bcc     0.0000     0.000     0.000     0.000 -0.5791  0.8153  0.0005
 
              Baa    -0.0000    -0.000    -0.000    -0.000 -0.0004  0.0005  1.0000
    10 C(13)  Bbb     0.0000     0.000     0.000     0.000  0.9040 -0.4275  0.0005
              Bcc     0.0000     0.000     0.000     0.000  0.4275  0.9040 -0.0003
 
              Baa    -0.0000    -0.000    -0.000    -0.000  0.6782  0.7348 -0.0000
    11 H(1)   Bbb     0.0000     0.000     0.000     0.000  0.0009 -0.0007  1.0000
              Bcc     0.0000     0.000     0.000     0.000  0.7348 -0.6782 -0.0011
 
              Baa    -0.0000    -0.000    -0.000    -0.000  0.7761 -0.6307  0.0004
    12 C(13)  Bbb    -0.0000    -0.000    -0.000    -0.000  0.6307  0.7761 -0.0004
              Bcc     0.0000     0.000     0.000     0.000 -0.0000  0.0006  1.0000
 
              Baa    -0.0000    -0.000    -0.000    -0.000 -0.0004  0.0011  1.0000
    13 H(1)   Bbb     0.0000     0.000     0.000     0.000 -0.5476  0.8367 -0.0011
              Bcc     0.0000     0.000     0.000     0.000  0.8367  0.5476 -0.0002
 
              Baa    -0.0000    -0.000    -0.000    -0.000  0.7320  0.6813 -0.0001
    14 C(13)  Bbb    -0.0000    -0.000    -0.000    -0.000 -0.6813  0.7320  0.0006
              Bcc     0.0000     0.000     0.000     0.000  0.0005 -0.0004  1.0000
 
              Baa    -0.0000    -0.000    -0.000    -0.000 -0.6343  0.7731 -0.0008
    15 H(1)   Bbb     0.0000     0.000     0.000     0.000 -0.0005  0.0006  1.0000
              Bcc     0.0000     0.000     0.000     0.000  0.7731  0.6343  0.0001
 
              Baa    -0.0000    -0.000    -0.000    -0.000  0.9689 -0.2473  0.0004
    16 H(1)   Bbb    -0.0000    -0.000    -0.000    -0.000 -0.0003  0.0003  1.0000
              Bcc     0.0000     0.000     0.000     0.000  0.2473  0.9689 -0.0002
 
              Baa    -0.0000    -0.000    -0.000    -0.000  0.1253  0.9921  0.0006
    17 H(1)   Bbb     0.0000     0.000     0.000     0.000  0.0007 -0.0006  1.0000
              Bcc     0.0000     0.000     0.000     0.000  0.9921 -0.1253 -0.0008
 

 ---------------------------------------------------------------------------------

 No NMR shielding tensors so no spin-rotation constants.
 Leave Link  601 at Fri May 10 12:41:40 2019, MaxMem=   104857600 cpu:               7.7 elap:               0.3
 (Enter /opt/software/gaussian/g16.b01/l9999.exe)
 Electronic transition elements 
                 1             2             3             4             5 
      1  -0.384804D+03 -0.384801D+03 -0.384782D+03 -0.384779D+03 -0.384768D+03
      2   0.000000D+00  0.000000D+00  0.686484D-04  0.000000D+00  0.000000D+00
      3   0.000000D+00  0.000000D+00  0.347631D-04  0.000000D+00  0.000000D+00
      4   0.000000D+00  0.000000D+00 -0.214130D-01  0.000000D+00  0.000000D+00
      5   0.000000D+00  0.000000D+00 -0.980220D-05  0.000000D+00  0.000000D+00
      6   0.000000D+00  0.000000D+00 -0.440456D-05  0.000000D+00  0.000000D+00
      7   0.000000D+00  0.000000D+00  0.142312D-02  0.000000D+00  0.000000D+00
      8   0.000000D+00  0.000000D+00  0.401664D+00  0.000000D+00  0.000000D+00
      9   0.000000D+00  0.000000D+00  0.745363D+00  0.000000D+00  0.000000D+00
     10   0.000000D+00  0.000000D+00  0.273615D-03  0.000000D+00  0.000000D+00
     11   0.000000D+00  0.000000D+00 -0.251262D-04  0.000000D+00  0.000000D+00
     12   0.000000D+00  0.000000D+00 -0.725444D-05  0.000000D+00  0.000000D+00
     13   0.000000D+00  0.000000D+00 -0.123983D-04  0.000000D+00  0.000000D+00
     14   0.000000D+00  0.000000D+00  0.529874D-04  0.000000D+00  0.000000D+00
     15   0.000000D+00  0.000000D+00 -0.485832D-01  0.000000D+00  0.000000D+00
     16   0.000000D+00  0.000000D+00  0.269587D-01  0.000000D+00  0.000000D+00
                 6             7             8             9            10 
      1  -0.384754D+03 -0.384742D+03 -0.384740D+03 -0.384731D+03 -0.384716D+03
      2  -0.218594D+00  0.272919D-05 -0.180665D+01 -0.146672D-05  0.000000D+00
      3   0.547511D+00  0.000000D+00 -0.249408D+00  0.000000D+00  0.000000D+00
      4   0.157505D-04  0.000000D+00  0.363593D-04  0.000000D+00  0.000000D+00
      5   0.360280D-01  0.000000D+00  0.315878D+00  0.000000D+00  0.000000D+00
      6  -0.934483D-01  0.000000D+00  0.385514D-01  0.000000D+00  0.000000D+00
      7  -0.229590D-05  0.000000D+00 -0.269049D-05  0.000000D+00  0.000000D+00
      8   0.204438D-04  0.000000D+00  0.404894D-04  0.000000D+00  0.000000D+00
      9   0.564197D-04  0.000000D+00  0.175988D-03  0.000000D+00  0.000000D+00
     10  -0.497538D+00  0.000000D+00 -0.818751D-01  0.000000D+00  0.000000D+00
     11   0.230051D-01  0.000000D+00  0.226373D+00  0.000000D+00  0.000000D+00
     12   0.278655D-02  0.000000D+00 -0.334754D-01  0.000000D+00  0.000000D+00
     13   0.562982D-02  0.000000D+00  0.104610D-01  0.000000D+00  0.000000D+00
     14  -0.184719D+00  0.000000D+00 -0.119113D+00  0.000000D+00  0.000000D+00
     15  -0.913461D-05  0.000000D+00 -0.480552D-04  0.000000D+00  0.000000D+00
     16  -0.288778D-05  0.000000D+00  0.563285D-05  0.000000D+00  0.000000D+00
                11            12 
      1  -0.384715D+03 -0.384703D+03
      2   0.171235D-03 -0.154721D+00
      3   0.495066D-03 -0.124865D+01
      4   0.485524D-02 -0.264103D-04
      5  -0.305785D-04  0.276045D-01
      6  -0.972608D-04  0.270603D+00
      7  -0.434262D-02  0.670114D-05
      8   0.106556D+00  0.320428D-04
      9  -0.825612D-02  0.845001D-05
     10  -0.419654D-03  0.882100D+00
     11  -0.290434D-04  0.713479D-01
     12  -0.123038D-04  0.246427D-01
     13  -0.266651D-05 -0.572065D-02
     14  -0.253262D-03  0.646116D+00
     15  -0.178778D-01  0.000000D+00
     16   0.136367D-01  0.162688D-04
 1\1\GINC-GRA617\FOpt\UB3LYP TD-FC\6-31G(d,p)\C8H8O1\RZK\10-May-2019\0\
 \#p opt td=(50-50,nstates=12,root=12) ub3lyp/6-31g(d,p) scrf=(iefpcm,s
 olvent=acetonitrile) guess=(core,mix,always) empiricaldispersion=gd3\\
 Title Card Required\\0,1\C,-1.7085944984,-0.1929358849,0.0001933087\O,
 -2.2061105645,-1.3358597526,-0.0000981315\C,-2.5633246668,1.047190715,
 -0.0000355134\H,-2.3632712002,1.6729716512,0.8803434446\H,-2.362844285
 6,1.6729764367,-0.8803111362\H,-3.6143283211,0.7555360114,-0.000285895
 7\C,-0.2074441015,-0.0517835257,0.0000897802\C,0.5638871175,-1.2486434
 704,0.0000007142\C,0.4139620118,1.2310754623,0.0000697493\C,1.99339206
 99,-1.1766726961,-0.0000778997\H,0.0407297821,-2.1963495665,0.00002204
 71\C,1.8433877428,1.3105802327,0.0000044941\H,-0.1814507117,2.13443227
 04,0.0001223957\C,2.6004539268,0.1074713534,-0.0000810677\H,2.60282278
 73,-2.0713753272,-0.0001230708\H,2.3481966991,2.2689795898,-0.00000024
 99\H,3.6849072128,0.1754325006,-0.000154969\\Version=ES64L-G16RevB.01\
 State=1-A\HF=-384.9199581\S2=0.\S2-1=0.\S2A=0.\RMSD=2.396e-09\RMSF=5.6
 28e-05\Dipole=1.5023756,1.2735355,0.0001058\PG=C01 [X(C8H8O1)]\\@


 MARY HAD A LITTLE LAMB
      HIS FEET WERE BLACK AS SOOT,
           AND EVERYWHERE THAT MARY WENT
                HIS SOOTY FOOT HE PUT.

                    -- NONAME
 Job cpu time:       0 days  4 hours 36 minutes 19.0 seconds.
 Elapsed time:       0 days  0 hours  8 minutes 42.7 seconds.
 File lengths (MBytes):  RWF=    328 Int=      0 D2E=      0 Chk=     21 Scr=      1
 Normal termination of Gaussian 16 at Fri May 10 12:41:40 2019.
