 Entering Gaussian System, Link 0=g16
 Initial command:
 /opt/software/gaussian/g16.b01/l1.exe "/localscratch/rzk.14624335.0/Gau-8475.inp" -scrdir="/localscratch/rzk.14624335.0/"
 Entering Link 1 = /opt/software/gaussian/g16.b01/l1.exe PID=      8476.
  
 Copyright (c) 1988-2017, Gaussian, Inc.  All Rights Reserved.
  
 This is part of the Gaussian(R) 16 program.  It is based on
 the Gaussian(R) 09 system (copyright 2009, Gaussian, Inc.),
 the Gaussian(R) 03 system (copyright 2003, Gaussian, Inc.),
 the Gaussian(R) 98 system (copyright 1998, Gaussian, Inc.),
 the Gaussian(R) 94 system (copyright 1995, Gaussian, Inc.),
 the Gaussian 92(TM) system (copyright 1992, Gaussian, Inc.),
 the Gaussian 90(TM) system (copyright 1990, Gaussian, Inc.),
 the Gaussian 88(TM) system (copyright 1988, Gaussian, Inc.),
 the Gaussian 86(TM) system (copyright 1986, Carnegie Mellon
 University), and the Gaussian 82(TM) system (copyright 1983,
 Carnegie Mellon University). Gaussian is a federally registered
 trademark of Gaussian, Inc.
  
 This software contains proprietary and confidential information,
 including trade secrets, belonging to Gaussian, Inc.
  
 This software is provided under written license and may be
 used, copied, transmitted, or stored only in accord with that
 written license.
  
 The following legend is applicable only to US Government
 contracts under FAR:
  
                    RESTRICTED RIGHTS LEGEND
  
 Use, reproduction and disclosure by the US Government is
 subject to restrictions as set forth in subparagraphs (a)
 and (c) of the Commercial Computer Software - Restricted
 Rights clause in FAR 52.227-19.
  
 Gaussian, Inc.
 340 Quinnipiac St., Bldg. 40, Wallingford CT 06492
  
  
 ---------------------------------------------------------------
 Warning -- This program may not be used in any manner that
 competes with the business of Gaussian, Inc. or will provide
 assistance to any competitor of Gaussian, Inc.  The licensee
 of this program is prohibited from giving any competitor of
 Gaussian, Inc. access to this program.  By using this program,
 the user acknowledges that Gaussian, Inc. is engaged in the
 business of creating and licensing software in the field of
 computational chemistry and represents and warrants to the
 licensee that it is not a competitor of Gaussian, Inc. and that
 it will not use this program in any manner prohibited above.
 ---------------------------------------------------------------
  

 Cite this work as:
 Gaussian 16, Revision B.01,
 M. J. Frisch, G. W. Trucks, H. B. Schlegel, G. E. Scuseria, 
 M. A. Robb, J. R. Cheeseman, G. Scalmani, V. Barone, 
 G. A. Petersson, H. Nakatsuji, X. Li, M. Caricato, A. V. Marenich, 
 J. Bloino, B. G. Janesko, R. Gomperts, B. Mennucci, H. P. Hratchian, 
 J. V. Ortiz, A. F. Izmaylov, J. L. Sonnenberg, D. Williams-Young, 
 F. Ding, F. Lipparini, F. Egidi, J. Goings, B. Peng, A. Petrone, 
 T. Henderson, D. Ranasinghe, V. G. Zakrzewski, J. Gao, N. Rega, 
 G. Zheng, W. Liang, M. Hada, M. Ehara, K. Toyota, R. Fukuda, 
 J. Hasegawa, M. Ishida, T. Nakajima, Y. Honda, O. Kitao, H. Nakai, 
 T. Vreven, K. Throssell, J. A. Montgomery, Jr., J. E. Peralta, 
 F. Ogliaro, M. J. Bearpark, J. J. Heyd, E. N. Brothers, K. N. Kudin, 
 V. N. Staroverov, T. A. Keith, R. Kobayashi, J. Normand, 
 K. Raghavachari, A. P. Rendell, J. C. Burant, S. S. Iyengar, 
 J. Tomasi, M. Cossi, J. M. Millam, M. Klene, C. Adamo, R. Cammi, 
 J. W. Ochterski, R. L. Martin, K. Morokuma, O. Farkas, 
 J. B. Foresman, and D. J. Fox, Gaussian, Inc., Wallingford CT, 2016.
 
 ******************************************
 Gaussian 16:  ES64L-G16RevB.01 20-Dec-2017
                10-May-2019 
 ******************************************
 %NProcShared=32
 Will use up to   32 processors via shared memory.
 %chk=AAH.chk
 ----------------------------------------------------------------------
 #p opt=modredundant td=(nstates=24,root=03) ub3lyp/6-31g(d,p) scrf=(ie
 fpcm,solvent=acetonitrile) guess=(core,mix,always) empiricaldispersion
 =gd3
 ----------------------------------------------------------------------
 1/18=120,19=15,26=3,38=1/1,3;
 2/9=110,12=2,17=6,18=5,40=1/2;
 3/5=1,6=6,7=101,11=2,25=1,30=1,70=2201,71=1,72=2,74=-5,116=2,124=31/1,2,3,8;
 4/5=2,13=-1/1;
 5/5=2,38=5,53=2/2;
 8/6=1,10=2,107=3,108=24/1;
 9/8=3,15=2,41=24,42=1,70=2/14;
 10/5=4,28=3/2;
 6/7=2,8=2,9=2,10=2/1;
 7/12=6,13=5,14=3/1,2,3,16;
 1/18=20,19=15,26=3/3(2);
 2/9=110/2;
 99//99;
 2/9=110/2;
 3/5=1,6=6,7=101,11=2,25=1,30=1,70=2205,71=1,72=2,74=-5,116=2,124=31/1,2,3,8;
 4/5=2,13=-1/1;
 5/5=2,38=5,53=2/2;
 8/6=1,10=2,107=3,108=24/1;
 9/8=3,15=2,41=24,42=1,49=4,70=2/14;
 10/5=4,28=3/2;
 7/12=6,13=5,14=3/1,2,3,16;
 1/18=20,19=15,26=3/3(-8);
 2/9=110/2;
 6/7=2,8=2,9=2,10=2/1;
 99/9=10/99;
 Leave Link    1 at Fri May 10 18:32:12 2019, MaxMem=           0 cpu:               2.4 elap:               0.1
 (Enter /opt/software/gaussian/g16.b01/l101.exe)
 -------------------
 Title Card Required
 -------------------
 Symbolic Z-matrix:
 Charge =  0 Multiplicity = 1
 C                    -0.06092  -1.87351   0.64592 
 C                    -2.85858   0.09457  -0.47645 
 O                    -3.6135   -0.13836   0.46296 
 O                    -0.68654  -2.51634  -0.19389 
 C                    -0.59005  -1.74531   2.05864 
 H                     0.12902  -2.14462   2.7813 
 H                    -0.75885  -0.69332   2.30681 
 H                    -1.53158  -2.28871   2.1346 
 C                    -3.03685  -0.6088   -1.80507 
 H                    -3.13028   0.11036  -2.62484 
 H                    -2.16484  -1.23943  -2.00392 
 H                    -3.92982  -1.23283  -1.75917 
 C                     1.22381  -1.19957   0.28792 
 C                     1.72564  -1.36192  -1.01417 
 C                     1.92687  -0.39486   1.19652 
 C                     2.90394  -0.73274  -1.40071 
 H                     1.16988  -1.98251  -1.70864 
 C                     3.10693   0.2391    0.80759 
 H                     1.55395  -0.24763   2.20364 
 C                     3.59663   0.07185  -0.48896 
 H                     3.28387  -0.86304  -2.40944 
 H                     3.64045   0.86639   1.51483 
 H                     4.51471   0.56743  -0.79033 
 C                    -1.73212   1.06807  -0.322 
 C                    -1.59829   1.75043   0.89921 
 C                    -0.79336   1.29985  -1.33908 
 C                    -0.54603   2.63728   1.10226 
 H                    -2.33071   1.56486   1.67753 
 C                     0.26162   2.18833  -1.13531 
 H                    -0.86728   0.77527  -2.28482 
 C                     0.38886   2.85477   0.08418 
 H                    -0.44834   3.15601   2.05102 
 H                     0.99405   2.34452  -1.92031 
 H                     1.21732   3.53788   0.24479 
 
 Add virtual bond connecting atoms H11        and O4         Dist= 5.03D+00.
 The following ModRedundant input section has been read:
 B       1       2 S  23 -0.100                                                
 
 ITRead=  0  0  0  0  0  0  0  0  0  0  0  0  0  0  0  0  0  0  0  0
 ITRead=  0  0  0  0  0  0  0  0  0  0  0  0  0  0
 MicOpt= -1 -1 -1 -1 -1 -1 -1 -1 -1 -1 -1 -1 -1 -1 -1 -1 -1 -1 -1 -1
 MicOpt= -1 -1 -1 -1 -1 -1 -1 -1 -1 -1 -1 -1 -1 -1
 NAtoms=     34 NQM=       34 NQMF=       0 NMMI=      0 NMMIF=      0
                NMic=       0 NMicF=      0.
                    Isotopes and Nuclear Properties:
 (Nuclear quadrupole moments (NQMom) in fm**2, nuclear magnetic moments (NMagM)
  in nuclear magnetons)

  Atom         1           2           3           4           5           6           7           8           9          10
 IAtWgt=          12          12          16          16          12           1           1           1          12           1
 AtmWgt=  12.0000000  12.0000000  15.9949146  15.9949146  12.0000000   1.0078250   1.0078250   1.0078250  12.0000000   1.0078250
 NucSpn=           0           0           0           0           0           1           1           1           0           1
 AtZEff=  -0.0000000  -0.0000000  -0.0000000  -0.0000000  -0.0000000  -0.0000000  -0.0000000  -0.0000000  -0.0000000  -0.0000000
 NQMom=    0.0000000   0.0000000   0.0000000   0.0000000   0.0000000   0.0000000   0.0000000   0.0000000   0.0000000   0.0000000
 NMagM=    0.0000000   0.0000000   0.0000000   0.0000000   0.0000000   2.7928460   2.7928460   2.7928460   0.0000000   2.7928460
 AtZNuc=   6.0000000   6.0000000   8.0000000   8.0000000   6.0000000   1.0000000   1.0000000   1.0000000   6.0000000   1.0000000

  Atom        11          12          13          14          15          16          17          18          19          20
 IAtWgt=           1           1          12          12          12          12           1          12           1          12
 AtmWgt=   1.0078250   1.0078250  12.0000000  12.0000000  12.0000000  12.0000000   1.0078250  12.0000000   1.0078250  12.0000000
 NucSpn=           1           1           0           0           0           0           1           0           1           0
 AtZEff=  -0.0000000  -0.0000000  -0.0000000  -0.0000000  -0.0000000  -0.0000000  -0.0000000  -0.0000000  -0.0000000  -0.0000000
 NQMom=    0.0000000   0.0000000   0.0000000   0.0000000   0.0000000   0.0000000   0.0000000   0.0000000   0.0000000   0.0000000
 NMagM=    2.7928460   2.7928460   0.0000000   0.0000000   0.0000000   0.0000000   2.7928460   0.0000000   2.7928460   0.0000000
 AtZNuc=   1.0000000   1.0000000   6.0000000   6.0000000   6.0000000   6.0000000   1.0000000   6.0000000   1.0000000   6.0000000

  Atom        21          22          23          24          25          26          27          28          29          30
 IAtWgt=           1           1           1          12          12          12          12           1          12           1
 AtmWgt=   1.0078250   1.0078250   1.0078250  12.0000000  12.0000000  12.0000000  12.0000000   1.0078250  12.0000000   1.0078250
 NucSpn=           1           1           1           0           0           0           0           1           0           1
 AtZEff=  -0.0000000  -0.0000000  -0.0000000  -0.0000000  -0.0000000  -0.0000000  -0.0000000  -0.0000000  -0.0000000  -0.0000000
 NQMom=    0.0000000   0.0000000   0.0000000   0.0000000   0.0000000   0.0000000   0.0000000   0.0000000   0.0000000   0.0000000
 NMagM=    2.7928460   2.7928460   2.7928460   0.0000000   0.0000000   0.0000000   0.0000000   2.7928460   0.0000000   2.7928460
 AtZNuc=   1.0000000   1.0000000   1.0000000   6.0000000   6.0000000   6.0000000   6.0000000   1.0000000   6.0000000   1.0000000

  Atom        31          32          33          34
 IAtWgt=          12           1           1           1
 AtmWgt=  12.0000000   1.0078250   1.0078250   1.0078250
 NucSpn=           0           1           1           1
 AtZEff=  -0.0000000  -0.0000000  -0.0000000  -0.0000000
 NQMom=    0.0000000   0.0000000   0.0000000   0.0000000
 NMagM=    0.0000000   2.7928460   2.7928460   2.7928460
 AtZNuc=   6.0000000   1.0000000   1.0000000   1.0000000
 Leave Link  101 at Fri May 10 18:32:12 2019, MaxMem=   104857600 cpu:               4.2 elap:               0.2
 (Enter /opt/software/gaussian/g16.b01/l103.exe)

 GradGradGradGradGradGradGradGradGradGradGradGradGradGradGradGradGradGrad
 Berny optimization.
 Initialization pass.
                           ----------------------------
                           !    Initial Parameters    !
                           ! (Angstroms and Degrees)  !
 --------------------------                            --------------------------
 ! Name  Definition              Value          Derivative Info.                !
 --------------------------------------------------------------------------------
 ! R1    R(1,2)                  3.6            Scan                            !
 ! R2    R(1,4)                  1.2288         estimate D2E/DX2                !
 ! R3    R(1,5)                  1.514          estimate D2E/DX2                !
 ! R4    R(1,13)                 1.4943         estimate D2E/DX2                !
 ! R5    R(2,3)                  1.2275         estimate D2E/DX2                !
 ! R6    R(2,9)                  1.5138         estimate D2E/DX2                !
 ! R7    R(2,24)                 1.4968         estimate D2E/DX2                !
 ! R8    R(4,11)                 2.6631         estimate D2E/DX2                !
 ! R9    R(5,6)                  1.0949         estimate D2E/DX2                !
 ! R10   R(5,7)                  1.094          estimate D2E/DX2                !
 ! R11   R(5,8)                  1.0897         estimate D2E/DX2                !
 ! R12   R(9,10)                 1.0945         estimate D2E/DX2                !
 ! R13   R(9,11)                 1.0944         estimate D2E/DX2                !
 ! R14   R(9,12)                 1.0904         estimate D2E/DX2                !
 ! R15   R(13,14)                1.4049         estimate D2E/DX2                !
 ! R16   R(13,15)                1.4026         estimate D2E/DX2                !
 ! R17   R(14,16)                1.3906         estimate D2E/DX2                !
 ! R18   R(14,17)                1.0846         estimate D2E/DX2                !
 ! R19   R(15,18)                1.3949         estimate D2E/DX2                !
 ! R20   R(15,19)                1.084          estimate D2E/DX2                !
 ! R21   R(16,20)                1.3994         estimate D2E/DX2                !
 ! R22   R(16,21)                1.0858         estimate D2E/DX2                !
 ! R23   R(18,20)                1.396          estimate D2E/DX2                !
 ! R24   R(18,22)                1.0855         estimate D2E/DX2                !
 ! R25   R(20,23)                1.086          estimate D2E/DX2                !
 ! R26   R(24,25)                1.4053         estimate D2E/DX2                !
 ! R27   R(24,26)                1.4034         estimate D2E/DX2                !
 ! R28   R(25,27)                1.391          estimate D2E/DX2                !
 ! R29   R(25,28)                1.0847         estimate D2E/DX2                !
 ! R30   R(26,29)                1.3942         estimate D2E/DX2                !
 ! R31   R(26,30)                1.084          estimate D2E/DX2                !
 ! R32   R(27,31)                1.3992         estimate D2E/DX2                !
 ! R33   R(27,32)                1.0857         estimate D2E/DX2                !
 ! R34   R(29,31)                1.3955         estimate D2E/DX2                !
 ! R35   R(29,33)                1.0849         estimate D2E/DX2                !
 ! R36   R(31,34)                1.0857         estimate D2E/DX2                !
 ! A1    A(4,1,5)              120.2708         estimate D2E/DX2                !
 ! A2    A(4,1,13)             120.6602         estimate D2E/DX2                !
 ! A3    A(5,1,13)             119.0674         estimate D2E/DX2                !
 ! A4    A(3,2,9)              120.7367         estimate D2E/DX2                !
 ! A5    A(3,2,24)             120.4838         estimate D2E/DX2                !
 ! A6    A(9,2,24)             118.7747         estimate D2E/DX2                !
 ! A7    A(1,4,11)             119.7561         estimate D2E/DX2                !
 ! A8    A(1,5,6)              110.8223         estimate D2E/DX2                !
 ! A9    A(1,5,7)              110.3057         estimate D2E/DX2                !
 ! A10   A(1,5,8)              108.9518         estimate D2E/DX2                !
 ! A11   A(6,5,7)              107.5977         estimate D2E/DX2                !
 ! A12   A(6,5,8)              109.8506         estimate D2E/DX2                !
 ! A13   A(7,5,8)              109.2923         estimate D2E/DX2                !
 ! A14   A(2,9,10)             111.2297         estimate D2E/DX2                !
 ! A15   A(2,9,11)             109.4744         estimate D2E/DX2                !
 ! A16   A(2,9,12)             108.9904         estimate D2E/DX2                !
 ! A17   A(10,9,11)            108.0925         estimate D2E/DX2                !
 ! A18   A(10,9,12)            109.7343         estimate D2E/DX2                !
 ! A19   A(11,9,12)            109.2938         estimate D2E/DX2                !
 ! A20   A(4,11,9)             126.521          estimate D2E/DX2                !
 ! A21   A(1,13,14)            118.4924         estimate D2E/DX2                !
 ! A22   A(1,13,15)            122.31           estimate D2E/DX2                !
 ! A23   A(14,13,15)           119.1863         estimate D2E/DX2                !
 ! A24   A(13,14,16)           120.5326         estimate D2E/DX2                !
 ! A25   A(13,14,17)           118.4612         estimate D2E/DX2                !
 ! A26   A(16,14,17)           121.0052         estimate D2E/DX2                !
 ! A27   A(13,15,18)           120.2758         estimate D2E/DX2                !
 ! A28   A(13,15,19)           120.4859         estimate D2E/DX2                !
 ! A29   A(18,15,19)           119.2334         estimate D2E/DX2                !
 ! A30   A(14,16,20)           119.8975         estimate D2E/DX2                !
 ! A31   A(14,16,21)           120.0305         estimate D2E/DX2                !
 ! A32   A(20,16,21)           120.0716         estimate D2E/DX2                !
 ! A33   A(15,18,20)           120.0845         estimate D2E/DX2                !
 ! A34   A(15,18,22)           119.7866         estimate D2E/DX2                !
 ! A35   A(20,18,22)           120.1283         estimate D2E/DX2                !
 ! A36   A(16,20,18)           120.0228         estimate D2E/DX2                !
 ! A37   A(16,20,23)           120.002          estimate D2E/DX2                !
 ! A38   A(18,20,23)           119.9752         estimate D2E/DX2                !
 ! A39   A(2,24,25)            118.4985         estimate D2E/DX2                !
 ! A40   A(2,24,26)            122.4148         estimate D2E/DX2                !
 ! A41   A(25,24,26)           119.0721         estimate D2E/DX2                !
 ! A42   A(24,25,27)           120.5609         estimate D2E/DX2                !
 ! A43   A(24,25,28)           118.4344         estimate D2E/DX2                !
 ! A44   A(27,25,28)           121.0041         estimate D2E/DX2                !
 ! A45   A(24,26,29)           120.3632         estimate D2E/DX2                !
 ! A46   A(24,26,30)           120.4489         estimate D2E/DX2                !
 ! A47   A(29,26,30)           119.1756         estimate D2E/DX2                !
 ! A48   A(25,27,31)           119.8886         estimate D2E/DX2                !
 ! A49   A(25,27,32)           120.0154         estimate D2E/DX2                !
 ! A50   A(31,27,32)           120.0954         estimate D2E/DX2                !
 ! A51   A(26,29,31)           120.0685         estimate D2E/DX2                !
 ! A52   A(26,29,33)           119.7894         estimate D2E/DX2                !
 ! A53   A(31,29,33)           120.1306         estimate D2E/DX2                !
 ! A54   A(27,31,29)           120.0447         estimate D2E/DX2                !
 ! A55   A(27,31,34)           120.0            estimate D2E/DX2                !
 ! A56   A(29,31,34)           119.9543         estimate D2E/DX2                !
 ! D1    D(5,1,4,11)           101.4951         estimate D2E/DX2                !
 ! D2    D(13,1,4,11)          -78.027          estimate D2E/DX2                !
 ! D3    D(4,1,5,6)            120.9782         estimate D2E/DX2                !
 ! D4    D(4,1,5,7)           -119.9691         estimate D2E/DX2                !
 ! D5    D(4,1,5,8)              0.0            estimate D2E/DX2                !
 ! D6    D(13,1,5,6)           -59.4921         estimate D2E/DX2                !
 ! D7    D(13,1,5,7)            59.5606         estimate D2E/DX2                !
 ! D8    D(13,1,5,8)           179.5297         estimate D2E/DX2                !
 ! D9    D(4,1,13,14)           -2.4894         estimate D2E/DX2                !
 ! D10   D(4,1,13,15)          176.2807         estimate D2E/DX2                !
 ! D11   D(5,1,13,14)          177.9828         estimate D2E/DX2                !
 ! D12   D(5,1,13,15)           -3.2471         estimate D2E/DX2                !
 ! D13   D(3,2,9,10)           125.0697         estimate D2E/DX2                !
 ! D14   D(3,2,9,11)          -115.5406         estimate D2E/DX2                !
 ! D15   D(3,2,9,12)             3.9531         estimate D2E/DX2                !
 ! D16   D(24,2,9,10)          -55.7261         estimate D2E/DX2                !
 ! D17   D(24,2,9,11)           63.6636         estimate D2E/DX2                !
 ! D18   D(24,2,9,12)         -176.8427         estimate D2E/DX2                !
 ! D19   D(3,2,24,25)           -2.8552         estimate D2E/DX2                !
 ! D20   D(3,2,24,26)          175.7381         estimate D2E/DX2                !
 ! D21   D(9,2,24,25)          177.9386         estimate D2E/DX2                !
 ! D22   D(9,2,24,26)           -3.4681         estimate D2E/DX2                !
 ! D23   D(1,4,11,9)           -63.1309         estimate D2E/DX2                !
 ! D24   D(2,9,11,4)            32.7116         estimate D2E/DX2                !
 ! D25   D(10,9,11,4)          154.0162         estimate D2E/DX2                !
 ! D26   D(12,9,11,4)          -86.5952         estimate D2E/DX2                !
 ! D27   D(1,13,14,16)         178.7464         estimate D2E/DX2                !
 ! D28   D(1,13,14,17)          -0.8769         estimate D2E/DX2                !
 ! D29   D(15,13,14,16)         -0.063          estimate D2E/DX2                !
 ! D30   D(15,13,14,17)       -179.6863         estimate D2E/DX2                !
 ! D31   D(1,13,15,18)        -178.5279         estimate D2E/DX2                !
 ! D32   D(1,13,15,19)           0.6679         estimate D2E/DX2                !
 ! D33   D(14,13,15,18)          0.234          estimate D2E/DX2                !
 ! D34   D(14,13,15,19)        179.4298         estimate D2E/DX2                !
 ! D35   D(13,14,16,20)         -0.1436         estimate D2E/DX2                !
 ! D36   D(13,14,16,21)       -179.9374         estimate D2E/DX2                !
 ! D37   D(17,14,16,20)        179.47           estimate D2E/DX2                !
 ! D38   D(17,14,16,21)         -0.3239         estimate D2E/DX2                !
 ! D39   D(13,15,18,20)         -0.1983         estimate D2E/DX2                !
 ! D40   D(13,15,18,22)        179.5158         estimate D2E/DX2                !
 ! D41   D(19,15,18,20)       -179.4041         estimate D2E/DX2                !
 ! D42   D(19,15,18,22)          0.31           estimate D2E/DX2                !
 ! D43   D(14,16,20,18)          0.1808         estimate D2E/DX2                !
 ! D44   D(14,16,20,23)       -179.737          estimate D2E/DX2                !
 ! D45   D(21,16,20,18)        179.9746         estimate D2E/DX2                !
 ! D46   D(21,16,20,23)          0.0567         estimate D2E/DX2                !
 ! D47   D(15,18,20,16)         -0.0103         estimate D2E/DX2                !
 ! D48   D(15,18,20,23)        179.9076         estimate D2E/DX2                !
 ! D49   D(22,18,20,16)       -179.7235         estimate D2E/DX2                !
 ! D50   D(22,18,20,23)          0.1944         estimate D2E/DX2                !
 ! D51   D(2,24,25,27)         178.2395         estimate D2E/DX2                !
 ! D52   D(2,24,25,28)          -1.4703         estimate D2E/DX2                !
 ! D53   D(26,24,25,27)         -0.4018         estimate D2E/DX2                !
 ! D54   D(26,24,25,28)        179.8884         estimate D2E/DX2                !
 ! D55   D(2,24,26,29)        -178.1578         estimate D2E/DX2                !
 ! D56   D(2,24,26,30)           0.5578         estimate D2E/DX2                !
 ! D57   D(25,24,26,29)          0.4277         estimate D2E/DX2                !
 ! D58   D(25,24,26,30)        179.1433         estimate D2E/DX2                !
 ! D59   D(24,25,27,31)          0.0217         estimate D2E/DX2                !
 ! D60   D(24,25,27,32)       -179.6961         estimate D2E/DX2                !
 ! D61   D(28,25,27,31)        179.7239         estimate D2E/DX2                !
 ! D62   D(28,25,27,32)          0.0061         estimate D2E/DX2                !
 ! D63   D(24,26,29,31)         -0.0742         estimate D2E/DX2                !
 ! D64   D(24,26,29,33)        178.6954         estimate D2E/DX2                !
 ! D65   D(30,26,29,31)       -178.806          estimate D2E/DX2                !
 ! D66   D(30,26,29,33)         -0.0364         estimate D2E/DX2                !
 ! D67   D(25,27,31,29)          0.3379         estimate D2E/DX2                !
 ! D68   D(25,27,31,34)       -179.2951         estimate D2E/DX2                !
 ! D69   D(32,27,31,29)       -179.9445         estimate D2E/DX2                !
 ! D70   D(32,27,31,34)          0.4225         estimate D2E/DX2                !
 ! D71   D(26,29,31,27)         -0.3119         estimate D2E/DX2                !
 ! D72   D(26,29,31,34)        179.3213         estimate D2E/DX2                !
 ! D73   D(33,29,31,27)       -179.0772         estimate D2E/DX2                !
 ! D74   D(33,29,31,34)          0.556          estimate D2E/DX2                !
 --------------------------------------------------------------------------------
 Trust Radius=3.00D-01 FncErr=1.00D-07 GrdErr=1.00D-06 EigMax=2.50D+02 EigMin=1.00D-04
 Number of optimizations in scan=  24
 Number of steps in this run=    176 maximum allowed number of steps=    204.
 GradGradGradGradGradGradGradGradGradGradGradGradGradGradGradGradGradGrad

 Leave Link  103 at Fri May 10 18:32:12 2019, MaxMem=   104857600 cpu:               1.4 elap:               0.1
 (Enter /opt/software/gaussian/g16.b01/l202.exe)
                          Input orientation:                          
 ---------------------------------------------------------------------
 Center     Atomic      Atomic             Coordinates (Angstroms)
 Number     Number       Type             X           Y           Z
 ---------------------------------------------------------------------
      1          6           0       -0.060921   -1.873512    0.645917
      2          6           0       -2.858584    0.094575   -0.476453
      3          8           0       -3.613496   -0.138356    0.462956
      4          8           0       -0.686544   -2.516338   -0.193889
      5          6           0       -0.590049   -1.745309    2.058644
      6          1           0        0.129016   -2.144621    2.781296
      7          1           0       -0.758850   -0.693322    2.306807
      8          1           0       -1.531584   -2.288709    2.134602
      9          6           0       -3.036850   -0.608798   -1.805066
     10          1           0       -3.130280    0.110364   -2.624844
     11          1           0       -2.164840   -1.239427   -2.003921
     12          1           0       -3.929816   -1.232828   -1.759174
     13          6           0        1.223811   -1.199566    0.287918
     14          6           0        1.725636   -1.361920   -1.014173
     15          6           0        1.926867   -0.394857    1.196524
     16          6           0        2.903939   -0.732737   -1.400711
     17          1           0        1.169876   -1.982506   -1.708641
     18          6           0        3.106927    0.239095    0.807591
     19          1           0        1.553948   -0.247629    2.203638
     20          6           0        3.596626    0.071845   -0.488962
     21          1           0        3.283870   -0.863037   -2.409441
     22          1           0        3.640448    0.866394    1.514832
     23          1           0        4.514708    0.567430   -0.790326
     24          6           0       -1.732115    1.068073   -0.321996
     25          6           0       -1.598287    1.750431    0.899213
     26          6           0       -0.793361    1.299846   -1.339080
     27          6           0       -0.546026    2.637281    1.102264
     28          1           0       -2.330713    1.564859    1.677527
     29          6           0        0.261616    2.188329   -1.135306
     30          1           0       -0.867277    0.775273   -2.284822
     31          6           0        0.388856    2.854774    0.084181
     32          1           0       -0.448335    3.156015    2.051016
     33          1           0        0.994052    2.344521   -1.920313
     34          1           0        1.217316    3.537879    0.244788
 ---------------------------------------------------------------------
                    Distance matrix (angstroms):
                    1          2          3          4          5
     1  C    0.000000
     2  C    3.600000   0.000000
     3  O    3.957908   1.227452   0.000000
     4  O    1.228781   3.408001   3.827962   0.000000
     5  C    1.514005   3.867576   3.777532   2.382793   0.000000
     6  H    2.160884   4.955066   4.837995   3.107256   1.094865
     7  H    2.153720   3.574381   3.443367   3.095496   1.093963
     8  H    2.133406   3.776053   3.428232   2.487524   1.089744
     9  C    4.057459   1.513844   2.386998   3.429073   4.712403
    10  H    4.904549   2.165560   3.135262   4.333699   5.641928
    11  H    3.442409   2.143362   3.065362   2.663095   4.386378
    12  H    4.600357   2.134223   2.497156   3.823131   5.098276
    13  C    1.494290   4.350289   4.955436   2.369701   2.592951
    14  C    2.491869   4.840000   5.673214   2.797170   3.866728
    15  C    2.537891   5.093028   5.594599   3.641956   2.983595
    16  C    3.778948   5.894521   6.804668   4.186791   5.019999
    17  H    2.659076   4.696919   5.567529   2.454739   4.164857
    18  C    3.811103   6.103850   6.739832   4.794350   4.378427
    19  H    2.770883   5.174015   5.453842   3.989358   2.619311
    20  C    4.295348   6.455262   7.275727   5.013113   5.226910
    21  H    4.641541   6.510239   7.506630   4.838002   5.979083
    22  H    4.686388   6.840931   7.398356   5.751996   5.001383
    23  H    5.381205   7.395103   8.254487   6.076050   6.286806
    24  C    3.518901   1.496826   2.368800   3.735992   3.858352
    25  C    3.944695   2.494527   2.796230   4.497940   3.818510
    26  C    3.814037   2.542036   3.642653   3.985741   4.567147
    27  C    4.559697   3.782278   4.185958   5.315971   4.485944
    28  H    4.247184   2.660829   2.453906   4.781387   3.759305
    29  C    4.446947   3.814910   4.794205   4.890722   5.138108
    30  H    4.031811   2.774680   3.990830   3.903763   5.029501
    31  C    4.782733   4.298706   5.012097   5.484765   5.100737
    32  H    5.236462   4.644331   4.836637   6.105074   4.903378
    33  H    5.048792   4.689328   5.751013   5.425209   5.921839
    34  H    5.574760   5.384189   6.074458   6.361656   5.871006
                    6          7          8          9         10
     6  H    0.000000
     7  H    1.766271   0.000000
     8  H    1.787895   1.781020   0.000000
     9  C    5.780672   4.701481   4.539704   0.000000
    10  H    6.703306   5.530892   5.564504   1.094513   0.000000
    11  H    5.383257   4.566992   4.316176   1.094366   1.771879
    12  H    6.158031   5.184428   4.693388   1.090370   1.786843
    13  C    2.882471   2.874568   3.491228   4.783599   5.399834
    14  C    4.191348   4.201024   4.624198   4.886101   5.323702
    15  C    2.967397   2.921453   4.053091   5.804636   6.358682
    16  C    5.213712   5.211839   5.881611   5.955824   6.214590
    17  H    4.611855   4.637435   4.707671   4.426389   4.869382
    18  C    4.294830   4.249857   5.446700   6.729851   7.120459
    19  H    2.441864   2.357609   3.700173   6.105373   6.736794
    20  C    5.256579   5.231823   6.225258   6.796941   7.057956
    21  H    6.208004   6.214128   6.772700   6.354637   6.491166
    22  H    4.795862   4.734317   6.090050   7.601594   7.971904
    23  H    6.272639   6.244369   7.298656   7.709685   7.875291
    24  C    4.838970   3.310644   4.164501   2.591086   2.859227
    25  C    4.658030   2.942432   4.224368   3.866335   4.178014
    26  C    5.449094   4.155286   5.048679   2.982165   2.920487
    27  C    5.112868   3.548117   5.128589   5.019343   5.191822
    28  H    4.585719   2.822433   3.962008   4.165557   4.611427
    29  C    5.842243   4.603629   5.826811   4.376343   4.247543
    30  H    5.931604   4.821989   5.418542   2.617798   2.383045
    31  C    5.686466   4.341230   5.860694   5.225040   5.220625
    32  H    5.381764   3.870303   5.552066   5.978595   6.191323
    33  H    6.557881   5.492695   6.654922   4.998354   4.743199
    34  H    6.317363   5.104920   6.713939   6.284486   6.235723
                   11         12         13         14         15
    11  H    0.000000
    12  H    1.781877   0.000000
    13  C    4.091097   5.545409   0.000000
    14  C    4.016268   5.705772   1.404859   0.000000
    15  C    5.262909   6.613553   1.402644   2.421340   0.000000
    16  C    5.129632   6.861399   2.427391   1.390569   2.795436
    17  H    3.429240   5.154749   2.145263   1.084565   3.396123
    18  C    6.154848   7.633518   2.426094   2.791064   1.394886
    19  H    5.702333   6.837117   2.164522   3.409608   1.083985
    20  C    6.099920   7.743574   2.801835   2.414981   2.418009
    21  H    5.476729   7.252370   3.410695   2.150291   3.881190
    22  H    7.107565   8.510861   3.407880   3.876565   2.151380
    23  H    7.025234   8.688474   3.887787   3.398738   3.401542
    24  C    2.888023   3.491349   3.775140   4.282525   4.223058
    25  C    4.205760   4.626325   4.128002   4.939255   4.137314
    26  C    2.961566   4.053180   3.600440   3.679118   4.086679
    27  C    5.224731   5.883503   4.303124   5.062940   3.913815
    28  H    4.630831   4.711167   4.712505   5.680251   4.711565
    29  C    4.288554   5.446249   3.798581   3.842173   3.857893
    30  H    2.412797   3.699719   3.858967   3.592400   4.614782
    31  C    5.257758   6.225542   4.144434   4.557836   3.763361
    32  H    6.221641   6.774969   4.987552   5.876502   4.356654
    33  H    4.778103   6.088339   4.182060   3.885101   4.253117
    34  H    6.270433   7.298526   4.737646   5.084428   4.108001
                   16         17         18         19         20
    16  C    0.000000
    17  H    2.159564   0.000000
    18  C    2.421210   3.875448   0.000000
    19  H    3.879322   4.296887   2.144199   0.000000
    20  C    1.399448   3.405450   1.396004   3.394804   0.000000
    21  H    1.085754   2.492650   3.405187   4.965063   2.158717
    22  H    3.405886   4.960921   1.085513   2.463531   2.156019
    23  H    2.158143   4.305041   2.154760   4.288851   1.085955
    24  C    5.089159   4.432874   5.037807   4.348346   5.423636
    25  C    5.632568   5.329020   4.942830   3.953524   5.633099
    26  C    4.219623   3.842488   4.576640   4.522763   4.637098
    27  C    5.433615   5.673442   4.379748   3.734384   5.125918
    28  H    6.492772   6.025285   5.664130   4.318854   6.485069
    29  C    3.947776   4.306915   3.958555   4.330422   4.002444
    30  H    4.156660   3.476683   5.064070   5.201435   4.862752
    31  C    4.626098   5.217613   3.840965   3.933757   4.285204
    32  H    6.186643   6.569477   4.763866   3.951863   5.685535
    33  H    3.658848   4.335768   4.042093   4.903029   3.739948
    34  H    4.877553   5.856004   3.843092   4.275568   4.267657
                   21         22         23         24         25
    21  H    0.000000
    22  H    4.303254   0.000000
    23  H    2.486510   2.483438   0.000000
    24  C    5.765997   5.681465   6.284328   0.000000
    25  C    6.450804   5.348351   6.451569   1.405302   0.000000
    26  C    4.737885   5.290686   5.386387   1.403367   2.420927
    27  C    6.265174   4.564298   5.785950   2.428526   1.391038
    28  H    7.356734   6.014074   7.344723   2.145509   1.084738
    29  C    4.479763   4.493022   4.564550   2.427223   2.791104
    30  H    4.464484   5.896207   5.589497   2.164801   3.409309
    31  C    5.331171   4.071028   4.797850   2.802820   2.415075
    32  H    7.069499   4.716779   6.277404   3.411565   2.150513
    33  H    3.971265   4.581320   4.102431   3.408214   3.875937
    34  H    5.539282   3.823796   4.557173   3.888487   3.398656
                   26         27         28         29         30
    26  C    0.000000
    27  C    2.794650   0.000000
    28  H    3.396116   2.160121   0.000000
    29  C    1.394239   2.420860   3.875682   0.000000
    30  H    1.084006   3.878483   4.297127   2.143015   0.000000
    31  C    2.416839   1.399214   3.405685   1.395524   3.393283
    32  H    3.880355   1.085707   2.492914   3.404863   4.964165
    33  H    2.150354   3.404926   4.960483   1.084940   2.461697
    34  H    3.400037   2.157711   4.305120   2.153905   4.286776
                   31         32         33         34
    31  C    0.000000
    32  H    2.158721   0.000000
    33  H    2.155137   4.302378   0.000000
    34  H    1.085713   2.486498   2.482260   0.000000
 Stoichiometry    C16H16O2
 Framework group  C1[X(C16H16O2)]
 Deg. of freedom    96
 Full point group                 C1      NOp   1
 Largest Abelian subgroup         C1      NOp   1
 Largest concise Abelian subgroup C1      NOp   1
                         Standard orientation:                         
 ---------------------------------------------------------------------
 Center     Atomic      Atomic             Coordinates (Angstroms)
 Number     Number       Type             X           Y           Z
 ---------------------------------------------------------------------
      1          6           0        0.178200   -1.943543    0.597762
      2          6           0       -2.787725   -0.159963   -0.393265
      3          8           0       -3.501869   -0.487583    0.549763
      4          8           0       -0.413308   -2.600789   -0.255496
      5          6           0       -0.328883   -1.911877    2.023972
      6          1           0        0.434442   -2.280897    2.716713
      7          1           0       -0.573770   -0.886776    2.317150
      8          1           0       -1.223372   -2.530207    2.095374
      9          6           0       -2.939106   -0.823495   -1.745498
     10          1           0       -3.105846   -0.082881   -2.533945
     11          1           0       -2.025081   -1.375418   -1.985447
     12          1           0       -3.779549   -1.517164   -1.708256
     13          6           0        1.398543   -1.157300    0.243520
     14          6           0        1.883446   -1.229395   -1.073028
     15          6           0        2.056094   -0.335349    1.170576
     16          6           0        3.000584   -0.495019   -1.455620
     17          1           0        1.362957   -1.864586   -1.781482
     18          6           0        3.174560    0.404008    0.785751
     19          1           0        1.694527   -0.256819    2.189461
     20          6           0        3.647877    0.325868   -0.525238
     21          1           0        3.367786   -0.556073   -2.475569
     22          1           0        3.672633    1.043644    1.507642
     23          1           0        4.517880    0.903401   -0.823313
     24          6           0       -1.737473    0.892490   -0.220638
     25          6           0       -1.631051    1.535727    1.024270
     26          6           0       -0.841664    1.236416   -1.244688
     27          6           0       -0.646971    2.494155    1.243334
     28          1           0       -2.329928    1.263257    1.807843
     29          6           0        0.145011    2.196656   -1.024886
     30          1           0       -0.894754    0.744464   -2.209174
     31          6           0        0.246070    2.823589    0.217785
     32          1           0       -0.569664    2.982045    2.210156
     33          1           0        0.846044    2.440117   -1.816324
     34          1           0        1.022044    3.563077    0.390393
 ---------------------------------------------------------------------
 Rotational constants (GHZ):           0.5739417           0.3694835           0.3039264
 Leave Link  202 at Fri May 10 18:32:13 2019, MaxMem=   104857600 cpu:               0.5 elap:               0.0
 (Enter /opt/software/gaussian/g16.b01/l301.exe)
 Standard basis: 6-31G(d,p) (6D, 7F)
 Ernie: Thresh=  0.10000D-02 Tol=  0.10000D-05 Strict=F.
 There are   350 symmetry adapted cartesian basis functions of A   symmetry.
 There are   350 symmetry adapted basis functions of A   symmetry.
   350 basis functions,   616 primitive gaussians,   350 cartesian basis functions
    64 alpha electrons       64 beta electrons
       nuclear repulsion energy      1272.2230276178 Hartrees.
 IExCor=  402 DFT=T Ex+Corr=B3LYP ExCW=0 ScaHFX=  0.200000
 ScaDFX=  0.800000  0.720000  1.000000  0.810000 ScalE2=  1.000000  1.000000
 IRadAn=      5 IRanWt=     -1 IRanGd=            0 ICorTp=0 IEmpDi=131
 NAtoms=   34 NActive=   34 NUniq=   34 SFac= 1.00D+00 NAtFMM=   60 NAOKFM=F Big=F
 Integral buffers will be    131072 words long.
 Raffenetti 2 integral format.
 Two-electron integral symmetry is turned on.
 R6Disp:  Grimme-D3 Dispersion energy=       -0.0362575619 Hartrees.
 Nuclear repulsion after empirical dispersion term =     1272.1867700559 Hartrees.
 ------------------------------------------------------------------------------
 Polarizable Continuum Model (PCM)
 =================================
 Model                : PCM.
 Atomic radii         : UFF (Universal Force Field).
 Polarization charges : Total charges.
 Charge compensation  : None.
 Solution method      : On-the-fly selection.
 Cavity type          : Scaled VdW (van der Waals Surface) (Alpha=1.100).
 Cavity algorithm     : GePol (No added spheres)
                        Default sphere list used, NSphG=   34.
                        Lebedev-Laikov grids with approx.  5.0 points / Ang**2.
                        Smoothing algorithm: York/Karplus (Gamma=1.0000).
                        Polarization charges: spherical gaussians, with
                                              point-specific exponents (IZeta= 3).
                        Self-potential: point-specific (ISelfS= 7).
                        Self-field    : sphere-specific E.n sum rule (ISelfD= 2).
 1st derivatives      : Analytical E(r).r(x)/FMM algorithm (CHGder, D1EAlg=3).
                        Cavity 1st derivative terms included.
 Solvent              : Acetonitrile, Eps=  35.688000 Eps(inf)=   1.806874
 ------------------------------------------------------------------------------
 GePol: Number of generator spheres                  =      34
 GePol: Total number of spheres                      =      34
 GePol: Number of exposed spheres                    =      34 (100.00%)
 GePol: Number of points                             =    2547
 GePol: Average weight of points                     =       0.13
 GePol: Minimum weight of points                     =   0.11D-11
 GePol: Maximum weight of points                     =    0.20577
 GePol: Number of points with low weight             =     216
 GePol: Fraction of low-weight points (<1% of avg)   =       8.48%
 GePol: Cavity surface area                          =    322.374 Ang**2
 GePol: Cavity volume                                =    366.245 Ang**3
 Leave Link  301 at Fri May 10 18:32:13 2019, MaxMem=   104857600 cpu:               2.5 elap:               0.1
 (Enter /opt/software/gaussian/g16.b01/l302.exe)
 NPDir=0 NMtPBC=     1 NCelOv=     1 NCel=       1 NClECP=     1 NCelD=      1
         NCelK=      1 NCelE2=     1 NClLst=     1 CellRange=     0.0.
 One-electron integrals computed using PRISM.
 One-electron integral symmetry used in STVInt
 PrsmSu:  requested number of processors reduced to:  28 ShMem   1 Linda.
 NBasis=   350 RedAO= T EigKep=  4.64D-04  NBF=   350
 NBsUse=   350 1.00D-06 EigRej= -1.00D+00 NBFU=   350
 Precomputing XC quadrature grid using
 IXCGrd= 4 IRadAn=           5 IRanWt=          -1 IRanGd=           0 AccXCQ= 0.00D+00.
 Generated NRdTot=       0 NPtTot=           0 NUsed=           0 NTot=          32
 NSgBfM=   349   349   349   349   349 MxSgAt=    34 MxSgA2=    34.
 Leave Link  302 at Fri May 10 18:32:13 2019, MaxMem=   104857600 cpu:              13.1 elap:               0.4
 (Enter /opt/software/gaussian/g16.b01/l303.exe)
 DipDrv:  MaxL=1.
 Leave Link  303 at Fri May 10 18:32:13 2019, MaxMem=   104857600 cpu:               1.7 elap:               0.1
 (Enter /opt/software/gaussian/g16.b01/l308.exe)
 Leave Link  308 at Fri May 10 18:32:13 2019, MaxMem=   104857600 cpu:               1.5 elap:               0.1
 (Enter /opt/software/gaussian/g16.b01/l401.exe)
 Core hamiltonian diagonalized for initial guess.
 JPrj=0 DoOrth=F DoCkMO=T.
 Mixing orbitals, IMix= 1 IMixAn=  0 NRI=1 NE=   64 Coef=  7.07106781D-01  7.07106781D-01
 Mixing orbitals, IMix= 1 IMixAn=  0 NRI=1 NE=   64 Coef= -7.07106781D-01  7.07106781D-01
 Initial guess <Sx>= 0.0000 <Sy>= 0.0000 <Sz>= 0.0000 <S**2>= 1.0000 S= 0.6180
 Leave Link  401 at Fri May 10 18:32:14 2019, MaxMem=   104857600 cpu:               4.4 elap:               0.2
 (Enter /opt/software/gaussian/g16.b01/l502.exe)
 Integral symmetry usage will be decided dynamically.
 UHF open shell SCF:
 Using DIIS extrapolation, IDIIS=  1040.
 NGot=   104857600 LenX=   104597610 LenY=   104474669
 Requested convergence on RMS density matrix=1.00D-08 within 128 cycles.
 Requested convergence on MAX density matrix=1.00D-06.
 Requested convergence on             energy=1.00D-06.
 No special actions if energy rises.
 Fock matrices will be formed incrementally for  20 cycles.

 Cycle   1  Pass 1  IDiag  1:
 FoFJK:  IHMeth= 1 ICntrl=       0 DoSepK=F KAlg= 0 I1Cent=           0 FoldK=F
 IRaf= 830000000 NMat=       1 IRICut=       1 DoRegI=T DoRafI=F ISym2E= 0 IDoP0=0 IntGTp=1.
 FoFCou: FMM=F IPFlag=           0 FMFlag=      100000 FMFlg1=           0
         NFxFlg=           0 DoJE=F BraDBF=F KetDBF=F FulRan=T
         wScrn=  0.000000 ICntrl=         0 IOpCl=  1 I1Cent=           0 NGrid=           0
         NMat0=    1 NMatS0=      1 NMatT0=    0 NMatD0=    1 NMtDS0=    0 NMtDT0=    0
 Symmetry not used in FoFCou.
 Inv3:  Mode=1 IEnd=    19461627.
 Iteration    1 A*A^-1 deviation from unit magnitude is 3.22D-15 for    622.
 Iteration    1 A*A^-1 deviation from orthogonality  is 2.90D-15 for   2287    320.
 Iteration    1 A^-1*A deviation from unit magnitude is 3.11D-15 for   1524.
 Iteration    1 A^-1*A deviation from orthogonality  is 3.09D-15 for   2240   1504.
 E= -573.366025158966    
 DIIS: error= 3.71D-01 at cycle   1 NSaved=   1.
 NSaved= 1 IEnMin= 1 EnMin= -573.366025158966     IErMin= 1 ErrMin= 3.71D-01
 ErrMax= 3.71D-01  0.00D+00 EMaxC= 1.00D-01 BMatC= 4.80D+02 BMatP= 4.80D+02
 IDIUse=3 WtCom= 0.00D+00 WtEn= 1.00D+00
 Coeff-Com:  0.100D+01
 Coeff-En:   0.100D+01
 Coeff:      0.100D+01
 Gap=    -0.369 Goal=   None    Shift=    0.000
 Gap=     0.431 Goal=   None    Shift=    0.000
 GapD=   -0.369 DampG=0.250 DampE=0.250 DampFc=0.2500 IDamp=-1.
 Damping current iteration by 2.50D-01
 RMSDP=1.72D-01 MaxDP=1.81D+01              OVMax= 9.96D-01

 Cycle   2  Pass 1  IDiag  1:
 RMSU=  4.05D-02    CP:  7.88D-01
 E= -666.127600086289     Delta-E=      -92.761574927323 Rises=F Damp=T
 DIIS: error= 2.59D-01 at cycle   2 NSaved=   2.
 NSaved= 2 IEnMin= 2 EnMin= -666.127600086289     IErMin= 2 ErrMin= 2.59D-01
 ErrMax= 2.59D-01  0.00D+00 EMaxC= 1.00D-01 BMatC= 1.69D+02 BMatP= 4.80D+02
 IDIUse=3 WtCom= 0.00D+00 WtEn= 1.00D+00
 Coeff-Com: -0.122D+01 0.222D+01
 Coeff-En:   0.000D+00 0.100D+01
 Coeff:      0.000D+00 0.100D+01
 Gap=    -0.566 Goal=   None    Shift=    0.000
 Gap=    -0.573 Goal=   None    Shift=    0.000
 RMSDP=1.12D-01 MaxDP=5.21D+00 DE=-9.28D+01 OVMax= 9.79D-01

 Cycle   3  Pass 1  IDiag  1:
 RMSU=  1.06D-01    CP:  2.41D-01  1.05D+00
 E= -676.323760363382     Delta-E=      -10.196160277093 Rises=F Damp=F
 DIIS: error= 1.59D-01 at cycle   3 NSaved=   3.
 NSaved= 3 IEnMin= 3 EnMin= -676.323760363382     IErMin= 3 ErrMin= 1.59D-01
 ErrMax= 1.59D-01  0.00D+00 EMaxC= 1.00D-01 BMatC= 1.45D+02 BMatP= 1.69D+02
 IDIUse=3 WtCom= 0.00D+00 WtEn= 1.00D+00
 EnCoef did   100 forward-backward iterations
 Coeff-Com: -0.987D+00 0.183D+01 0.159D+00
 Coeff-En:   0.340D+00 0.268D-01 0.633D+00
 Coeff:      0.340D+00 0.268D-01 0.633D+00
 Gap=     0.145 Goal=   None    Shift=    0.000
 Gap=     0.145 Goal=   None    Shift=    0.000
 RMSDP=1.19D-01 MaxDP=5.87D+00 DE=-1.02D+01 OVMax= 9.97D-01

 Cycle   4  Pass 1  IDiag  1:
 RMSU=  4.52D-02    CP:  1.52D-01  1.07D-01  2.62D-02
 E= -723.677527456508     Delta-E=      -47.353767093126 Rises=F Damp=F
 DIIS: error= 2.14D-01 at cycle   4 NSaved=   4.
 NSaved= 4 IEnMin= 4 EnMin= -723.677527456508     IErMin= 3 ErrMin= 1.59D-01
 ErrMax= 2.14D-01  0.00D+00 EMaxC= 1.00D-01 BMatC= 9.16D+01 BMatP= 1.45D+02
 IDIUse=3 WtCom= 0.00D+00 WtEn= 1.00D+00
 Coeff-Com: -0.681D+00 0.124D+01 0.168D+00 0.276D+00
 Coeff-En:   0.000D+00 0.000D+00 0.349D+00 0.651D+00
 Coeff:      0.000D+00 0.000D+00 0.349D+00 0.651D+00
 Gap=    -0.910 Goal=   None    Shift=    0.000
 Gap=    -0.922 Goal=   None    Shift=    0.000
 RMSDP=6.51D-02 MaxDP=3.63D+00 DE=-4.74D+01 OVMax= 9.75D-01

 Cycle   5  Pass 1  IDiag  1:
 RMSU=  4.82D-02    CP:  2.54D-01  4.12D-02  5.15D-02  4.92D-02
 E= -614.104287465139     Delta-E=      109.573239991370 Rises=F Damp=F
 DIIS: error= 2.17D-01 at cycle   5 NSaved=   5.
 NSaved= 5 IEnMin= 4 EnMin= -723.677527456508     IErMin= 3 ErrMin= 1.59D-01
 ErrMax= 2.17D-01  0.00D+00 EMaxC= 1.00D-01 BMatC= 3.22D+02 BMatP= 9.16D+01
 IDIUse=2 WtCom= 0.00D+00 WtEn= 1.00D+00
 EnCoef did     6 forward-backward iterations
 Coeff-En:   0.000D+00 0.000D+00 0.236D+00 0.579D+00 0.185D+00
 Coeff:      0.000D+00 0.000D+00 0.236D+00 0.579D+00 0.185D+00
 Gap=    -0.102 Goal=   None    Shift=    0.000
 Gap=    -0.102 Goal=   None    Shift=    0.000
 RMSDP=4.83D-02 MaxDP=3.80D+00 DE= 1.10D+02 OVMax= 9.96D-01

 Cycle   6  Pass 1  IDiag  1:
 RMSU=  1.56D-02    CP:  8.03D-02  4.30D-02  2.78D-02  1.03D-01  8.68D-02
 E= -761.528148166176     Delta-E=     -147.423860701037 Rises=F Damp=F
 DIIS: error= 7.39D-02 at cycle   6 NSaved=   6.
 NSaved= 6 IEnMin= 6 EnMin= -761.528148166176     IErMin= 6 ErrMin= 7.39D-02
 ErrMax= 7.39D-02  0.00D+00 EMaxC= 1.00D-01 BMatC= 2.49D+01 BMatP= 9.16D+01
 IDIUse=3 WtCom= 2.61D-01 WtEn= 7.39D-01
 Coeff-Com: -0.323D+00 0.562D+00 0.667D-01 0.200D+00 0.169D-01 0.477D+00
 Coeff-En:   0.000D+00 0.000D+00 0.000D+00 0.161D+00 0.000D+00 0.839D+00
 Coeff:     -0.843D-01 0.147D+00 0.174D-01 0.171D+00 0.441D-02 0.745D+00
 Gap=     0.376 Goal=   None    Shift=    0.000
 Gap=     0.378 Goal=   None    Shift=    0.000
 RMSDP=2.38D-02 MaxDP=2.14D+00 DE=-1.47D+02 OVMax= 9.41D-01

 Cycle   7  Pass 1  IDiag  1:
 RMSU=  2.22D-02    CP:  7.21D-02  1.30D-01  3.12D-02  1.82D-01  9.72D-02
                    CP:  5.50D-01
 E= -750.228858551526     Delta-E=       11.299289614650 Rises=F Damp=F
 DIIS: error= 1.18D-01 at cycle   7 NSaved=   7.
 NSaved= 7 IEnMin= 6 EnMin= -761.528148166176     IErMin= 6 ErrMin= 7.39D-02
 ErrMax= 1.18D-01  0.00D+00 EMaxC= 1.00D-01 BMatC= 5.32D+01 BMatP= 2.49D+01
 IDIUse=2 WtCom= 0.00D+00 WtEn= 1.00D+00
 EnCoef did     4 forward-backward iterations
 Coeff-En:   0.000D+00 0.000D+00 0.000D+00 0.686D-01 0.000D+00 0.644D+00
 Coeff-En:   0.287D+00
 Coeff:      0.000D+00 0.000D+00 0.000D+00 0.686D-01 0.000D+00 0.644D+00
 Coeff:      0.287D+00
 Gap=     0.042 Goal=   None    Shift=    0.000
 Gap=     0.079 Goal=   None    Shift=    0.000
 RMSDP=2.20D-02 MaxDP=2.09D+00 DE= 1.13D+01 OVMax= 8.97D-01

 Cycle   8  Pass 1  IDiag  1:
 RMSU=  8.98D-03    CP:  7.27D-02  3.65D-02  1.39D-02  1.17D-01  5.69D-02
                    CP:  7.36D-01  1.38D-01
 E= -758.856528785716     Delta-E=       -8.627670234190 Rises=F Damp=F
 DIIS: error= 1.20D-01 at cycle   8 NSaved=   8.
 NSaved= 8 IEnMin= 6 EnMin= -761.528148166176     IErMin= 6 ErrMin= 7.39D-02
 ErrMax= 1.20D-01  0.00D+00 EMaxC= 1.00D-01 BMatC= 1.91D+01 BMatP= 2.49D+01
 IDIUse=3 WtCom= 2.61D-01 WtEn= 7.39D-01
 EnCoef did     1 forward-backward iterations
 Coeff-Com: -0.103D+00 0.185D+00 0.157D-01 0.557D-02 0.538D-02 0.388D+00
 Coeff-Com:  0.163D+00 0.341D+00
 Coeff-En:   0.000D+00 0.000D+00 0.000D+00 0.000D+00 0.000D+00 0.513D+00
 Coeff-En:   0.154D+00 0.334D+00
 Coeff:     -0.269D-01 0.483D-01 0.409D-02 0.145D-02 0.140D-02 0.480D+00
 Coeff:      0.156D+00 0.335D+00
 Gap=    -0.326 Goal=   None    Shift=    0.000
 Gap=    -0.328 Goal=   None    Shift=    0.000
 RMSDP=7.19D-03 MaxDP=4.99D-01 DE=-8.63D+00 OVMax= 8.02D-01

 Cycle   9  Pass 1  IDiag  1:
 RMSU=  5.57D-03    CP:  7.21D-02  3.19D-02  1.35D-02  9.99D-02  7.27D-02
                    CP:  7.86D-01  1.25D-01  5.18D-01
 E= -768.698904286707     Delta-E=       -9.842375500991 Rises=F Damp=F
 DIIS: error= 3.97D-02 at cycle   9 NSaved=   9.
 NSaved= 9 IEnMin= 9 EnMin= -768.698904286707     IErMin= 9 ErrMin= 3.97D-02
 ErrMax= 3.97D-02  0.00D+00 EMaxC= 1.00D-01 BMatC= 4.17D+00 BMatP= 1.91D+01
 IDIUse=3 WtCom= 6.03D-01 WtEn= 3.97D-01
 Coeff-Com: -0.532D-01 0.921D-01 0.180D-01-0.132D-01 0.172D-05 0.175D+00
 Coeff-Com:  0.608D-01 0.216D+00 0.505D+00
 Coeff-En:   0.000D+00 0.000D+00 0.000D+00 0.000D+00 0.000D+00 0.000D+00
 Coeff-En:   0.000D+00 0.866D-01 0.913D+00
 Coeff:     -0.321D-01 0.556D-01 0.109D-01-0.799D-02 0.104D-05 0.106D+00
 Coeff:      0.367D-01 0.164D+00 0.667D+00
 Gap=     0.144 Goal=   None    Shift=    0.000
 Gap=     0.145 Goal=   None    Shift=    0.000
 RMSDP=5.36D-03 MaxDP=2.49D-01 DE=-9.84D+00 OVMax= 4.65D-01

 Cycle  10  Pass 1  IDiag  1:
 RMSU=  4.46D-03    CP:  7.05D-02  3.27D-02  1.53D-02  1.03D-01  7.26D-02
                    CP:  8.27D-01  1.08D-01  4.09D-01  5.17D-01
 E= -768.924346596948     Delta-E=       -0.225442310242 Rises=F Damp=F
 DIIS: error= 3.78D-02 at cycle  10 NSaved=  10.
 NSaved=10 IEnMin=10 EnMin= -768.924346596948     IErMin=10 ErrMin= 3.78D-02
 ErrMax= 3.78D-02  0.00D+00 EMaxC= 1.00D-01 BMatC= 3.47D+00 BMatP= 4.17D+00
 IDIUse=3 WtCom= 6.22D-01 WtEn= 3.78D-01
 Coeff-Com: -0.199D-01 0.315D-01 0.104D-01-0.110D-01-0.182D-02-0.565D-01
 Coeff-Com:  0.111D-01 0.584D-01 0.449D+00 0.528D+00
 Coeff-En:   0.000D+00 0.000D+00 0.000D+00 0.000D+00 0.000D+00 0.000D+00
 Coeff-En:   0.000D+00 0.000D+00 0.453D+00 0.547D+00
 Coeff:     -0.124D-01 0.196D-01 0.650D-02-0.682D-02-0.113D-02-0.351D-01
 Coeff:      0.692D-02 0.363D-01 0.451D+00 0.535D+00
 Gap=     0.212 Goal=   None    Shift=    0.000
 Gap=     0.212 Goal=   None    Shift=    0.000
 RMSDP=2.97D-03 MaxDP=1.37D-01 DE=-2.25D-01 OVMax= 3.37D-01

 Cycle  11  Pass 1  IDiag  1:
 RMSU=  1.48D-03    CP:  6.94D-02  3.23D-02  1.33D-02  9.96D-02  6.97D-02
                    CP:  7.91D-01  1.31D-01  5.13D-01  7.44D-01  5.82D-01
 E= -769.838189543594     Delta-E=       -0.913842946646 Rises=F Damp=F
 DIIS: error= 5.50D-03 at cycle  11 NSaved=  11.
 NSaved=11 IEnMin=11 EnMin= -769.838189543594     IErMin=11 ErrMin= 5.50D-03
 ErrMax= 5.50D-03  0.00D+00 EMaxC= 1.00D-01 BMatC= 1.10D-01 BMatP= 3.47D+00
 IDIUse=3 WtCom= 9.45D-01 WtEn= 5.50D-02
 Coeff-Com: -0.960D-03 0.122D-02-0.440D-03-0.201D-02-0.145D-03-0.191D-01
 Coeff-Com:  0.135D-02-0.461D-02 0.102D+00 0.183D+00 0.740D+00
 Coeff-En:   0.000D+00 0.000D+00 0.000D+00 0.000D+00 0.000D+00 0.000D+00
 Coeff-En:   0.000D+00 0.000D+00 0.000D+00 0.000D+00 0.100D+01
 Coeff:     -0.907D-03 0.116D-02-0.416D-03-0.190D-02-0.137D-03-0.181D-01
 Coeff:      0.128D-02-0.436D-02 0.965D-01 0.173D+00 0.754D+00
 Gap=     0.193 Goal=   None    Shift=    0.000
 Gap=     0.193 Goal=   None    Shift=    0.000
 RMSDP=8.16D-04 MaxDP=4.64D-02 DE=-9.14D-01 OVMax= 7.04D-02

 Cycle  12  Pass 1  IDiag  1:
 RMSU=  6.82D-04    CP:  6.97D-02  3.17D-02  1.36D-02  1.01D-01  7.01D-02
                    CP:  7.96D-01  1.27D-01  4.98D-01  7.32D-01  6.44D-01
                    CP:  8.05D-01
 E= -769.846924328720     Delta-E=       -0.008734785125 Rises=F Damp=F
 DIIS: error= 6.70D-03 at cycle  12 NSaved=  12.
 NSaved=12 IEnMin=12 EnMin= -769.846924328720     IErMin=11 ErrMin= 5.50D-03
 ErrMax= 6.70D-03  0.00D+00 EMaxC= 1.00D-01 BMatC= 8.10D-02 BMatP= 1.10D-01
 IDIUse=3 WtCom= 9.45D-01 WtEn= 5.50D-02
 Coeff-Com: -0.220D-03 0.881D-03-0.636D-03 0.123D-03 0.274D-03-0.345D-02
 Coeff-Com: -0.826D-03-0.613D-02 0.283D-01 0.468D-01 0.481D+00 0.454D+00
 Coeff-En:   0.000D+00 0.000D+00 0.000D+00 0.000D+00 0.000D+00 0.000D+00
 Coeff-En:   0.000D+00 0.000D+00 0.000D+00 0.000D+00 0.412D+00 0.588D+00
 Coeff:     -0.208D-03 0.832D-03-0.601D-03 0.117D-03 0.259D-03-0.326D-02
 Coeff:     -0.780D-03-0.580D-02 0.268D-01 0.442D-01 0.477D+00 0.461D+00
 Gap=     0.198 Goal=   None    Shift=    0.000
 Gap=     0.198 Goal=   None    Shift=    0.000
 RMSDP=4.35D-04 MaxDP=2.90D-02 DE=-8.73D-03 OVMax= 4.40D-02

 Cycle  13  Pass 1  IDiag  1:
 RMSU=  1.91D-04    CP:  6.97D-02  3.17D-02  1.35D-02  9.96D-02  7.04D-02
                    CP:  7.94D-01  1.29D-01  5.03D-01  7.37D-01  6.28D-01
                    CP:  8.84D-01  4.83D-01
 E= -769.862960848894     Delta-E=       -0.016036520175 Rises=F Damp=F
 DIIS: error= 1.77D-03 at cycle  13 NSaved=  13.
 NSaved=13 IEnMin=13 EnMin= -769.862960848894     IErMin=13 ErrMin= 1.77D-03
 ErrMax= 1.77D-03  0.00D+00 EMaxC= 1.00D-01 BMatC= 6.95D-03 BMatP= 8.10D-02
 IDIUse=3 WtCom= 9.82D-01 WtEn= 1.77D-02
 Coeff-Com: -0.261D-03 0.782D-03-0.434D-03 0.902D-04 0.250D-03 0.285D-02
 Coeff-Com: -0.970D-03-0.259D-02 0.115D-01 0.465D-02 0.211D+00 0.266D+00
 Coeff-Com:  0.508D+00
 Coeff-En:   0.000D+00 0.000D+00 0.000D+00 0.000D+00 0.000D+00 0.000D+00
 Coeff-En:   0.000D+00 0.000D+00 0.000D+00 0.000D+00 0.000D+00 0.000D+00
 Coeff-En:   0.100D+01
 Coeff:     -0.256D-03 0.768D-03-0.426D-03 0.886D-04 0.246D-03 0.280D-02
 Coeff:     -0.952D-03-0.255D-02 0.113D-01 0.456D-02 0.207D+00 0.261D+00
 Coeff:      0.516D+00
 Gap=     0.190 Goal=   None    Shift=    0.000
 Gap=     0.190 Goal=   None    Shift=    0.000
 RMSDP=1.30D-04 MaxDP=6.78D-03 DE=-1.60D-02 OVMax= 9.52D-03

 Cycle  14  Pass 1  IDiag  1:
 RMSU=  8.15D-05    CP:  6.97D-02  3.17D-02  1.34D-02  9.99D-02  7.02D-02
                    CP:  7.94D-01  1.28D-01  5.04D-01  7.39D-01  6.19D-01
                    CP:  8.83D-01  5.41D-01  5.90D-01
 E= -769.864281568939     Delta-E=       -0.001320720045 Rises=F Damp=F
 DIIS: error= 5.05D-04 at cycle  14 NSaved=  14.
 NSaved=14 IEnMin=14 EnMin= -769.864281568939     IErMin=14 ErrMin= 5.05D-04
 ErrMax= 5.05D-04  0.00D+00 EMaxC= 1.00D-01 BMatC= 8.51D-04 BMatP= 6.95D-03
 IDIUse=3 WtCom= 9.95D-01 WtEn= 5.05D-03
 Coeff-Com: -0.591D-04 0.221D-03-0.192D-03 0.742D-04-0.130D-04 0.242D-02
 Coeff-Com: -0.104D-02-0.491D-03 0.433D-02-0.491D-02 0.103D-01 0.321D-01
 Coeff-Com:  0.256D+00 0.702D+00
 Coeff-En:   0.000D+00 0.000D+00 0.000D+00 0.000D+00 0.000D+00 0.000D+00
 Coeff-En:   0.000D+00 0.000D+00 0.000D+00 0.000D+00 0.000D+00 0.000D+00
 Coeff-En:   0.000D+00 0.100D+01
 Coeff:     -0.588D-04 0.220D-03-0.192D-03 0.738D-04-0.130D-04 0.240D-02
 Coeff:     -0.104D-02-0.489D-03 0.430D-02-0.489D-02 0.102D-01 0.319D-01
 Coeff:      0.254D+00 0.703D+00
 Gap=     0.193 Goal=   None    Shift=    0.000
 Gap=     0.193 Goal=   None    Shift=    0.000
 RMSDP=5.16D-05 MaxDP=2.51D-03 DE=-1.32D-03 OVMax= 2.91D-03

 Cycle  15  Pass 1  IDiag  1:
 RMSU=  4.01D-05    CP:  6.97D-02  3.17D-02  1.34D-02  9.98D-02  7.02D-02
                    CP:  7.94D-01  1.28D-01  5.03D-01  7.40D-01  6.14D-01
                    CP:  8.81D-01  5.35D-01  6.67D-01  8.39D-01
 E= -769.864450192442     Delta-E=       -0.000168623503 Rises=F Damp=F
 DIIS: error= 2.40D-04 at cycle  15 NSaved=  15.
 NSaved=15 IEnMin=15 EnMin= -769.864450192442     IErMin=15 ErrMin= 2.40D-04
 ErrMax= 2.40D-04  0.00D+00 EMaxC= 1.00D-01 BMatC= 1.21D-04 BMatP= 8.51D-04
 IDIUse=3 WtCom= 9.98D-01 WtEn= 2.40D-03
 Coeff-Com:  0.134D-03-0.182D-03-0.420D-04 0.585D-04-0.426D-04 0.216D-03
 Coeff-Com: -0.381D-03 0.262D-03 0.141D-02 0.921D-03-0.296D-01-0.383D-01
 Coeff-Com:  0.183D-02 0.279D+00 0.785D+00
 Coeff-En:   0.000D+00 0.000D+00 0.000D+00 0.000D+00 0.000D+00 0.000D+00
 Coeff-En:   0.000D+00 0.000D+00 0.000D+00 0.000D+00 0.000D+00 0.000D+00
 Coeff-En:   0.000D+00 0.000D+00 0.100D+01
 Coeff:      0.133D-03-0.181D-03-0.419D-04 0.584D-04-0.425D-04 0.215D-03
 Coeff:     -0.380D-03 0.262D-03 0.141D-02 0.918D-03-0.295D-01-0.382D-01
 Coeff:      0.183D-02 0.278D+00 0.785D+00
 Gap=     0.192 Goal=   None    Shift=    0.000
 Gap=     0.192 Goal=   None    Shift=    0.000
 RMSDP=2.08D-05 MaxDP=7.38D-04 DE=-1.69D-04 OVMax= 2.31D-03

 Cycle  16  Pass 1  IDiag  1:
 RMSU=  1.47D-05    CP:  6.97D-02  3.17D-02  1.34D-02  9.98D-02  7.02D-02
                    CP:  7.94D-01  1.28D-01  5.03D-01  7.40D-01  6.13D-01
                    CP:  8.77D-01  5.25D-01  6.73D-01  9.74D-01  9.46D-01
 E= -769.864475798361     Delta-E=       -0.000025605919 Rises=F Damp=F
 DIIS: error= 1.13D-04 at cycle  16 NSaved=  16.
 NSaved=16 IEnMin=16 EnMin= -769.864475798361     IErMin=16 ErrMin= 1.13D-04
 ErrMax= 1.13D-04  0.00D+00 EMaxC= 1.00D-01 BMatC= 3.17D-05 BMatP= 1.21D-04
 IDIUse=3 WtCom= 9.99D-01 WtEn= 1.13D-03
 Coeff-Com:  0.249D-04-0.172D-04-0.305D-04 0.708D-04-0.101D-04-0.184D-03
 Coeff-Com: -0.430D-04 0.126D-03-0.925D-04 0.129D-02-0.906D-02-0.139D-01
 Coeff-Com: -0.494D-02 0.650D-01 0.349D+00 0.612D+00
 Coeff-En:   0.000D+00 0.000D+00 0.000D+00 0.000D+00 0.000D+00 0.000D+00
 Coeff-En:   0.000D+00 0.000D+00 0.000D+00 0.000D+00 0.000D+00 0.000D+00
 Coeff-En:   0.000D+00 0.000D+00 0.107D+00 0.893D+00
 Coeff:      0.249D-04-0.171D-04-0.305D-04 0.707D-04-0.101D-04-0.184D-03
 Coeff:     -0.430D-04 0.126D-03-0.924D-04 0.129D-02-0.905D-02-0.139D-01
 Coeff:     -0.493D-02 0.649D-01 0.349D+00 0.613D+00
 Gap=     0.192 Goal=   None    Shift=    0.000
 Gap=     0.192 Goal=   None    Shift=    0.000
 RMSDP=8.27D-06 MaxDP=2.46D-04 DE=-2.56D-05 OVMax= 7.33D-04

 Cycle  17  Pass 1  IDiag  1:
 RMSU=  5.38D-06    CP:  6.97D-02  3.17D-02  1.34D-02  9.98D-02  7.02D-02
                    CP:  7.94D-01  1.28D-01  5.03D-01  7.40D-01  6.14D-01
                    CP:  8.77D-01  5.25D-01  6.74D-01  9.65D-01  9.96D-01
                    CP:  6.41D-01
 E= -769.864481688827     Delta-E=       -0.000005890466 Rises=F Damp=F
 DIIS: error= 5.29D-05 at cycle  17 NSaved=  17.
 NSaved=17 IEnMin=17 EnMin= -769.864481688827     IErMin=17 ErrMin= 5.29D-05
 ErrMax= 5.29D-05  0.00D+00 EMaxC= 1.00D-01 BMatC= 6.62D-06 BMatP= 3.17D-05
 IDIUse=1 WtCom= 1.00D+00 WtEn= 0.00D+00
 Coeff-Com: -0.595D-05 0.206D-04-0.269D-04 0.386D-04 0.116D-05-0.910D-04
 Coeff-Com: -0.199D-05 0.607D-04-0.234D-03 0.371D-03 0.625D-04-0.237D-03
 Coeff-Com:  0.125D-01 0.314D-01 0.811D-01 0.270D+00 0.605D+00
 Coeff:     -0.595D-05 0.206D-04-0.269D-04 0.386D-04 0.116D-05-0.910D-04
 Coeff:     -0.199D-05 0.607D-04-0.234D-03 0.371D-03 0.625D-04-0.237D-03
 Coeff:      0.125D-01 0.314D-01 0.811D-01 0.270D+00 0.605D+00
 Gap=     0.192 Goal=   None    Shift=    0.000
 Gap=     0.192 Goal=   None    Shift=    0.000
 RMSDP=3.73D-06 MaxDP=1.33D-04 DE=-5.89D-06 OVMax= 3.48D-04

 Cycle  18  Pass 1  IDiag  1:
 RMSU=  2.00D-06    CP:  6.97D-02  3.17D-02  1.34D-02  9.98D-02  7.02D-02
                    CP:  7.94D-01  1.28D-01  5.03D-01  7.40D-01  6.14D-01
                    CP:  8.78D-01  5.25D-01  6.75D-01  9.55D-01  9.61D-01
                    CP:  6.86D-01  6.21D-01
 E= -769.864483003654     Delta-E=       -0.000001314826 Rises=F Damp=F
 DIIS: error= 2.78D-05 at cycle  18 NSaved=  18.
 NSaved=18 IEnMin=18 EnMin= -769.864483003654     IErMin=18 ErrMin= 2.78D-05
 ErrMax= 2.78D-05  0.00D+00 EMaxC= 1.00D-01 BMatC= 1.45D-06 BMatP= 6.62D-06
 IDIUse=1 WtCom= 1.00D+00 WtEn= 0.00D+00
 Coeff-Com:  0.202D-05-0.964D-06-0.784D-05 0.733D-05-0.105D-05-0.275D-04
 Coeff-Com:  0.355D-05 0.195D-04-0.376D-04-0.161D-03 0.230D-02 0.352D-02
 Coeff-Com:  0.134D-01 0.124D-01-0.664D-01-0.770D-01 0.248D+00 0.864D+00
 Coeff:      0.202D-05-0.964D-06-0.784D-05 0.733D-05-0.105D-05-0.275D-04
 Coeff:      0.355D-05 0.195D-04-0.376D-04-0.161D-03 0.230D-02 0.352D-02
 Coeff:      0.134D-01 0.124D-01-0.664D-01-0.770D-01 0.248D+00 0.864D+00
 Gap=     0.192 Goal=   None    Shift=    0.000
 Gap=     0.192 Goal=   None    Shift=    0.000
 RMSDP=2.15D-06 MaxDP=1.07D-04 DE=-1.31D-06 OVMax= 1.66D-04

 Cycle  19  Pass 1  IDiag  1:
 RMSU=  1.02D-06    CP:  6.97D-02  3.17D-02  1.34D-02  9.98D-02  7.02D-02
                    CP:  7.94D-01  1.28D-01  5.03D-01  7.40D-01  6.14D-01
                    CP:  8.78D-01  5.25D-01  6.75D-01  9.49D-01  9.38D-01
                    CP:  6.66D-01  7.65D-01  8.83D-01
 E= -769.864483334534     Delta-E=       -0.000000330880 Rises=F Damp=F
 DIIS: error= 5.09D-06 at cycle  19 NSaved=  19.
 NSaved=19 IEnMin=19 EnMin= -769.864483334534     IErMin=19 ErrMin= 5.09D-06
 ErrMax= 5.09D-06  0.00D+00 EMaxC= 1.00D-01 BMatC= 1.05D-07 BMatP= 1.45D-06
 IDIUse=1 WtCom= 1.00D+00 WtEn= 0.00D+00
 Coeff-Com:  0.195D-05-0.268D-05-0.101D-05 0.182D-05-0.866D-06-0.493D-05
 Coeff-Com: -0.292D-05 0.707D-05 0.130D-04-0.112D-03 0.970D-03 0.141D-02
 Coeff-Com:  0.564D-02 0.447D-02-0.397D-01-0.709D-01 0.424D-01 0.394D+00
 Coeff-Com:  0.662D+00
 Coeff:      0.195D-05-0.268D-05-0.101D-05 0.182D-05-0.866D-06-0.493D-05
 Coeff:     -0.292D-05 0.707D-05 0.130D-04-0.112D-03 0.970D-03 0.141D-02
 Coeff:      0.564D-02 0.447D-02-0.397D-01-0.709D-01 0.424D-01 0.394D+00
 Coeff:      0.662D+00
 Gap=     0.192 Goal=   None    Shift=    0.000
 Gap=     0.192 Goal=   None    Shift=    0.000
 RMSDP=5.84D-07 MaxDP=2.26D-05 DE=-3.31D-07 OVMax= 5.88D-05

 Cycle  20  Pass 1  IDiag  1:
 RMSU=  3.87D-07    CP:  6.97D-02  3.17D-02  1.34D-02  9.98D-02  7.02D-02
                    CP:  7.94D-01  1.28D-01  5.03D-01  7.40D-01  6.14D-01
                    CP:  8.78D-01  5.25D-01  6.76D-01  9.48D-01  9.34D-01
                    CP:  6.65D-01  7.69D-01  9.74D-01  7.85D-01
 E= -769.864483357885     Delta-E=       -0.000000023351 Rises=F Damp=F
 DIIS: error= 2.51D-06 at cycle  20 NSaved=  20.
 NSaved=20 IEnMin=20 EnMin= -769.864483357885     IErMin=20 ErrMin= 2.51D-06
 ErrMax= 2.51D-06  0.00D+00 EMaxC= 1.00D-01 BMatC= 1.70D-08 BMatP= 1.05D-07
 IDIUse=1 WtCom= 1.00D+00 WtEn= 0.00D+00
 Coeff-Com:  0.293D-06-0.409D-06 0.154D-06 0.330D-06-0.592D-07 0.224D-05
 Coeff-Com: -0.894D-06 0.216D-05-0.215D-05-0.356D-04 0.214D-03 0.189D-03
 Coeff-Com:  0.838D-03-0.526D-03-0.128D-01-0.269D-01-0.150D-01 0.670D-01
 Coeff-Com:  0.331D+00 0.656D+00
 Coeff:      0.293D-06-0.409D-06 0.154D-06 0.330D-06-0.592D-07 0.224D-05
 Coeff:     -0.894D-06 0.216D-05-0.215D-05-0.356D-04 0.214D-03 0.189D-03
 Coeff:      0.838D-03-0.526D-03-0.128D-01-0.269D-01-0.150D-01 0.670D-01
 Coeff:      0.331D+00 0.656D+00
 Gap=     0.192 Goal=   None    Shift=    0.000
 Gap=     0.192 Goal=   None    Shift=    0.000
 RMSDP=2.16D-07 MaxDP=8.82D-06 DE=-2.34D-08 OVMax= 2.13D-05

 Cycle  21  Pass 1  IDiag  1:
 Restarting incremental Fock formation.
 E= -769.864483361903     Delta-E=       -0.000000004019 Rises=F Damp=F
 DIIS: error= 6.27D-07 at cycle  21 NSaved=  20.
 NSaved=20 IEnMin=20 EnMin= -769.864483361903     IErMin=20 ErrMin= 6.27D-07
 ErrMax= 6.27D-07  0.00D+00 EMaxC= 1.00D-01 BMatC= 1.19D-09 BMatP= 1.70D-08
 IDIUse=1 WtCom= 1.00D+00 WtEn= 0.00D+00
 Coeff-Com: -0.844D-08 0.116D-06 0.668D-07-0.553D-07 0.188D-05-0.356D-06
 Coeff-Com:  0.937D-06-0.276D-05-0.380D-05 0.200D-04-0.455D-04-0.458D-04
 Coeff-Com: -0.687D-03-0.261D-02-0.549D-02-0.731D-02-0.345D-02 0.879D-01
 Coeff-Com:  0.283D+00 0.649D+00
 Coeff:     -0.844D-08 0.116D-06 0.668D-07-0.553D-07 0.188D-05-0.356D-06
 Coeff:      0.937D-06-0.276D-05-0.380D-05 0.200D-04-0.455D-04-0.458D-04
 Coeff:     -0.687D-03-0.261D-02-0.549D-02-0.731D-02-0.345D-02 0.879D-01
 Coeff:      0.283D+00 0.649D+00
 Gap=     0.192 Goal=   None    Shift=    0.000
 Gap=     0.192 Goal=   None    Shift=    0.000
 RMSDP=6.28D-08 MaxDP=2.18D-06 DE=-4.02D-09 OVMax= 5.78D-06

 Cycle  22  Pass 1  IDiag  1:
 RMSU=  6.27D-08    CP:  1.00D+00
 E= -769.864483362148     Delta-E=       -0.000000000245 Rises=F Damp=F
 DIIS: error= 2.99D-07 at cycle  22 NSaved=  20.
 NSaved=20 IEnMin=20 EnMin= -769.864483362148     IErMin=20 ErrMin= 2.99D-07
 ErrMax= 2.99D-07  0.00D+00 EMaxC= 1.00D-01 BMatC= 2.13D-10 BMatP= 1.19D-09
 IDIUse=1 WtCom= 1.00D+00 WtEn= 0.00D+00
 Coeff-Com: -0.252D-07 0.375D-07-0.534D-07 0.456D-06-0.192D-06 0.139D-06
 Coeff-Com: -0.172D-05 0.363D-05-0.616D-05-0.441D-04-0.126D-03-0.400D-03
 Coeff-Com: -0.151D-03 0.126D-03-0.202D-02-0.103D-01 0.105D-01 0.834D-01
 Coeff-Com:  0.350D+00 0.569D+00
 Coeff:     -0.252D-07 0.375D-07-0.534D-07 0.456D-06-0.192D-06 0.139D-06
 Coeff:     -0.172D-05 0.363D-05-0.616D-05-0.441D-04-0.126D-03-0.400D-03
 Coeff:     -0.151D-03 0.126D-03-0.202D-02-0.103D-01 0.105D-01 0.834D-01
 Coeff:      0.350D+00 0.569D+00
 Gap=     0.192 Goal=   None    Shift=    0.000
 Gap=     0.192 Goal=   None    Shift=    0.000
 RMSDP=2.67D-08 MaxDP=8.67D-07 DE=-2.45D-10 OVMax= 2.94D-06

 Cycle  23  Pass 1  IDiag  1:
 RMSU=  2.55D-08    CP:  1.00D+00  8.72D-01
 E= -769.864483362209     Delta-E=       -0.000000000061 Rises=F Damp=F
 DIIS: error= 9.79D-08 at cycle  23 NSaved=  20.
 NSaved=20 IEnMin=20 EnMin= -769.864483362209     IErMin=20 ErrMin= 9.79D-08
 ErrMax= 9.79D-08  0.00D+00 EMaxC= 1.00D-01 BMatC= 2.23D-11 BMatP= 2.13D-10
 IDIUse=1 WtCom= 1.00D+00 WtEn= 0.00D+00
 Coeff-Com:  0.680D-08 0.739D-08 0.108D-07-0.537D-07-0.510D-08-0.496D-06
 Coeff-Com:  0.177D-05-0.285D-05-0.699D-05-0.128D-04-0.233D-04 0.152D-03
 Coeff-Com:  0.698D-03 0.101D-02-0.154D-02-0.651D-02-0.587D-02 0.261D-01
 Coeff-Com:  0.219D+00 0.768D+00
 Coeff:      0.680D-08 0.739D-08 0.108D-07-0.537D-07-0.510D-08-0.496D-06
 Coeff:      0.177D-05-0.285D-05-0.699D-05-0.128D-04-0.233D-04 0.152D-03
 Coeff:      0.698D-03 0.101D-02-0.154D-02-0.651D-02-0.587D-02 0.261D-01
 Coeff:      0.219D+00 0.768D+00
 Gap=     0.192 Goal=   None    Shift=    0.000
 Gap=     0.192 Goal=   None    Shift=    0.000
 RMSDP=1.03D-08 MaxDP=5.07D-07 DE=-6.07D-11 OVMax= 1.09D-06

 Cycle  24  Pass 1  IDiag  1:
 RMSU=  8.66D-09    CP:  1.00D+00  9.61D-01  9.95D-01
 E= -769.864483362222     Delta-E=       -0.000000000013 Rises=F Damp=F
 DIIS: error= 4.70D-08 at cycle  24 NSaved=  20.
 NSaved=20 IEnMin=20 EnMin= -769.864483362222     IErMin=20 ErrMin= 4.70D-08
 ErrMax= 4.70D-08  0.00D+00 EMaxC= 1.00D-01 BMatC= 4.05D-12 BMatP= 2.23D-11
 IDIUse=1 WtCom= 1.00D+00 WtEn= 0.00D+00
 Coeff-Com: -0.839D-08 0.341D-08 0.121D-07-0.188D-07-0.978D-07 0.305D-06
 Coeff-Com: -0.530D-06 0.184D-05 0.544D-05 0.275D-04 0.487D-04 0.230D-03
 Coeff-Com:  0.623D-03 0.496D-03-0.408D-02-0.113D-01-0.294D-01 0.385D-01
 Coeff-Com:  0.384D+00 0.621D+00
 Coeff:     -0.839D-08 0.341D-08 0.121D-07-0.188D-07-0.978D-07 0.305D-06
 Coeff:     -0.530D-06 0.184D-05 0.544D-05 0.275D-04 0.487D-04 0.230D-03
 Coeff:      0.623D-03 0.496D-03-0.408D-02-0.113D-01-0.294D-01 0.385D-01
 Coeff:      0.384D+00 0.621D+00
 Gap=     0.192 Goal=   None    Shift=    0.000
 Gap=     0.192 Goal=   None    Shift=    0.000
 RMSDP=4.22D-09 MaxDP=2.79D-07 DE=-1.25D-11 OVMax= 6.01D-07

 Error on total polarization charges =  0.00922
 SCF Done:  E(UB3LYP) =  -769.864483362     A.U. after   24 cycles
            NFock= 24  Conv=0.42D-08     -V/T= 2.0097
 <Sx>= 0.0000 <Sy>= 0.0000 <Sz>= 0.0000 <S**2>= 0.0000 S= 0.0000
 <L.S>=  0.00000000000    
 KE= 7.625014807132D+02 PE=-4.333225607788D+03 EE= 1.528672873657D+03
 Annihilation of the first spin contaminant:
 S**2 before annihilation     0.0000,   after    -0.0000
 Leave Link  502 at Fri May 10 18:33:09 2019, MaxMem=   104857600 cpu:            1751.7 elap:              55.7
 (Enter /opt/software/gaussian/g16.b01/l801.exe)
 DoSCS=F DFT=T ScalE2(SS,OS)=  1.000000  1.000000
 ExpMin= 1.61D-01 ExpMax= 5.48D+03 ExpMxC= 8.25D+02 IAcc=3 IRadAn=         5 AccDes= 0.00D+00
 HarFok:  IExCor=  205 AccDes= 0.00D+00 IRadAn=         5 IDoV=-2 UseB2=F ITyADJ=14
 ICtDFT= 12500011 ScaDFX=  1.000000  1.000000  1.000000  1.000000
 Largest valence mixing into a core orbital is  5.78D-05
 Largest core mixing into a valence orbital is  1.23D-05
 Largest valence mixing into a core orbital is  5.78D-05
 Largest core mixing into a valence orbital is  1.23D-05
 Range of M.O.s used for correlation:    19   350
 NBasis=   350 NAE=    64 NBE=    64 NFC=    18 NFV=     0
 NROrb=    332 NOA=    46 NOB=    46 NVA=   286 NVB=   286
 Leave Link  801 at Fri May 10 18:33:09 2019, MaxMem=   104857600 cpu:               3.8 elap:               0.2
 (Enter /opt/software/gaussian/g16.b01/l914.exe)
 UHF ground state
 Two-electron integrals replicated using symmetry.
 MDV=   104857600 DFT=T DoStab=F Mixed=T DoRPA=T DoScal=F NonHer=T
 NEqPCM:  Using equilibrium solvation (IEInf=0, Eps=  35.6880, EpsInf=   1.8069)
 Making orbital integer symmetry assigments:
 Orbital symmetries:
 Alpha Orbitals:
       Occupied  (A) (A) (A) (A) (A) (A) (A) (A) (A) (A) (A) (A)
                 (A) (A) (A) (A) (A) (A) (A) (A) (A) (A) (A) (A)
                 (A) (A) (A) (A) (A) (A) (A) (A) (A) (A) (A) (A)
                 (A) (A) (A) (A) (A) (A) (A) (A) (A) (A) (A) (A)
                 (A) (A) (A) (A) (A) (A) (A) (A) (A) (A) (A) (A)
                 (A) (A) (A) (A)
       Virtual   (A) (A) (A) (A) (A) (A) (A) (A) (A) (A) (A) (A)
                 (A) (A) (A) (A) (A) (A) (A) (A) (A) (A) (A) (A)
                 (A) (A) (A) (A) (A) (A) (A) (A) (A) (A) (A) (A)
                 (A) (A) (A) (A) (A) (A) (A) (A) (A) (A) (A) (A)
                 (A) (A) (A) (A) (A) (A) (A) (A) (A) (A) (A) (A)
                 (A) (A) (A) (A) (A) (A) (A) (A) (A) (A) (A) (A)
                 (A) (A) (A) (A) (A) (A) (A) (A) (A) (A) (A) (A)
                 (A) (A) (A) (A) (A) (A) (A) (A) (A) (A) (A) (A)
                 (A) (A) (A) (A) (A) (A) (A) (A) (A) (A) (A) (A)
                 (A) (A) (A) (A) (A) (A) (A) (A) (A) (A) (A) (A)
                 (A) (A) (A) (A) (A) (A) (A) (A) (A) (A) (A) (A)
                 (A) (A) (A) (A) (A) (A) (A) (A) (A) (A) (A) (A)
                 (A) (A) (A) (A) (A) (A) (A) (A) (A) (A) (A) (A)
                 (A) (A) (A) (A) (A) (A) (A) (A) (A) (A) (A) (A)
                 (A) (A) (A) (A) (A) (A) (A) (A) (A) (A) (A) (A)
                 (A) (A) (A) (A) (A) (A) (A) (A) (A) (A) (A) (A)
                 (A) (A) (A) (A) (A) (A) (A) (A) (A) (A) (A) (A)
                 (A) (A) (A) (A) (A) (A) (A) (A) (A) (A) (A) (A)
                 (A) (A) (A) (A) (A) (A) (A) (A) (A) (A) (A) (A)
                 (A) (A) (A) (A) (A) (A) (A) (A) (A) (A) (A) (A)
                 (A) (A) (A) (A) (A) (A) (A) (A) (A) (A) (A) (A)
                 (A) (A) (A) (A) (A) (A) (A) (A) (A) (A) (A) (A)
                 (A) (A) (A) (A) (A) (A) (A) (A) (A) (A) (A) (A)
                 (A) (A) (A) (A) (A) (A) (A) (A) (A) (A)
 Beta  Orbitals:
       Occupied  (A) (A) (A) (A) (A) (A) (A) (A) (A) (A) (A) (A)
                 (A) (A) (A) (A) (A) (A) (A) (A) (A) (A) (A) (A)
                 (A) (A) (A) (A) (A) (A) (A) (A) (A) (A) (A) (A)
                 (A) (A) (A) (A) (A) (A) (A) (A) (A) (A) (A) (A)
                 (A) (A) (A) (A) (A) (A) (A) (A) (A) (A) (A) (A)
                 (A) (A) (A) (A)
       Virtual   (A) (A) (A) (A) (A) (A) (A) (A) (A) (A) (A) (A)
                 (A) (A) (A) (A) (A) (A) (A) (A) (A) (A) (A) (A)
                 (A) (A) (A) (A) (A) (A) (A) (A) (A) (A) (A) (A)
                 (A) (A) (A) (A) (A) (A) (A) (A) (A) (A) (A) (A)
                 (A) (A) (A) (A) (A) (A) (A) (A) (A) (A) (A) (A)
                 (A) (A) (A) (A) (A) (A) (A) (A) (A) (A) (A) (A)
                 (A) (A) (A) (A) (A) (A) (A) (A) (A) (A) (A) (A)
                 (A) (A) (A) (A) (A) (A) (A) (A) (A) (A) (A) (A)
                 (A) (A) (A) (A) (A) (A) (A) (A) (A) (A) (A) (A)
                 (A) (A) (A) (A) (A) (A) (A) (A) (A) (A) (A) (A)
                 (A) (A) (A) (A) (A) (A) (A) (A) (A) (A) (A) (A)
                 (A) (A) (A) (A) (A) (A) (A) (A) (A) (A) (A) (A)
                 (A) (A) (A) (A) (A) (A) (A) (A) (A) (A) (A) (A)
                 (A) (A) (A) (A) (A) (A) (A) (A) (A) (A) (A) (A)
                 (A) (A) (A) (A) (A) (A) (A) (A) (A) (A) (A) (A)
                 (A) (A) (A) (A) (A) (A) (A) (A) (A) (A) (A) (A)
                 (A) (A) (A) (A) (A) (A) (A) (A) (A) (A) (A) (A)
                 (A) (A) (A) (A) (A) (A) (A) (A) (A) (A) (A) (A)
                 (A) (A) (A) (A) (A) (A) (A) (A) (A) (A) (A) (A)
                 (A) (A) (A) (A) (A) (A) (A) (A) (A) (A) (A) (A)
                 (A) (A) (A) (A) (A) (A) (A) (A) (A) (A) (A) (A)
                 (A) (A) (A) (A) (A) (A) (A) (A) (A) (A) (A) (A)
                 (A) (A) (A) (A) (A) (A) (A) (A) (A) (A) (A) (A)
                 (A) (A) (A) (A) (A) (A) (A) (A) (A) (A)
    96 initial guesses have been made.
 Convergence on wavefunction:    0.000001000000000
 Davidson Disk Diagonalization:  ConvIn= 1.00D-06 SkipCon=T Conv= 1.00D-06.
 Max sub-space:  2000 roots to seek:    96 dimension of matrix:        26312
 Iteration     1 Dimension    96 NMult     0 NNew     96
 CISAX will form     4 AO SS matrices at one time.
 NMat=     4 NSing=     4 JSym2X= 0.
 FoFJK:  IHMeth= 1 ICntrl=       0 DoSepK=F KAlg= 0 I1Cent=           0 FoldK=F
 IRaf= 830000000 NMat=       8 IRICut=       1 DoRegI=T DoRafI=F ISym2E= 0 IDoP0=0 IntGTp=1.
 FoFCou: FMM=F IPFlag=           0 FMFlag=      100000 FMFlg1=           0
         NFxFlg=           0 DoJE=F BraDBF=F KetDBF=F FulRan=T
         wScrn=  0.000000 ICntrl=         0 IOpCl=  1 I1Cent=           0 NGrid=           0
         NMat0=    8 NMatS0=      4 NMatT0=    0 NMatD0=    8 NMtDS0=    0 NMtDT0=    0
 Symmetry not used in FoFCou.
 NMat=     4 NSing=     4 JSym2X= 0.
 NMat=     4 NSing=     4 JSym2X= 0.
 NMat=     4 NSing=     4 JSym2X= 0.
 NMat=     4 NSing=     4 JSym2X= 0.
 NMat=     4 NSing=     4 JSym2X= 0.
 NMat=     4 NSing=     4 JSym2X= 0.
 NMat=     4 NSing=     4 JSym2X= 0.
 NMat=     4 NSing=     4 JSym2X= 0.
 NMat=     4 NSing=     4 JSym2X= 0.
 NMat=     4 NSing=     4 JSym2X= 0.
 NMat=     4 NSing=     4 JSym2X= 0.
 NMat=     4 NSing=     4 JSym2X= 0.
 NMat=     4 NSing=     4 JSym2X= 0.
 NMat=     4 NSing=     4 JSym2X= 0.
 NMat=     4 NSing=     4 JSym2X= 0.
 NMat=     4 NSing=     4 JSym2X= 0.
 NMat=     4 NSing=     4 JSym2X= 0.
 NMat=     4 NSing=     4 JSym2X= 0.
 NMat=     4 NSing=     4 JSym2X= 0.
 NMat=     4 NSing=     4 JSym2X= 0.
 NMat=     4 NSing=     4 JSym2X= 0.
 NMat=     4 NSing=     4 JSym2X= 0.
 NMat=     4 NSing=     4 JSym2X= 0.
 New state      1 was old state     11
 New state      2 was old state      5
 New state      3 was old state      2
 New state      4 was old state      7
 New state      5 was old state      3
 New state      7 was old state      1
 New state      9 was old state     25
 New state     10 was old state     32
 New state     11 was old state     10
 New state     12 was old state     13
 New state     13 was old state      4
 New state     15 was old state     12
 New state     16 was old state      9
 New state     17 was old state     18
 New state     18 was old state     17
 New state     19 was old state     21
 New state     20 was old state     23
 New state     21 was old state     16
 New state     22 was old state     24
 New state     23 was old state     22
 New state     24 was old state     20
 Excitation Energies [eV] at current iteration:
 Root      1 :     3.402678679538532
 Root      2 :     3.407652753036042
 Root      3 :     3.648237126836232
 Root      4 :     3.664864691569576
 Root      5 :     3.861880057913559
 Root      6 :     3.866430037498211
 Root      7 :     3.997965617373038
 Root      8 :     4.030971748942954
 Root      9 :     4.615677941075218
 Root     10 :     4.632149393999100
 Root     11 :     4.637396469256802
 Root     12 :     4.658259554060464
 Root     13 :     4.660970716948768
 Root     14 :     4.661696946092013
 Root     15 :     4.665741763626335
 Root     16 :     4.732307809875711
[...]
         6        -0.0000      0.0000     -0.0000      0.0000
         7        -6.6723      2.2459      4.2123     -0.0714
         8        -0.0000     -0.0000      0.0000     -0.0000
         9         0.0000      0.0000      0.0000      0.0000
        10         7.1931      2.6231      5.0783      4.9649
        11        12.4887     38.6124    -94.2464    -14.3818
        12       -24.9451      1.1917    -22.0545    -15.2693
        13        -0.0000     -0.0000     -0.0000     -0.0000
        14         0.0000      0.0000     -0.0000      0.0000
        15        -0.0000      0.0000      0.0000      0.0000
        16        -0.0000      0.0000     -0.0000     -0.0000
        17       107.7582   -113.7727    202.3547     65.4467
        18        -7.2661    138.7880   -140.5807     -3.0196
        19      -271.8592     63.5952    -98.8344   -102.3661
        20        -0.0000      0.0000     -0.0000     -0.0000
        21       -54.7894     29.0158    -23.0324    -16.2687
        22         0.0000      0.0000     -0.0000     -0.0000
        23       217.5913     69.9749      9.8628     99.1430
        24         0.0000      0.0000      0.0000      0.0000
  1/2[<0|del|b>*<b|r|0> + (<0|r|b>*<b|del|0>)*] (Au)
       state          X           Y           Z        Dip. S.   Osc.(frdel)
         1        -0.0000     -0.0000     -0.0000      0.0000      0.0000
         2        -0.0000     -0.0000     -0.0000      0.0000      0.0000
         3        -0.0000     -0.0000     -0.0000      0.0000      0.0000
         4        -0.0000     -0.0000     -0.0000      0.0000      0.0000
         5        -0.0000     -0.0000      0.0000      0.0000      0.0000
         6        -0.0000     -0.0000     -0.0000      0.0000      0.0000
         7        -0.0000     -0.0000     -0.0000      0.0000      0.0000
         8        -0.0000     -0.0000     -0.0000      0.0000      0.0000
         9        -0.0000     -0.0000     -0.0000      0.0000      0.0000
        10        -0.0005     -0.0000     -0.0029      0.0035      0.0023
        11        -0.0059     -0.0010     -0.0226      0.0295      0.0197
        12        -0.0162     -0.0002     -0.0010      0.0174      0.0116
        13        -0.0000     -0.0000     -0.0000      0.0000      0.0000
        14        -0.0000     -0.0000     -0.0000      0.0000      0.0000
        15         0.0000     -0.0000     -0.0000      0.0000      0.0000
        16        -0.0000      0.0000     -0.0000      0.0000      0.0000
        17        -0.0767     -0.0464     -0.0210      0.1441      0.0961
        18        -0.0356     -0.0622     -0.0093      0.1071      0.0714
        19        -0.1378     -0.0228     -0.0569      0.2174      0.1450
        20        -0.0000     -0.0000     -0.0000      0.0000      0.0000
        21        -0.0357     -0.0094     -0.0167      0.0619      0.0413
        22        -0.0000     -0.0000     -0.0000      0.0000      0.0000
        23        -0.3257     -0.1210     -0.0018      0.4485      0.2990
        24        -0.0000     -0.0000     -0.0000      0.0000      0.0000

 Excitation energies and oscillator strengths:
 
 Excited State   1:  3.000-A      2.8132 eV  440.72 nm  f=0.0000  <S**2>=2.000
     60A -> 65A        0.45607
     61A -> 65A       -0.14179
     63A -> 65A        0.46308
     60B -> 65B       -0.45606
     61B -> 65B        0.14180
     63B -> 65B       -0.46309
 
 Excited State   2:  3.000-A      2.8708 eV  431.88 nm  f=0.0000  <S**2>=2.000
     61A -> 65A        0.40696
     62A -> 65A        0.54642
     62A -> 69A       -0.10828
     61B -> 65B       -0.40691
     62B -> 65B       -0.54647
     62B -> 69B        0.10829
 
 Excited State   3:  3.000-A      4.0602 eV  305.36 nm  f=0.0000  <S**2>=2.000
     64A -> 65A        0.67315
     64A -> 66A        0.18795
     64B -> 65B       -0.67309
     64B -> 66B       -0.18792
 This state for optimization and/or second-order correction.
 Total Energy, E(TD-HF/TD-DFT) =  -769.704392056    
 Copying the excited state density for this state as the 1-particle RhoCI density.
 
 Excited State   4:  3.000-A      3.2968 eV  376.08 nm  f=0.0000  <S**2>=2.000
     59A -> 66A        0.13710
     60A -> 65A       -0.14282
     60A -> 66A        0.31389
     61A -> 66A        0.23602
     61A -> 67A       -0.10608
     61A -> 68A        0.11064
     62A -> 66A       -0.23457
     63A -> 65A        0.12966
     63A -> 66A       -0.38601
     59B -> 66B       -0.13710
     60B -> 65B        0.14282
     60B -> 66B       -0.31389
     61B -> 66B       -0.23605
     61B -> 67B        0.10609
     61B -> 68B       -0.11065
     62B -> 66B        0.23454
     63B -> 65B       -0.12965
     63B -> 66B        0.38601
 
 Excited State   5:  1.000-A      3.3677 eV  368.16 nm  f=0.0000  <S**2>=0.000
     61A -> 65A        0.42457
     62A -> 65A        0.54146
     61B -> 65B        0.42451
     62B -> 65B        0.54149
 
 Excited State   6:  3.000-A      3.5424 eV  350.00 nm  f=0.0000  <S**2>=2.000
     59A -> 65A        0.34787
     60A -> 65A       -0.26252
     61A -> 65A        0.34625
     62A -> 65A       -0.21261
     63A -> 65A        0.34517
     59B -> 65B       -0.34787
     60B -> 65B        0.26251
     61B -> 65B       -0.34627
     62B -> 65B        0.21257
     63B -> 65B       -0.34517
 
 Excited State   7:  1.000-A      3.7077 eV  334.39 nm  f=0.0001  <S**2>=0.000
     64A -> 65A       -0.29616
     64A -> 66A        0.62735
     64A -> 70A       -0.11310
     64B -> 65B       -0.29616
     64B -> 66B        0.62737
     64B -> 70B       -0.11311
 
 Excited State   8:  3.000-A      3.9606 eV  313.04 nm  f=0.0000  <S**2>=2.000
     59A -> 65A       -0.22798
     59A -> 66A        0.26309
     61A -> 65A        0.14927
     61A -> 66A       -0.37375
     62A -> 65A       -0.12082
     62A -> 66A        0.28585
     63A -> 66A       -0.31020
     59B -> 65B        0.22798
     59B -> 66B       -0.26309
     61B -> 65B       -0.14928
     61B -> 66B        0.37378
     62B -> 65B        0.12081
     62B -> 66B       -0.28582
     63B -> 66B        0.31020
 
 Excited State   9:  3.000-A      3.2236 eV  384.61 nm  f=0.0000  <S**2>=2.000
     64A -> 65A        0.19013
     64A -> 66A       -0.65679
     64A -> 70A        0.16198
     64B -> 65B       -0.19012
     64B -> 66B        0.65678
     64B -> 70B       -0.16197
 
 Excited State  10:  1.000-A      4.0769 eV  304.11 nm  f=0.0021  <S**2>=0.000
     63A -> 65A       -0.14453
     64A -> 65A        0.62015
     64A -> 66A        0.28133
     63B -> 65B       -0.14453
     64B -> 65B        0.62021
     64B -> 66B        0.28135
 
 Excited State  11:  1.000-A      4.0979 eV  302.56 nm  f=0.0191  <S**2>=0.000
     60A -> 65A       -0.15109
     61A -> 65A        0.26785
     62A -> 65A       -0.10026
     63A -> 65A        0.59636
     64A -> 65A        0.14786
     60B -> 65B       -0.15109
     61B -> 65B        0.26786
     62B -> 65B       -0.10024
     63B -> 65B        0.59636
     64B -> 65B        0.14787
 
 Excited State  12:  1.000-A      4.1881 eV  296.04 nm  f=0.0120  <S**2>=0.000
     60A -> 65A        0.19836
     61A -> 65A        0.47724
     62A -> 65A       -0.41233
     63A -> 65A       -0.24303
     60B -> 65B        0.19831
     61B -> 65B        0.47723
     62B -> 65B       -0.41223
     63B -> 65B       -0.24298
 
 Excited State  13:  3.000-A      4.1892 eV  295.96 nm  f=0.0000  <S**2>=2.000
     57A -> 65A        0.11364
     60A -> 65A       -0.37160
     61A -> 65A       -0.33557
     61A -> 66A       -0.13467
     62A -> 65A        0.30156
     62A -> 66A        0.11454
     63A -> 65A        0.26071
     57B -> 65B       -0.11364
     60B -> 65B        0.37163
     61B -> 65B        0.33566
     61B -> 66B        0.13469
     62B -> 65B       -0.30158
     62B -> 66B       -0.11453
     63B -> 65B       -0.26075
 
 Excited State  14:  3.000-A      4.3466 eV  285.24 nm  f=0.0000  <S**2>=2.000
     57A -> 65A        0.15154
     59A -> 65A       -0.23796
     59A -> 67A       -0.18441
     59A -> 68A       -0.26613
     60A -> 65A       -0.10871
     61A -> 65A        0.10238
     61A -> 67A       -0.25491
     62A -> 67A        0.15911
     63A -> 66A        0.17224
     63A -> 67A       -0.28264
     63A -> 68A       -0.12547
     57B -> 65B       -0.15154
     59B -> 65B        0.23796
     59B -> 67B        0.18441
     59B -> 68B        0.26613
     60B -> 65B        0.10871
     61B -> 65B       -0.10239
     61B -> 67B        0.25493
     62B -> 67B       -0.15908
     63B -> 66B       -0.17224
     63B -> 67B        0.28264
     63B -> 68B        0.12547
 
 Excited State  15:  3.000-A      4.4287 eV  279.96 nm  f=0.0000  <S**2>=2.000
     59A -> 65A       -0.43701
     59A -> 66A       -0.12262
     59A -> 67A        0.22793
     61A -> 65A        0.12674
     61A -> 68A        0.15347
     63A -> 65A        0.25175
     63A -> 66A        0.18403
     63A -> 67A        0.16602
     63A -> 68A        0.16303
     59B -> 65B        0.43702
     59B -> 66B        0.12262
     59B -> 67B       -0.22793
     61B -> 65B       -0.12674
     61B -> 68B       -0.15348
     63B -> 65B       -0.25175
     63B -> 66B       -0.18403
     63B -> 67B       -0.16602
     63B -> 68B       -0.16303
 
 Excited State  16:  3.000-A      4.4956 eV  275.79 nm  f=0.0000  <S**2>=2.000
     59A -> 65A       -0.20118
     59A -> 67A       -0.26706
     59A -> 68A        0.15308
     61A -> 65A        0.12232
     61A -> 66A        0.17040
     61A -> 67A        0.22039
     61A -> 68A       -0.27787
     62A -> 66A       -0.12849
     62A -> 67A       -0.18123
     62A -> 68A        0.20879
     63A -> 66A       -0.12601
     63A -> 67A        0.10350
     63A -> 68A       -0.18775
     59B -> 65B        0.20118
     59B -> 67B        0.26706
     59B -> 68B       -0.15308
     61B -> 65B       -0.12233
     61B -> 66B       -0.17041
     61B -> 67B       -0.22041
     61B -> 68B        0.27789
     62B -> 66B        0.12847
     62B -> 67B        0.18121
     62B -> 68B       -0.20876
     63B -> 66B        0.12600
     63B -> 67B       -0.10350
     63B -> 68B        0.18776
 
 Excited State  17:  1.000-A      4.5508 eV  272.44 nm  f=0.0979  <S**2>=0.000
     59A -> 65A        0.53022
     60A -> 65A       -0.38416
     63A -> 65A       -0.14763
     63A -> 66A        0.13116
     59B -> 65B        0.53022
     60B -> 65B       -0.38415
     63B -> 65B       -0.14763
     63B -> 66B        0.13117
 
 Excited State  18:  1.000-A      4.6190 eV  268.42 nm  f=0.0733  <S**2>=0.000
     59A -> 65A        0.42016
     60A -> 65A        0.39521
     61A -> 66A       -0.12161
     63A -> 65A        0.12376
     63A -> 66A       -0.33911
     59B -> 65B        0.42016
     60B -> 65B        0.39521
     61B -> 66B       -0.12161
     63B -> 65B        0.12376
     63B -> 66B       -0.33911
 
 Excited State  19:  1.000-A      4.6790 eV  264.98 nm  f=0.1459  <S**2>=0.000
     60A -> 65A        0.24525
     61A -> 66A        0.14377
     62A -> 66A       -0.50031
     63A -> 66A        0.34042
     60B -> 65B        0.24525
     61B -> 66B        0.14380
     62B -> 66B       -0.50031
     63B -> 66B        0.34042
 
 Excited State  20:  3.000-A      4.7040 eV  263.57 nm  f=0.0000  <S**2>=2.000
     61A -> 66A        0.44137
     62A -> 66A        0.54205
     61B -> 66B       -0.44140
     62B -> 66B       -0.54213
 
 Excited State  21:  1.000-A      4.7162 eV  262.89 nm  f=0.0425  <S**2>=0.000
     60A -> 65A        0.15005
     61A -> 66A        0.56989
     62A -> 66A        0.35017
     60B -> 65B        0.15005
     61B -> 66B        0.56979
     62B -> 66B        0.35015
 
 Excited State  22:  3.000-A      4.7927 eV  258.69 nm  f=0.0000  <S**2>=2.000
     55A -> 65A       -0.11378
     56A -> 65A        0.10485
     57A -> 65A        0.36904
     58A -> 65A        0.21084
     59A -> 65A        0.10122
     60A -> 65A        0.13116
     60A -> 66A        0.33710
     60A -> 69A        0.13751
     63A -> 66A        0.15366
     63A -> 69A        0.12521
     55B -> 65B        0.11378
     56B -> 65B       -0.10485
     57B -> 65B       -0.36903
     58B -> 65B       -0.21086
     59B -> 65B       -0.10122
     60B -> 65B       -0.13117
     60B -> 66B       -0.33710
     60B -> 69B       -0.13751
     63B -> 66B       -0.15367
     63B -> 69B       -0.12521
 
 Excited State  23:  1.000-A      4.8407 eV  256.13 nm  f=0.3102  <S**2>=0.000
     59A -> 66A       -0.10269
     60A -> 65A       -0.18929
     60A -> 66A       -0.26641
     61A -> 66A        0.29348
     62A -> 66A       -0.30020
     63A -> 66A       -0.43230
     59B -> 66B       -0.10270
     60B -> 65B       -0.18928
     60B -> 66B       -0.26644
     61B -> 66B        0.29352
     62B -> 66B       -0.30018
     63B -> 66B       -0.43232
 
 Excited State  24:  3.000-A      4.8610 eV  255.06 nm  f=0.0000  <S**2>=2.000
     57A -> 65A       -0.25931
     58A -> 65A       -0.14806
     59A -> 66A        0.15417
     60A -> 65A       -0.13983
     60A -> 66A        0.43652
     63A -> 66A        0.32496
     57B -> 65B        0.25931
     58B -> 65B        0.14807
     59B -> 66B       -0.15416
     60B -> 65B        0.13984
     60B -> 66B       -0.43650
     63B -> 66B       -0.32493
 SavETr:  write IOETrn=   770 NScale= 10 NData=  16 NLR=1 NState=   24 LETran=     442.
 The state does not have a specific multiplicity.
 CISGrd: IGrad=2 NXY=2 DFT=T
 CISAX will form     1 AO SS matrices at one time.
 NMat=     1 NSing=     1 JSym2X= 0.
 GePol: Maximum number of non-zero 1st derivatives   =     212
 CoulSu:  requested number of processors reduced to:  27 ShMem   1 Linda.
 CoulSu:  requested number of processors reduced to:  28 ShMem   1 Linda.
 Leave Link  914 at Sat May 11 04:30:32 2019, MaxMem=   104857600 cpu:           41361.3 elap:            1293.0
 (Enter /opt/software/gaussian/g16.b01/l1002.exe)
 Minotr:  UHF open shell wavefunction.
          Computing CIS/TDA/TD derivatives.
          Using Z-Vector for PSCF gradient.
          Skipping F1 and S1 gradient terms here.
          IDoAtm=1111111111111111111111111111111111
 NEqPCM:  Using equilibrium solvation (IEInf=0, Eps=  35.6880, EpsInf=   1.8069)
          Frozen-core window.
          Direct CPHF calculation.
          Differentiating once with respect to electric field.
                with respect to dipole field.
          Differentiating once with respect to nuclear coordinates.
          Requested convergence is 1.0D-10 RMS, and 1.0D-09 maximum.
          NewPWx=F KeepS1=T KeepF1=T KeepIn=T MapXYZ=F SortEE=F KeepMc=T.
 Two-electron integral symmetry used by symmetrizing perturbed Fock matrices.
          MDV=     104857600 using IRadAn=       5.
          Solving linear equations separately, MaxMat=     384.
          There are     1 degrees of freedom in the 1st order CPHF.  IDoFFX=0 NUNeed=     1.
 FoFJK:  IHMeth= 1 ICntrl=       0 DoSepK=F KAlg= 0 I1Cent=           0 FoldK=F
 IRaf= 860000000 NMat=       1 IRICut=       1 DoRegI=T DoRafI=F ISym2E=-1 IDoP0=0 IntGTp=1.
 FoFCou: FMM=F IPFlag=           0 FMFlag=      100000 FMFlg1=           0
         NFxFlg=           0 DoJE=F BraDBF=F KetDBF=F FulRan=T
         wScrn=  0.000000 ICntrl=         0 IOpCl=  1 I1Cent=           0 NGrid=           0
         NMat0=    1 NMatS0=      1 NMatT0=    0 NMatD0=    1 NMtDS0=    0 NMtDT0=    0
 Petite list used in FoFCou.
 LinEq1:  Iter=  0 NonCon=     1 RMS=7.54D-03 Max=3.88D-01 NDo=     1
 AX will form     1 AO Fock derivatives at one time.
 LinEq1:  Iter=  1 NonCon=     1 RMS=3.59D-03 Max=1.11D-01 NDo=     1
 LinEq1:  Iter=  2 NonCon=     1 RMS=2.03D-03 Max=5.43D-02 NDo=     1
 LinEq1:  Iter=  3 NonCon=     1 RMS=1.54D-03 Max=6.53D-02 NDo=     1
 LinEq1:  Iter=  4 NonCon=     1 RMS=5.75D-04 Max=1.79D-02 NDo=     1
 LinEq1:  Iter=  5 NonCon=     1 RMS=3.55D-04 Max=8.72D-03 NDo=     1
 LinEq1:  Iter=  6 NonCon=     1 RMS=1.46D-04 Max=5.66D-03 NDo=     1
 LinEq1:  Iter=  7 NonCon=     1 RMS=1.06D-04 Max=4.75D-03 NDo=     1
 LinEq1:  Iter=  8 NonCon=     1 RMS=6.97D-05 Max=2.04D-03 NDo=     1
 LinEq1:  Iter=  9 NonCon=     1 RMS=5.19D-05 Max=1.88D-03 NDo=     1
 LinEq1:  Iter= 10 NonCon=     1 RMS=2.98D-05 Max=1.20D-03 NDo=     1
 LinEq1:  Iter= 11 NonCon=     1 RMS=1.42D-05 Max=5.35D-04 NDo=     1
 LinEq1:  Iter= 12 NonCon=     1 RMS=5.44D-06 Max=2.26D-04 NDo=     1
 LinEq1:  Iter= 13 NonCon=     1 RMS=4.78D-06 Max=2.29D-04 NDo=     1
 LinEq1:  Iter= 14 NonCon=     1 RMS=2.85D-06 Max=1.63D-04 NDo=     1
 LinEq1:  Iter= 15 NonCon=     1 RMS=1.92D-06 Max=8.80D-05 NDo=     1
 LinEq1:  Iter= 16 NonCon=     1 RMS=1.06D-06 Max=4.21D-05 NDo=     1
 LinEq1:  Iter= 17 NonCon=     1 RMS=6.17D-07 Max=2.25D-05 NDo=     1
 LinEq1:  Iter= 18 NonCon=     1 RMS=3.13D-07 Max=1.06D-05 NDo=     1
 LinEq1:  Iter= 19 NonCon=     1 RMS=1.95D-07 Max=6.75D-06 NDo=     1
 LinEq1:  Iter= 20 NonCon=     1 RMS=1.54D-07 Max=5.92D-06 NDo=     1
 LinEq1:  Iter= 21 NonCon=     1 RMS=9.59D-08 Max=3.34D-06 NDo=     1
 LinEq1:  Iter= 22 NonCon=     1 RMS=5.09D-08 Max=1.69D-06 NDo=     1
 LinEq1:  Iter= 23 NonCon=     1 RMS=2.63D-08 Max=9.45D-07 NDo=     1
 LinEq1:  Iter= 24 NonCon=     1 RMS=1.79D-08 Max=5.64D-07 NDo=     1
 LinEq1:  Iter= 25 NonCon=     1 RMS=9.48D-09 Max=2.48D-07 NDo=     1
 LinEq1:  Iter= 26 NonCon=     1 RMS=3.75D-09 Max=1.21D-07 NDo=     1
 LinEq1:  Iter= 27 NonCon=     1 RMS=1.81D-09 Max=5.13D-08 NDo=     1
 LinEq1:  Iter= 28 NonCon=     1 RMS=9.91D-10 Max=3.45D-08 NDo=     1
 LinEq1:  Iter= 29 NonCon=     1 RMS=4.68D-10 Max=1.45D-08 NDo=     1
 LinEq1:  Iter= 30 NonCon=     1 RMS=2.93D-10 Max=6.86D-09 NDo=     1
 LinEq1:  Iter= 31 NonCon=     1 RMS=1.19D-10 Max=5.42D-09 NDo=     1
 LinEq1:  Iter= 32 NonCon=     1 RMS=4.16D-11 Max=2.93D-09 NDo=     1
 LinEq1:  Iter= 33 NonCon=     0 RMS=1.95D-11 Max=9.72D-10 NDo=     1
 Linear equations converged to 1.000D-10 1.000D-09 after    33 iterations.
 End of Minotr F.D. properties file   721 does not exist.
 End of Minotr F.D. properties file   722 does not exist.
 End of Minotr F.D. properties file   788 does not exist.
 Leave Link 1002 at Sat May 11 04:32:05 2019, MaxMem=   104857600 cpu:            2941.5 elap:              92.6
 (Enter /opt/software/gaussian/g16.b01/l701.exe)
 ... and contract with generalized density number  6.
 Compute integral first derivatives.
 R6Disp: Adding Grimme-D3 dispersion energy 1st derivatives to the gradient.
 PrsmSu:  requested number of processors reduced to:  28 ShMem   1 Linda.
 D1PCM: PCM CHGder 1st derivatives, ID1Alg=3 FixD1E=F DoIter=F DoCFld=F I1PDM=6.
 CoulSu:  requested number of processors reduced to:  27 ShMem   1 Linda.
 CoulSu:  requested number of processors reduced to:  28 ShMem   1 Linda.
 CoulSu:  requested number of processors reduced to:  27 ShMem   1 Linda.
 CoulSu:  requested number of processors reduced to:  28 ShMem   1 Linda.
 Leave Link  701 at Sat May 11 04:32:07 2019, MaxMem=   104857600 cpu:              73.4 elap:               2.4
 (Enter /opt/software/gaussian/g16.b01/l702.exe)
 L702 exits ... SP integral derivatives will be done elsewhere.
 Leave Link  702 at Sat May 11 04:32:07 2019, MaxMem=   104857600 cpu:               0.6 elap:               0.0
 (Enter /opt/software/gaussian/g16.b01/l703.exe)
 Integral derivatives from FoFJK, PRISM(SPDF).
 Compute integral first derivatives, UseDBF=F ICtDFT=           0.
 Calling FoFJK, ICntrl=  10005127 FMM=F ISym2X=0 I1Cent= 0 IOpClX= 1 NMat=1 NMatS=1 NMatT=0.
 FoFJK:  IHMeth= 1 ICntrl=10005127 DoSepK=F KAlg= 0 I1Cent=           0 FoldK=F
 IRaf=         0 NMat=       1 IRICut=       1 DoRegI=T DoRafI=F ISym2E= 0 IDoP0=0 IntGTp=1.
 FoFCou: FMM=F IPFlag=           0 FMFlag=      100000 FMFlg1=         800
         NFxFlg=           0 DoJE=F BraDBF=F KetDBF=F FulRan=T
         wScrn=  0.000000 ICntrl=  10005127 IOpCl=  1 I1Cent=           0 NGrid=           0
         NMat0=    1 NMatS0=      1 NMatT0=    0 NMatD0=    1 NMtDS0=    0 NMtDT0=    0
 Symmetry not used in FoFCou.
