 Entering Gaussian System, Link 0=g16
 Initial command:
 /opt/software/gaussian/g16.b01/l1.exe "/localscratch/rzk.15153355.0/Gau-20305.inp" -scrdir="/localscratch/rzk.15153355.0/"
 Entering Link 1 = /opt/software/gaussian/g16.b01/l1.exe PID=     20306.
  
 Copyright (c) 1988-2017, Gaussian, Inc.  All Rights Reserved.
  
 This is part of the Gaussian(R) 16 program.  It is based on
 the Gaussian(R) 09 system (copyright 2009, Gaussian, Inc.),
 the Gaussian(R) 03 system (copyright 2003, Gaussian, Inc.),
 the Gaussian(R) 98 system (copyright 1998, Gaussian, Inc.),
 the Gaussian(R) 94 system (copyright 1995, Gaussian, Inc.),
 the Gaussian 92(TM) system (copyright 1992, Gaussian, Inc.),
 the Gaussian 90(TM) system (copyright 1990, Gaussian, Inc.),
 the Gaussian 88(TM) system (copyright 1988, Gaussian, Inc.),
 the Gaussian 86(TM) system (copyright 1986, Carnegie Mellon
 University), and the Gaussian 82(TM) system (copyright 1983,
 Carnegie Mellon University). Gaussian is a federally registered
 trademark of Gaussian, Inc.
  
 This software contains proprietary and confidential information,
 including trade secrets, belonging to Gaussian, Inc.
  
 This software is provided under written license and may be
 used, copied, transmitted, or stored only in accord with that
 written license.
  
 The following legend is applicable only to US Government
 contracts under FAR:
  
                    RESTRICTED RIGHTS LEGEND
  
 Use, reproduction and disclosure by the US Government is
 subject to restrictions as set forth in subparagraphs (a)
 and (c) of the Commercial Computer Software - Restricted
 Rights clause in FAR 52.227-19.
  
 Gaussian, Inc.
 340 Quinnipiac St., Bldg. 40, Wallingford CT 06492
  
  
 ---------------------------------------------------------------
 Warning -- This program may not be used in any manner that
 competes with the business of Gaussian, Inc. or will provide
 assistance to any competitor of Gaussian, Inc.  The licensee
 of this program is prohibited from giving any competitor of
 Gaussian, Inc. access to this program.  By using this program,
 the user acknowledges that Gaussian, Inc. is engaged in the
 business of creating and licensing software in the field of
 computational chemistry and represents and warrants to the
 licensee that it is not a competitor of Gaussian, Inc. and that
 it will not use this program in any manner prohibited above.
 ---------------------------------------------------------------
  

 Cite this work as:
 Gaussian 16, Revision B.01,
 M. J. Frisch, G. W. Trucks, H. B. Schlegel, G. E. Scuseria, 
 M. A. Robb, J. R. Cheeseman, G. Scalmani, V. Barone, 
 G. A. Petersson, H. Nakatsuji, X. Li, M. Caricato, A. V. Marenich, 
 J. Bloino, B. G. Janesko, R. Gomperts, B. Mennucci, H. P. Hratchian, 
 J. V. Ortiz, A. F. Izmaylov, J. L. Sonnenberg, D. Williams-Young, 
 F. Ding, F. Lipparini, F. Egidi, J. Goings, B. Peng, A. Petrone, 
 T. Henderson, D. Ranasinghe, V. G. Zakrzewski, J. Gao, N. Rega, 
 G. Zheng, W. Liang, M. Hada, M. Ehara, K. Toyota, R. Fukuda, 
 J. Hasegawa, M. Ishida, T. Nakajima, Y. Honda, O. Kitao, H. Nakai, 
 T. Vreven, K. Throssell, J. A. Montgomery, Jr., J. E. Peralta, 
 F. Ogliaro, M. J. Bearpark, J. J. Heyd, E. N. Brothers, K. N. Kudin, 
 V. N. Staroverov, T. A. Keith, R. Kobayashi, J. Normand, 
 K. Raghavachari, A. P. Rendell, J. C. Burant, S. S. Iyengar, 
 J. Tomasi, M. Cossi, J. M. Millam, M. Klene, C. Adamo, R. Cammi, 
 J. W. Ochterski, R. L. Martin, K. Morokuma, O. Farkas, 
 J. B. Foresman, and D. J. Fox, Gaussian, Inc., Wallingford CT, 2016.
 
 ******************************************
 Gaussian 16:  ES64L-G16RevB.01 20-Dec-2017
                24-May-2019 
 ******************************************
 %NProcShared=32
 Will use up to   32 processors via shared memory.
 %chk=AH-A_12.chk
 ----------------------------------------------------------------------
 #p td=(50-50,nstates=18) ub3lyp/6-31g(d,p) scrf=(iefpcm,solvent=aceton
 itrile) guess=(mix,always) empiricaldispersion=gd3
 ----------------------------------------------------------------------
 1/38=1,172=1/1;
 2/12=2,17=6,18=5,40=1/2;
 3/5=1,6=6,7=101,11=2,25=1,30=1,70=2201,72=2,74=-5,116=2,124=31/1,2,3,8;
 4/13=-1/1;
 5/5=2,38=5,53=2/2;
 8/6=1,10=2,108=18/1;
 9/41=18,42=1,48=2,70=2/14;
 6/7=2,8=2,9=2,10=2/1;
 99/5=1,9=1/99;
 Leave Link    1 at Fri May 24 20:06:59 2019, MaxMem=           0 cpu:               3.0 elap:               0.1
 (Enter /opt/software/gaussian/g16.b01/l101.exe)
 -------------------
 Title Card Required
 -------------------
 Symbolic Z-matrix:
 Charge =  0 Multiplicity = 2
 C                    -0.76314  -1.35997  -0.75766 
 C                     0.69414  -1.25574   0.75081 
 O                    -1.19726  -2.50467  -0.41768 
 C                     0.13232  -1.30866  -1.99668 
 H                    -0.52376  -1.41448  -2.86789 
 H                     0.70085  -0.3864   -2.1055 
 H                     0.82173  -2.15277  -1.97632 
 C                    -0.16805  -1.23445   1.99474 
 H                    -0.72818  -0.30835   2.11005 
 H                    -0.8766   -2.0631    1.96348 
 H                     0.48764  -1.3592    2.86424 
 C                    -1.61984  -0.1524   -0.47785 
 C                    -2.81432  -0.32866   0.24094 
 C                    -1.28446   1.13871  -0.91667 
 C                    -3.64498   0.75275   0.52222 
 H                    -3.07314  -1.32968   0.56715 
 C                    -2.11631   2.22318  -0.63532 
 H                    -0.36693   1.30885  -1.46664 
 C                    -3.29706   2.03555   0.08636 
 H                    -4.56536   0.59775   1.07771 
 H                    -1.8393    3.21546  -0.97874 
 H                    -3.94287   2.88076   0.30518 
 C                     1.59186  -0.13291   0.47368 
 C                     2.75926  -0.32623  -0.29895 
 C                     1.30926   1.16857   0.94243 
 C                     3.60707   0.73786  -0.5859 
 H                     2.98703  -1.32024  -0.6637 
 C                     2.15936   2.23033   0.64834 
 H                     0.41707   1.35436   1.52723 
 C                     3.31109   2.02247  -0.11671 
 H                     4.50159   0.56779  -1.17743 
 H                     1.92215   3.22379   1.01632 
 H                     3.97186   2.85311  -0.34498 
 O                     1.25588  -2.47671   0.49063 
 H                     0.50013  -3.0791    0.32366 
 
 ITRead=  0  0  0  0  0  0  0  0  0  0  0  0  0  0  0  0  0  0  0  0
 ITRead=  0  0  0  0  0  0  0  0  0  0  0  0  0  0  0
 MicOpt= -1 -1 -1 -1 -1 -1 -1 -1 -1 -1 -1 -1 -1 -1 -1 -1 -1 -1 -1 -1
 MicOpt= -1 -1 -1 -1 -1 -1 -1 -1 -1 -1 -1 -1 -1 -1 -1
 NAtoms=     35 NQM=       35 NQMF=       0 NMMI=      0 NMMIF=      0
                NMic=       0 NMicF=      0.
                    Isotopes and Nuclear Properties:
 (Nuclear quadrupole moments (NQMom) in fm**2, nuclear magnetic moments (NMagM)
  in nuclear magnetons)

  Atom         1           2           3           4           5           6           7           8           9          10
 IAtWgt=          12          12          16          12           1           1           1          12           1           1
 AtmWgt=  12.0000000  12.0000000  15.9949146  12.0000000   1.0078250   1.0078250   1.0078250  12.0000000   1.0078250   1.0078250
 NucSpn=           0           0           0           0           1           1           1           0           1           1
 AtZEff=  -0.0000000  -0.0000000  -0.0000000  -0.0000000  -0.0000000  -0.0000000  -0.0000000  -0.0000000  -0.0000000  -0.0000000
 NQMom=    0.0000000   0.0000000   0.0000000   0.0000000   0.0000000   0.0000000   0.0000000   0.0000000   0.0000000   0.0000000
 NMagM=    0.0000000   0.0000000   0.0000000   0.0000000   2.7928460   2.7928460   2.7928460   0.0000000   2.7928460   2.7928460
 AtZNuc=   6.0000000   6.0000000   8.0000000   6.0000000   1.0000000   1.0000000   1.0000000   6.0000000   1.0000000   1.0000000

  Atom        11          12          13          14          15          16          17          18          19          20
 IAtWgt=           1          12          12          12          12           1          12           1          12           1
 AtmWgt=   1.0078250  12.0000000  12.0000000  12.0000000  12.0000000   1.0078250  12.0000000   1.0078250  12.0000000   1.0078250
 NucSpn=           1           0           0           0           0           1           0           1           0           1
 AtZEff=  -0.0000000  -0.0000000  -0.0000000  -0.0000000  -0.0000000  -0.0000000  -0.0000000  -0.0000000  -0.0000000  -0.0000000
 NQMom=    0.0000000   0.0000000   0.0000000   0.0000000   0.0000000   0.0000000   0.0000000   0.0000000   0.0000000   0.0000000
 NMagM=    2.7928460   0.0000000   0.0000000   0.0000000   0.0000000   2.7928460   0.0000000   2.7928460   0.0000000   2.7928460
 AtZNuc=   1.0000000   6.0000000   6.0000000   6.0000000   6.0000000   1.0000000   6.0000000   1.0000000   6.0000000   1.0000000

  Atom        21          22          23          24          25          26          27          28          29          30
 IAtWgt=           1           1          12          12          12          12           1          12           1          12
 AtmWgt=   1.0078250   1.0078250  12.0000000  12.0000000  12.0000000  12.0000000   1.0078250  12.0000000   1.0078250  12.0000000
 NucSpn=           1           1           0           0           0           0           1           0           1           0
 AtZEff=  -0.0000000  -0.0000000  -0.0000000  -0.0000000  -0.0000000  -0.0000000  -0.0000000  -0.0000000  -0.0000000  -0.0000000
 NQMom=    0.0000000   0.0000000   0.0000000   0.0000000   0.0000000   0.0000000   0.0000000   0.0000000   0.0000000   0.0000000
 NMagM=    2.7928460   2.7928460   0.0000000   0.0000000   0.0000000   0.0000000   2.7928460   0.0000000   2.7928460   0.0000000
 AtZNuc=   1.0000000   1.0000000   6.0000000   6.0000000   6.0000000   6.0000000   1.0000000   6.0000000   1.0000000   6.0000000

  Atom        31          32          33          34          35
 IAtWgt=           1           1           1          16           1
 AtmWgt=   1.0078250   1.0078250   1.0078250  15.9949146   1.0078250
 NucSpn=           1           1           1           0           1
 AtZEff=  -0.0000000  -0.0000000  -0.0000000  -0.0000000  -0.0000000
 NQMom=    0.0000000   0.0000000   0.0000000   0.0000000   0.0000000
 NMagM=    2.7928460   2.7928460   2.7928460   0.0000000   2.7928460
 AtZNuc=   1.0000000   1.0000000   1.0000000   8.0000000   1.0000000
 Leave Link  101 at Fri May 24 20:06:59 2019, MaxMem=   104857600 cpu:               4.4 elap:               0.2
 (Enter /opt/software/gaussian/g16.b01/l202.exe)
                          Input orientation:                          
 ---------------------------------------------------------------------
 Center     Atomic      Atomic             Coordinates (Angstroms)
 Number     Number       Type             X           Y           Z
 ---------------------------------------------------------------------
      1          6           0       -0.763142   -1.359970   -0.757662
      2          6           0        0.694135   -1.255743    0.750808
      3          8           0       -1.197256   -2.504665   -0.417684
      4          6           0        0.132322   -1.308659   -1.996679
      5          1           0       -0.523756   -1.414484   -2.867892
      6          1           0        0.700853   -0.386401   -2.105503
      7          1           0        0.821729   -2.152765   -1.976320
      8          6           0       -0.168048   -1.234446    1.994739
      9          1           0       -0.728176   -0.308354    2.110051
     10          1           0       -0.876599   -2.063098    1.963481
     11          1           0        0.487639   -1.359196    2.864244
     12          6           0       -1.619840   -0.152403   -0.477849
     13          6           0       -2.814318   -0.328657    0.240937
     14          6           0       -1.284457    1.138713   -0.916667
     15          6           0       -3.644983    0.752754    0.522217
     16          1           0       -3.073141   -1.329676    0.567152
     17          6           0       -2.116310    2.223184   -0.635323
     18          1           0       -0.366928    1.308852   -1.466637
     19          6           0       -3.297059    2.035546    0.086361
     20          1           0       -4.565360    0.597750    1.077710
     21          1           0       -1.839302    3.215456   -0.978738
     22          1           0       -3.942869    2.880763    0.305179
     23          6           0        1.591862   -0.132905    0.473678
     24          6           0        2.759255   -0.326228   -0.298950
     25          6           0        1.309257    1.168573    0.942429
     26          6           0        3.607071    0.737857   -0.585901
     27          1           0        2.987034   -1.320242   -0.663704
     28          6           0        2.159356    2.230330    0.648337
     29          1           0        0.417074    1.354361    1.527229
     30          6           0        3.311085    2.022467   -0.116712
     31          1           0        4.501587    0.567788   -1.177427
     32          1           0        1.922148    3.223795    1.016320
     33          1           0        3.971859    2.853107   -0.344977
     34          8           0        1.255879   -2.476714    0.490634
     35          1           0        0.500126   -3.079100    0.323657
 ---------------------------------------------------------------------
                    Distance matrix (angstroms):
                    1          2          3          4          5
     1  C    0.000000
     2  C    2.100000   0.000000
     3  O    1.270577   2.550008   0.000000
     4  C    1.529592   2.804838   2.385672   0.000000
     5  H    2.124464   3.821446   2.765071   1.095741   0.000000
     6  H    2.215354   2.985685   3.307354   1.088866   1.771400
     7  H    2.150690   2.873701   2.574778   1.090051   1.774905
     8  C    2.818795   1.513664   2.914191   4.003392   4.878947
     9  H    3.054652   2.183588   3.381311   4.313502   5.103453
    10  H    2.812807   2.142336   2.442898   4.155715   4.887470
    11  H    3.831796   2.126019   3.862903   4.874154   5.820941
    12  C    1.506800   2.842787   2.390676   2.591109   2.916600
    13  C    2.503623   3.664519   2.789925   3.827534   4.011298
    14  C    2.557434   3.525439   3.678422   3.027097   3.302236
    15  C    3.795616   4.786884   4.181574   4.986210   5.092329
    16  H    2.663108   3.772475   2.422694   4.104712   4.278561
    17  C    3.832104   4.682189   4.821264   4.402675   4.555570
    18  H    2.789667   3.552473   4.041368   2.716902   3.066703
    19  C    4.320028   5.215717   5.027599   5.223353   5.321797
    20  H    4.653828   5.586107   4.817189   5.929121   5.995951
    21  H    4.705477   5.422292   5.783320   5.038960   5.170678
    22  H    5.405933   6.229853   6.088001   6.281480   6.340967
    23  C    2.927103   1.464063   3.768150   3.100858   4.157448
    24  C    3.699503   2.496139   4.518148   3.278450   4.308355
    25  C    3.684926   2.508466   4.650289   4.019976   4.954863
    26  C    4.850685   3.774444   5.798604   4.272283   5.186886
    27  H    3.751563   2.694882   4.355648   3.150609   4.146441
    28  C    4.838190   3.782866   5.901137   4.861010   5.731285
    29  H    3.739148   2.737195   4.613115   4.426137   5.279086
    30  C    5.333950   4.283419   6.396143   4.973451   5.838461
    31  H    5.622262   4.641126   6.518741   4.825215   5.660490
    32  H    5.600776   4.652394   6.678496   5.729291   6.525579
    33  H    6.351422   5.369066   7.445183   5.898344   6.692383
    34  O    2.623320   1.368947   2.616046   2.968747   3.946534
    35  H    2.391758   1.882745   1.939244   2.941717   3.742361
                    6          7          8          9         10
     6  H    0.000000
     7  H    1.775202   0.000000
     8  C    4.276231   4.194315   0.000000
     9  H    4.451866   4.743678   1.088433   0.000000
    10  H    4.675072   4.291199   1.090727   1.767099   0.000000
    11  H    5.068548   4.916546   1.096142   1.775185   1.779887
    12  C    2.844227   3.494012   3.064671   2.741644   3.187986
    13  C    4.226765   4.632973   3.301366   2.801069   3.119327
    14  C    2.771418   4.048791   3.918487   3.400658   4.325875
    15  C    5.204698   5.885256   4.266891   3.486392   4.203595
    16  H    4.719733   4.724059   3.238308   2.987055   2.704152
    17  C    4.111906   5.438683   4.761109   3.984053   5.163611
    18  H    2.102900   3.695331   4.299889   3.941897   4.836892
    19  C    5.162693   6.225835   4.911768   4.023475   5.116746
    20  H    6.231725   6.775925   4.851210   4.075627   4.633752
    21  H    4.549215   6.074047   5.606807   4.815855   6.119361
    22  H    6.168460   7.296783   5.834281   4.874657   6.049276
    23  C    2.740498   3.267328   2.573772   2.844482   3.469648
    24  C    2.739393   3.147033   3.828181   4.238606   4.621120
    25  C    3.475340   4.448378   3.010695   2.774128   4.032891
    26  C    3.466879   4.248187   4.980081   5.211246   5.869241
    27  H    2.859627   2.665446   4.126648   4.745568   4.730919
    28  C    4.069170   5.281060   4.385690   4.113316   5.420346
    29  H    4.038258   4.973785   2.694968   2.101404   3.680072
    30  C    4.070780   5.204575   5.212492   5.167865   6.209327
    31  H    4.027081   4.645535   5.925890   6.239035   6.761046
    32  H    4.926546   6.250937   5.020173   4.549345   6.056512
    33  H    4.928828   6.135418   6.270661   6.173518   7.280494
    34  O    3.378963   2.525726   2.415187   3.355707   2.624465
    35  H    3.632043   2.500284   2.577153   3.518091   2.369948
                   11         12         13         14         15
    11  H    0.000000
    12  C    4.131271   0.000000
    13  C    4.341275   1.405168   0.000000
    14  C    4.865713   1.404288   2.415305   0.000000
    15  C    5.198460   2.433238   1.392326   2.791314   0.000000
    16  H    4.237530   2.142448   1.084179   3.390288   2.159985
    17  C    5.644552   2.432014   2.786923   1.395425   2.416382
    18  H    5.158032   2.163968   3.403963   1.083178   3.874330
    19  C    5.793518   2.813986   2.417931   2.420938   1.398777
    20  H    5.705624   3.414466   2.150481   3.877435   1.086137
    21  H    6.411755   3.411968   3.872854   2.150481   3.402683
    22  H    6.644958   3.899961   3.402665   3.405114   2.159691
    23  C    2.904807   3.349748   4.416663   3.438500   5.311430
    24  C    4.029027   4.386193   5.599661   4.345024   6.546204
    25  C    3.279946   3.513086   4.442709   3.191314   4.989386
    26  C    5.102155   5.303285   6.561658   4.919059   7.336241
    27  H    4.323761   4.756225   5.954603   4.935188   7.048927
    28  C    4.537574   4.607389   5.608192   3.937095   5.990784
    29  H    3.025885   3.231052   3.863805   2.985689   4.227563
    30  C    5.319172   5.401343   6.570864   4.747626   7.099809
    31  H    6.013331   6.203221   7.505853   5.819988   8.324038
    32  H    5.145527   5.116340   5.971201   4.285595   6.110902
    33  H    6.338958   6.349633   7.517920   5.558312   7.948572
    34  O    2.733690   3.822321   4.609013   4.637361   5.869319
    35  H    3.068030   3.701651   4.307821   4.744796   5.648403
                   16         17         18         19         20
    16  H    0.000000
    17  C    3.870954   0.000000
    18  H    4.292053   2.141827   0.000000
    19  C    3.406761   1.396497   3.394931   0.000000
    20  H    2.490453   3.402112   4.960464   2.158383   0.000000
    21  H    4.956850   1.085942   2.457859   2.156775   4.302645
    22  H    4.307302   2.157144   4.289241   1.085976   2.489266
    23  C    4.816975   4.531178   3.111325   5.362252   6.229775
    24  C    5.981127   5.512149   3.716181   6.511941   7.509921
    25  C    5.058408   3.916122   2.938175   4.764729   5.903835
    26  C    7.087274   5.913183   4.110280   7.057120   8.341215
    27  H    6.183916   6.212954   4.336577   7.163361   7.984352
    28  C    6.329238   4.464208   3.421162   5.488736   6.933360
    29  H    4.506374   3.442313   3.095152   4.041645   5.059563
    30  C    7.243126   5.455810   3.982377   6.611276   8.092889
    31  H    8.001277   6.843301   4.933078   8.035568   9.343237
    32  H    6.774124   4.476415   3.882261   5.432944   6.999117
    33  H    8.243766   6.127553   4.740033   7.327457   8.943980
    34  O    4.479059   5.893087   4.560145   6.422863   6.609373
    35  H    3.985977   5.989958   4.817786   6.374522   6.304520
                   21         22         23         24         25
    21  H    0.000000
    22  H    2.487058   0.000000
    23  C    5.009383   6.304271   0.000000
    24  C    5.844002   7.454410   1.413200   0.000000
    25  C    4.218298   5.560801   1.411892   2.424448   0.000000
    26  C    5.996315   7.898586   2.437622   1.390471   2.793073
    27  H    6.630635   8.161540   2.156365   1.083048   3.404233
    28  C    4.427992   6.146379   2.436685   2.791634   1.391577
    29  H    3.851594   4.778327   2.168423   3.412495   1.082820
    30  C    5.356566   7.316728   2.819560   2.419524   2.420378
    31  H    6.874336   8.880136   3.418131   2.146324   3.878879
    32  H    4.257797   5.917923   3.416282   3.877286   2.145934
    33  H    5.856837   7.941435   3.905234   3.403042   3.403604
    34  O    6.643794   7.467525   2.367829   2.740104   3.673566
    35  H    6.840365   7.433742   3.145546   3.615191   4.368100
                   26         27         28         29         30
    26  C    0.000000
    27  H    2.150877   0.000000
    28  C    2.417995   3.874670   0.000000
    29  H    3.875755   4.307944   2.139000   0.000000
    30  C    1.399274   3.402633   1.398208   3.394732   0.000000
    31  H    1.085811   2.474356   3.403455   4.961563   2.158356
    32  H    3.403816   4.960316   1.085657   2.453785   2.157799
    33  H    2.159953   4.299803   2.158632   4.288110   1.085675
    34  O    4.125591   2.380509   4.795561   4.056508   4.983510
    35  H    5.004954   3.202058   5.572119   4.594677   5.841353
                   31         32         33         34         35
    31  H    0.000000
    32  H    4.303534   0.000000
    33  H    2.489230   2.488344   0.000000
    34  O    4.752477   5.763338   6.040015   0.000000
    35  H    5.618250   6.498339   6.905873   0.980772   0.000000
 Stoichiometry    C16H17O2(2)
 Framework group  C1[X(C16H17O2)]
 Deg. of freedom    99
 Full point group                 C1      NOp   1
 Largest Abelian subgroup         C1      NOp   1
 Largest concise Abelian subgroup C1      NOp   1
                         Standard orientation:                         
 ---------------------------------------------------------------------
 Center     Atomic      Atomic             Coordinates (Angstroms)
 Number     Number       Type             X           Y           Z
 ---------------------------------------------------------------------
      1          6           0       -0.763142   -1.359970   -0.757662
      2          6           0        0.694135   -1.255743    0.750808
      3          8           0       -1.197256   -2.504665   -0.417684
      4          6           0        0.132322   -1.308659   -1.996679
      5          1           0       -0.523756   -1.414484   -2.867892
      6          1           0        0.700853   -0.386401   -2.105503
      7          1           0        0.821729   -2.152765   -1.976320
      8          6           0       -0.168048   -1.234446    1.994739
      9          1           0       -0.728176   -0.308354    2.110051
     10          1           0       -0.876599   -2.063098    1.963481
     11          1           0        0.487639   -1.359196    2.864244
     12          6           0       -1.619840   -0.152403   -0.477849
     13          6           0       -2.814318   -0.328657    0.240937
     14          6           0       -1.284457    1.138713   -0.916667
     15          6           0       -3.644983    0.752754    0.522217
     16          1           0       -3.073141   -1.329676    0.567152
     17          6           0       -2.116310    2.223184   -0.635323
     18          1           0       -0.366928    1.308852   -1.466637
     19          6           0       -3.297059    2.035546    0.086361
     20          1           0       -4.565360    0.597750    1.077710
     21          1           0       -1.839302    3.215456   -0.978738
     22          1           0       -3.942869    2.880763    0.305179
     23          6           0        1.591862   -0.132905    0.473678
     24          6           0        2.759255   -0.326228   -0.298950
     25          6           0        1.309257    1.168573    0.942429
     26          6           0        3.607071    0.737857   -0.585901
     27          1           0        2.987034   -1.320242   -0.663704
     28          6           0        2.159356    2.230330    0.648337
     29          1           0        0.417074    1.354361    1.527229
     30          6           0        3.311085    2.022467   -0.116712
     31          1           0        4.501587    0.567788   -1.177427
     32          1           0        1.922148    3.223795    1.016320
     33          1           0        3.971859    2.853107   -0.344977
     34          8           0        1.255879   -2.476714    0.490634
     35          1           0        0.500126   -3.079100    0.323657
 ---------------------------------------------------------------------
 Rotational constants (GHZ):           0.6185235           0.3758895           0.2884117
 Leave Link  202 at Fri May 24 20:06:59 2019, MaxMem=   104857600 cpu:               1.4 elap:               0.1
 (Enter /opt/software/gaussian/g16.b01/l301.exe)
 Standard basis: 6-31G(d,p) (6D, 7F)
 Ernie: Thresh=  0.10000D-02 Tol=  0.10000D-05 Strict=F.
 There are   355 symmetry adapted cartesian basis functions of A   symmetry.
 There are   355 symmetry adapted basis functions of A   symmetry.
   355 basis functions,   623 primitive gaussians,   355 cartesian basis functions
    65 alpha electrons       64 beta electrons
       nuclear repulsion energy      1322.6418018941 Hartrees.
 IExCor=  402 DFT=T Ex+Corr=B3LYP ExCW=0 ScaHFX=  0.200000
 ScaDFX=  0.800000  0.720000  1.000000  0.810000 ScalE2=  1.000000  1.000000
 IRadAn=      5 IRanWt=     -1 IRanGd=            0 ICorTp=0 IEmpDi=131
 NAtoms=   35 NActive=   35 NUniq=   35 SFac= 1.00D+00 NAtFMM=   60 NAOKFM=F Big=F
 Integral buffers will be    131072 words long.
 Raffenetti 2 integral format.
 Two-electron integral symmetry is turned on.
 R6Disp:  Grimme-D3 Dispersion energy=       -0.0422962178 Hartrees.
 Nuclear repulsion after empirical dispersion term =     1322.5995056763 Hartrees.
 ------------------------------------------------------------------------------
 Polarizable Continuum Model (PCM)
 =================================
 Model                : PCM.
 Atomic radii         : UFF (Universal Force Field).
 Polarization charges : Total charges.
 Charge compensation  : None.
 Solution method      : On-the-fly selection.
 Cavity type          : Scaled VdW (van der Waals Surface) (Alpha=1.100).
 Cavity algorithm     : GePol (No added spheres)
                        Default sphere list used, NSphG=   35.
                        Lebedev-Laikov grids with approx.  5.0 points / Ang**2.
                        Smoothing algorithm: York/Karplus (Gamma=1.0000).
                        Polarization charges: spherical gaussians, with
                                              point-specific exponents (IZeta= 3).
                        Self-potential: point-specific (ISelfS= 7).
                        Self-field    : sphere-specific E.n sum rule (ISelfD= 2).
 Solvent              : Acetonitrile, Eps=  35.688000 Eps(inf)=   1.806874
 ------------------------------------------------------------------------------
 GePol: Number of generator spheres                  =      35
 GePol: Total number of spheres                      =      35
 GePol: Number of exposed spheres                    =      35 (100.00%)
 GePol: Number of points                             =    2382
 GePol: Average weight of points                     =       0.13
 GePol: Minimum weight of points                     =   0.10D-10
 GePol: Maximum weight of points                     =    0.20577
 GePol: Number of points with low weight             =     157
 GePol: Fraction of low-weight points (<1% of avg)   =       6.59%
 GePol: Cavity surface area                          =    307.175 Ang**2
 GePol: Cavity volume                                =    350.638 Ang**3
 Leave Link  301 at Fri May 24 20:06:59 2019, MaxMem=   104857600 cpu:               2.5 elap:               0.1
 (Enter /opt/software/gaussian/g16.b01/l302.exe)
 NPDir=0 NMtPBC=     1 NCelOv=     1 NCel=       1 NClECP=     1 NCelD=      1
         NCelK=      1 NCelE2=     1 NClLst=     1 CellRange=     0.0.
 One-electron integrals computed using PRISM.
 One-electron integral symmetry used in STVInt
 PrsmSu:  requested number of processors reduced to:  28 ShMem   1 Linda.
 NBasis=   355 RedAO= T EigKep=  4.49D-04  NBF=   355
 NBsUse=   355 1.00D-06 EigRej= -1.00D+00 NBFU=   355
 Precomputing XC quadrature grid using
 IXCGrd= 4 IRadAn=           5 IRanWt=          -1 IRanGd=           0 AccXCQ= 0.00D+00.
 Generated NRdTot=       0 NPtTot=           0 NUsed=           0 NTot=          32
 NSgBfM=   354   354   354   354   354 MxSgAt=    35 MxSgA2=    35.
 Leave Link  302 at Fri May 24 20:07:00 2019, MaxMem=   104857600 cpu:              13.0 elap:               0.4
 (Enter /opt/software/gaussian/g16.b01/l303.exe)
 DipDrv:  MaxL=1.
 Leave Link  303 at Fri May 24 20:07:00 2019, MaxMem=   104857600 cpu:               2.8 elap:               0.1
 (Enter /opt/software/gaussian/g16.b01/l308.exe)
 Leave Link  308 at Fri May 24 20:07:00 2019, MaxMem=   104857600 cpu:               2.7 elap:               0.1
 (Enter /opt/software/gaussian/g16.b01/l401.exe)
 ExpMin= 1.61D-01 ExpMax= 5.48D+03 ExpMxC= 8.25D+02 IAcc=3 IRadAn=         5 AccDes= 0.00D+00
 Harris functional with IExCor=  402 and IRadAn=       5 diagonalized for initial guess.
 HarFok:  IExCor=  402 AccDes= 0.00D+00 IRadAn=         5 IDoV= 1 UseB2=F ITyADJ=14
 ICtDFT=  3500011 ScaDFX=  1.000000  1.000000  1.000000  1.000000
 FoFCou: FMM=F IPFlag=           0 FMFlag=      100000 FMFlg1=           0
         NFxFlg=           0 DoJE=T BraDBF=F KetDBF=T FulRan=T
         wScrn=  0.000000 ICntrl=       500 IOpCl=  0 I1Cent=   200000004 NGrid=           0
         NMat0=    1 NMatS0=      1 NMatT0=    0 NMatD0=    1 NMtDS0=    0 NMtDT0=    0
 Petite list used in FoFCou.
 Harris En= -770.451437579490    
 JPrj=0 DoOrth=F DoCkMO=T.
 Mixing orbitals, IMix= 1 IMixAn=  0 NRI=1 NE=   65 Coef=  7.07106781D-01  7.07106781D-01
 Mixing orbitals, IMix= 1 IMixAn=  0 NRI=1 NE=   64 Coef= -7.07106781D-01  7.07106781D-01
 Initial guess <Sx>= 0.0000 <Sy>= 0.0000 <Sz>= 0.5000 <S**2>= 1.0000 S= 0.6180
 Leave Link  401 at Fri May 24 20:07:01 2019, MaxMem=   104857600 cpu:              26.9 elap:               0.9
 (Enter /opt/software/gaussian/g16.b01/l502.exe)
 Integral symmetry usage will be decided dynamically.
 UHF open shell SCF:
 Using DIIS extrapolation, IDIIS=  1040.
 NGot=   104857600 LenX=   104590331 LenY=   104463865
 Requested convergence on RMS density matrix=1.00D-08 within 128 cycles.
 Requested convergence on MAX density matrix=1.00D-06.
 Requested convergence on             energy=1.00D-06.
 No special actions if energy rises.
 Fock matrices will be formed incrementally for  20 cycles.

 Cycle   1  Pass 1  IDiag  1:
 FoFJK:  IHMeth= 1 ICntrl=       0 DoSepK=F KAlg= 0 I1Cent=           0 FoldK=F
 IRaf= 840000000 NMat=       1 IRICut=       1 DoRegI=T DoRafI=F ISym2E= 0 IDoP0=0 IntGTp=1.
 FoFCou: FMM=F IPFlag=           0 FMFlag=      100000 FMFlg1=           0
         NFxFlg=           0 DoJE=F BraDBF=F KetDBF=F FulRan=T
         wScrn=  0.000000 ICntrl=         0 IOpCl=  1 I1Cent=           0 NGrid=           0
         NMat0=    1 NMatS0=      1 NMatT0=    0 NMatD0=    1 NMtDS0=    0 NMtDT0=    0
 Symmetry not used in FoFCou.
 Inv3:  Mode=1 IEnd=    17021772.
 Iteration    1 A*A^-1 deviation from unit magnitude is 2.89D-15 for   1884.
 Iteration    1 A*A^-1 deviation from orthogonality  is 1.98D-15 for   2042   1355.
 Iteration    1 A^-1*A deviation from unit magnitude is 3.11D-15 for    586.
 Iteration    1 A^-1*A deviation from orthogonality  is 3.80D-14 for   1945   1915.
 E= -769.868267519525    
 DIIS: error= 2.08D-02 at cycle   1 NSaved=   1.
 NSaved= 1 IEnMin= 1 EnMin= -769.868267519525     IErMin= 1 ErrMin= 2.08D-02
 ErrMax= 2.08D-02  0.00D+00 EMaxC= 1.00D-01 BMatC= 1.77D+00 BMatP= 1.77D+00
 IDIUse=3 WtCom= 7.92D-01 WtEn= 2.08D-01
 Coeff-Com:  0.100D+01
 Coeff-En:   0.100D+01
 Coeff:      0.100D+01
 Gap=     0.025 Goal=   None    Shift=    0.000
 Gap=     0.039 Goal=   None    Shift=    0.000
 GapD=    0.025 DampG=0.250 DampE=0.500 DampFc=0.2500 IDamp=-1.
 Damping current iteration by 2.50D-01
 RMSDP=4.24D-03 MaxDP=1.29D-01              OVMax= 6.05D-01

 Cycle   2  Pass 1  IDiag  1:
 RMSU=  1.04D-03    CP:  9.87D-01
 E= -770.043790284639     Delta-E=       -0.175522765114 Rises=F Damp=T
 DIIS: error= 1.30D-02 at cycle   2 NSaved=   2.
 NSaved= 2 IEnMin= 2 EnMin= -770.043790284639     IErMin= 2 ErrMin= 1.30D-02
 ErrMax= 1.30D-02  0.00D+00 EMaxC= 1.00D-01 BMatC= 4.82D-01 BMatP= 1.77D+00
 IDIUse=3 WtCom= 8.70D-01 WtEn= 1.30D-01
 Coeff-Com: -0.882D+00 0.188D+01
 Coeff-En:   0.000D+00 0.100D+01
 Coeff:     -0.767D+00 0.177D+01
 Gap=     0.146 Goal=   None    Shift=    0.000
 Gap=     0.110 Goal=   None    Shift=    0.000
 RMSDP=2.09D-03 MaxDP=5.00D-02 DE=-1.76D-01 OVMax= 2.02D-01

 Cycle   3  Pass 1  IDiag  1:
 RMSU=  1.44D-03    CP:  9.58D-01  2.38D+00
 E= -770.372711087219     Delta-E=       -0.328920802580 Rises=F Damp=F
 DIIS: error= 6.73D-03 at cycle   3 NSaved=   3.
 NSaved= 3 IEnMin= 3 EnMin= -770.372711087219     IErMin= 3 ErrMin= 6.73D-03
 ErrMax= 6.73D-03  0.00D+00 EMaxC= 1.00D-01 BMatC= 1.13D-01 BMatP= 4.82D-01
 IDIUse=3 WtCom= 9.33D-01 WtEn= 6.73D-02
 Coeff-Com: -0.462D+00 0.950D+00 0.512D+00
 Coeff-En:   0.000D+00 0.000D+00 0.100D+01
 Coeff:     -0.431D+00 0.886D+00 0.545D+00
 Gap=     0.148 Goal=   None    Shift=    0.000
 Gap=     0.103 Goal=   None    Shift=    0.000
 RMSDP=8.66D-04 MaxDP=4.78D-02 DE=-3.29D-01 OVMax= 1.09D-01

 Cycle   4  Pass 1  IDiag  1:
 RMSU=  7.88D-04    CP:  9.61D-01  2.45D+00  7.59D-01
 E= -770.395113857544     Delta-E=       -0.022402770325 Rises=F Damp=F
 DIIS: error= 3.84D-03 at cycle   4 NSaved=   4.
 NSaved= 4 IEnMin= 4 EnMin= -770.395113857544     IErMin= 4 ErrMin= 3.84D-03
 ErrMax= 3.84D-03  0.00D+00 EMaxC= 1.00D-01 BMatC= 3.37D-02 BMatP= 1.13D-01
 IDIUse=3 WtCom= 9.62D-01 WtEn= 3.84D-02
 Coeff-Com: -0.659D-01 0.142D+00 0.345D+00 0.579D+00
 Coeff-En:   0.000D+00 0.000D+00 0.226D+00 0.774D+00
 Coeff:     -0.634D-01 0.137D+00 0.340D+00 0.586D+00
 Gap=     0.152 Goal=   None    Shift=    0.000
 Gap=     0.120 Goal=   None    Shift=    0.000
 RMSDP=3.81D-04 MaxDP=1.60D-02 DE=-2.24D-02 OVMax= 5.59D-02

 Cycle   5  Pass 1  IDiag  1:
 RMSU=  2.66D-04    CP:  9.59D-01  2.45D+00  8.91D-01  7.54D-01
 E= -770.404112032278     Delta-E=       -0.008998174735 Rises=F Damp=F
 DIIS: error= 1.22D-03 at cycle   5 NSaved=   5.
 NSaved= 5 IEnMin= 5 EnMin= -770.404112032278     IErMin= 5 ErrMin= 1.22D-03
 ErrMax= 1.22D-03  0.00D+00 EMaxC= 1.00D-01 BMatC= 3.54D-03 BMatP= 3.37D-02
 IDIUse=3 WtCom= 9.88D-01 WtEn= 1.22D-02
 Coeff-Com: -0.272D-02 0.716D-02 0.137D+00 0.330D+00 0.529D+00
 Coeff-En:   0.000D+00 0.000D+00 0.000D+00 0.000D+00 0.100D+01
 Coeff:     -0.268D-02 0.708D-02 0.135D+00 0.326D+00 0.535D+00
 Gap=     0.155 Goal=   None    Shift=    0.000
 Gap=     0.121 Goal=   None    Shift=    0.000
 RMSDP=1.36D-04 MaxDP=1.20D-02 DE=-9.00D-03 OVMax= 1.97D-02

 Cycle   6  Pass 1  IDiag  1:
 RMSU=  1.18D-04    CP:  9.58D-01  2.47D+00  9.07D-01  8.23D-01  9.11D-01
 E= -770.405160552495     Delta-E=       -0.001048520216 Rises=F Damp=F
 DIIS: error= 5.25D-04 at cycle   6 NSaved=   6.
 NSaved= 6 IEnMin= 6 EnMin= -770.405160552495     IErMin= 6 ErrMin= 5.25D-04
 ErrMax= 5.25D-04  0.00D+00 EMaxC= 1.00D-01 BMatC= 6.92D-04 BMatP= 3.54D-03
 IDIUse=3 WtCom= 9.95D-01 WtEn= 5.25D-03
 Coeff-Com:  0.109D-01-0.223D-01-0.199D-01 0.187D-01 0.304D+00 0.708D+00
 Coeff-En:   0.000D+00 0.000D+00 0.000D+00 0.000D+00 0.000D+00 0.100D+01
 Coeff:      0.109D-01-0.222D-01-0.198D-01 0.186D-01 0.303D+00 0.710D+00
 Gap=     0.158 Goal=   None    Shift=    0.000
 Gap=     0.124 Goal=   None    Shift=    0.000
 RMSDP=8.40D-05 MaxDP=5.12D-03 DE=-1.05D-03 OVMax= 1.94D-02

 Cycle   7  Pass 1  IDiag  1:
 RMSU=  4.76D-05    CP:  9.58D-01  2.48D+00  9.12D-01  8.71D-01  1.12D+00
                    CP:  1.01D+00
 E= -770.405493927103     Delta-E=       -0.000333374609 Rises=F Damp=F
 DIIS: error= 2.19D-04 at cycle   7 NSaved=   7.
 NSaved= 7 IEnMin= 7 EnMin= -770.405493927103     IErMin= 7 ErrMin= 2.19D-04
 ErrMax= 2.19D-04  0.00D+00 EMaxC= 1.00D-01 BMatC= 1.12D-04 BMatP= 6.92D-04
 IDIUse=3 WtCom= 9.98D-01 WtEn= 2.19D-03
 Coeff-Com:  0.281D-02-0.611D-02-0.349D-01-0.605D-01 0.287D-01 0.295D+00
 Coeff-Com:  0.775D+00
 Coeff-En:   0.000D+00 0.000D+00 0.000D+00 0.000D+00 0.000D+00 0.000D+00
 Coeff-En:   0.100D+01
 Coeff:      0.280D-02-0.610D-02-0.348D-01-0.604D-01 0.286D-01 0.294D+00
 Coeff:      0.776D+00
 Gap=     0.158 Goal=   None    Shift=    0.000
 Gap=     0.124 Goal=   None    Shift=    0.000
 RMSDP=4.45D-05 MaxDP=4.57D-03 DE=-3.33D-04 OVMax= 1.16D-02

 Cycle   8  Pass 1  IDiag  1:
 RMSU=  2.48D-05    CP:  9.58D-01  2.48D+00  9.18D-01  8.85D-01  1.22D+00
                    CP:  1.20D+00  1.15D+00
 E= -770.405570286375     Delta-E=       -0.000076359272 Rises=F Damp=F
 DIIS: error= 1.55D-04 at cycle   8 NSaved=   8.
 NSaved= 8 IEnMin= 8 EnMin= -770.405570286375     IErMin= 8 ErrMin= 1.55D-04
 ErrMax= 1.55D-04  0.00D+00 EMaxC= 1.00D-01 BMatC= 6.28D-05 BMatP= 1.12D-04
 IDIUse=3 WtCom= 9.98D-01 WtEn= 1.55D-03
 Coeff-Com: -0.178D-02 0.371D-02-0.140D-01-0.402D-01-0.553D-01-0.263D-01
 Coeff-Com:  0.506D+00 0.628D+00
 Coeff-En:   0.000D+00 0.000D+00 0.000D+00 0.000D+00 0.000D+00 0.000D+00
 Coeff-En:   0.000D+00 0.100D+01
 Coeff:     -0.177D-02 0.370D-02-0.140D-01-0.402D-01-0.552D-01-0.262D-01
 Coeff:      0.505D+00 0.629D+00
 Gap=     0.158 Goal=   None    Shift=    0.000
 Gap=     0.124 Goal=   None    Shift=    0.000
 RMSDP=2.31D-05 MaxDP=1.59D-03 DE=-7.64D-05 OVMax= 6.33D-03

 Cycle   9  Pass 1  IDiag  1:
 RMSU=  1.29D-05    CP:  9.58D-01  2.48D+00  9.19D-01  8.92D-01  1.25D+00
                    CP:  1.26D+00  1.43D+00  1.01D+00
 E= -770.405599042263     Delta-E=       -0.000028755888 Rises=F Damp=F
 DIIS: error= 6.60D-05 at cycle   9 NSaved=   9.
 NSaved= 9 IEnMin= 9 EnMin= -770.405599042263     IErMin= 9 ErrMin= 6.60D-05
 ErrMax= 6.60D-05  0.00D+00 EMaxC= 1.00D-01 BMatC= 7.15D-06 BMatP= 6.28D-05
 IDIUse=1 WtCom= 1.00D+00 WtEn= 0.00D+00
 Coeff-Com: -0.612D-03 0.157D-02 0.295D-02-0.134D-02-0.150D-01-0.753D-01
 Coeff-Com:  0.389D-01 0.191D+00 0.858D+00
 Coeff:     -0.612D-03 0.157D-02 0.295D-02-0.134D-02-0.150D-01-0.753D-01
 Coeff:      0.389D-01 0.191D+00 0.858D+00
 Gap=     0.158 Goal=   None    Shift=    0.000
 Gap=     0.124 Goal=   None    Shift=    0.000
 RMSDP=1.19D-05 MaxDP=1.05D-03 DE=-2.88D-05 OVMax= 3.10D-03

 Cycle  10  Pass 1  IDiag  1:
 RMSU=  6.23D-06    CP:  9.58D-01  2.48D+00  9.20D-01  8.92D-01  1.27D+00
                    CP:  1.29D+00  1.54D+00  1.25D+00  1.24D+00
 E= -770.405605633054     Delta-E=       -0.000006590790 Rises=F Damp=F
 DIIS: error= 3.92D-05 at cycle  10 NSaved=  10.
 NSaved=10 IEnMin=10 EnMin= -770.405605633054     IErMin=10 ErrMin= 3.92D-05
 ErrMax= 3.92D-05  0.00D+00 EMaxC= 1.00D-01 BMatC= 3.42D-06 BMatP= 7.15D-06
 IDIUse=1 WtCom= 1.00D+00 WtEn= 0.00D+00
 Coeff-Com:  0.372D-03-0.443D-03 0.787D-02 0.156D-01 0.151D-01-0.374D-01
 Coeff-Com: -0.171D+00-0.146D+00 0.513D+00 0.803D+00
 Coeff:      0.372D-03-0.443D-03 0.787D-02 0.156D-01 0.151D-01-0.374D-01
 Coeff:     -0.171D+00-0.146D+00 0.513D+00 0.803D+00
 Gap=     0.158 Goal=   None    Shift=    0.000
 Gap=     0.124 Goal=   None    Shift=    0.000
 RMSDP=8.67D-06 MaxDP=5.54D-04 DE=-6.59D-06 OVMax= 2.08D-03

 Cycle  11  Pass 1  IDiag  1:
 RMSU=  3.12D-06    CP:  9.58D-01  2.48D+00  9.20D-01  8.93D-01  1.28D+00
                    CP:  1.30D+00  1.63D+00  1.41D+00  1.63D+00  1.07D+00
 E= -770.405608574701     Delta-E=       -0.000002941647 Rises=F Damp=F
 DIIS: error= 2.06D-05 at cycle  11 NSaved=  11.
 NSaved=11 IEnMin=11 EnMin= -770.405608574701     IErMin=11 ErrMin= 2.06D-05
 ErrMax= 2.06D-05  0.00D+00 EMaxC= 1.00D-01 BMatC= 4.71D-07 BMatP= 3.42D-06
 IDIUse=1 WtCom= 1.00D+00 WtEn= 0.00D+00
 Coeff-Com:  0.251D-03-0.451D-03 0.194D-02 0.501D-02 0.575D-02 0.135D-02
 Coeff-Com: -0.628D-01-0.777D-01 0.180D-01 0.280D+00 0.829D+00
 Coeff:      0.251D-03-0.451D-03 0.194D-02 0.501D-02 0.575D-02 0.135D-02
 Coeff:     -0.628D-01-0.777D-01 0.180D-01 0.280D+00 0.829D+00
 Gap=     0.158 Goal=   None    Shift=    0.000
 Gap=     0.124 Goal=   None    Shift=    0.000
 RMSDP=3.35D-06 MaxDP=1.97D-04 DE=-2.94D-06 OVMax= 7.26D-04

 Cycle  12  Pass 1  IDiag  1:
 RMSU=  1.68D-06    CP:  9.58D-01  2.48D+00  9.20D-01  8.93D-01  1.28D+00
                    CP:  1.30D+00  1.65D+00  1.46D+00  1.75D+00  1.27D+00
                    CP:  1.19D+00
 E= -770.405609094367     Delta-E=       -0.000000519665 Rises=F Damp=F
 DIIS: error= 1.43D-05 at cycle  12 NSaved=  12.
 NSaved=12 IEnMin=12 EnMin= -770.405609094367     IErMin=12 ErrMin= 1.43D-05
 ErrMax= 1.43D-05  0.00D+00 EMaxC= 1.00D-01 BMatC= 2.10D-07 BMatP= 4.71D-07
 IDIUse=1 WtCom= 1.00D+00 WtEn= 0.00D+00
 Coeff-Com:  0.683D-04-0.189D-03-0.130D-02-0.174D-02-0.183D-02 0.140D-01
 Coeff-Com:  0.131D-01-0.793D-03-0.158D+00-0.782D-01 0.455D+00 0.759D+00
 Coeff:      0.683D-04-0.189D-03-0.130D-02-0.174D-02-0.183D-02 0.140D-01
 Coeff:      0.131D-01-0.793D-03-0.158D+00-0.782D-01 0.455D+00 0.759D+00
 Gap=     0.158 Goal=   None    Shift=    0.000
 Gap=     0.124 Goal=   None    Shift=    0.000
 RMSDP=2.03D-06 MaxDP=1.27D-04 DE=-5.20D-07 OVMax= 3.85D-04

 Cycle  13  Pass 1  IDiag  1:
 RMSU=  8.69D-07    CP:  9.58D-01  2.48D+00  9.21D-01  8.93D-01  1.28D+00
                    CP:  1.31D+00  1.66D+00  1.48D+00  1.80D+00  1.38D+00
                    CP:  1.57D+00  1.14D+00
 E= -770.405609295476     Delta-E=       -0.000000201110 Rises=F Damp=F
 DIIS: error= 6.44D-06 at cycle  13 NSaved=  13.
 NSaved=13 IEnMin=13 EnMin= -770.405609295476     IErMin=13 ErrMin= 6.44D-06
 ErrMax= 6.44D-06  0.00D+00 EMaxC= 1.00D-01 BMatC= 4.98D-08 BMatP= 2.10D-07
 IDIUse=1 WtCom= 1.00D+00 WtEn= 0.00D+00
 Coeff-Com: -0.610D-04 0.861D-04-0.100D-02-0.189D-02-0.253D-02 0.630D-02
 Coeff-Com:  0.219D-01 0.231D-01-0.706D-01-0.102D+00-0.870D-01 0.302D+00
 Coeff-Com:  0.911D+00
 Coeff:     -0.610D-04 0.861D-04-0.100D-02-0.189D-02-0.253D-02 0.630D-02
 Coeff:      0.219D-01 0.231D-01-0.706D-01-0.102D+00-0.870D-01 0.302D+00
 Coeff:      0.911D+00
 Gap=     0.158 Goal=   None    Shift=    0.000
 Gap=     0.124 Goal=   None    Shift=    0.000
 RMSDP=1.13D-06 MaxDP=7.35D-05 DE=-2.01D-07 OVMax= 2.02D-04

 Cycle  14  Pass 1  IDiag  1:
 RMSU=  4.63D-07    CP:  9.58D-01  2.48D+00  9.21D-01  8.93D-01  1.28D+00
                    CP:  1.31D+00  1.66D+00  1.49D+00  1.82D+00  1.44D+00
                    CP:  1.76D+00  1.52D+00  1.23D+00
 E= -770.405609349418     Delta-E=       -0.000000053942 Rises=F Damp=F
 DIIS: error= 3.26D-06 at cycle  14 NSaved=  14.
 NSaved=14 IEnMin=14 EnMin= -770.405609349418     IErMin=14 ErrMin= 3.26D-06
 ErrMax= 3.26D-06  0.00D+00 EMaxC= 1.00D-01 BMatC= 1.89D-08 BMatP= 4.98D-08
 IDIUse=1 WtCom= 1.00D+00 WtEn= 0.00D+00
 Coeff-Com: -0.697D-04 0.124D-03-0.263D-03-0.658D-03-0.121D-02 0.184D-03
 Coeff-Com:  0.922D-02 0.151D-01 0.620D-03-0.364D-01-0.184D+00-0.292D-01
 Coeff-Com:  0.526D+00 0.700D+00
 Coeff:     -0.697D-04 0.124D-03-0.263D-03-0.658D-03-0.121D-02 0.184D-03
 Coeff:      0.922D-02 0.151D-01 0.620D-03-0.364D-01-0.184D+00-0.292D-01
 Coeff:      0.526D+00 0.700D+00
 Gap=     0.158 Goal=   None    Shift=    0.000
 Gap=     0.124 Goal=   None    Shift=    0.000
 RMSDP=5.46D-07 MaxDP=3.11D-05 DE=-5.39D-08 OVMax= 9.90D-05

 Cycle  15  Pass 1  IDiag  1:
 RMSU=  2.29D-07    CP:  9.58D-01  2.48D+00  9.21D-01  8.93D-01  1.28D+00
                    CP:  1.31D+00  1.66D+00  1.49D+00  1.82D+00  1.46D+00
                    CP:  1.85D+00  1.67D+00  1.57D+00  1.04D+00
 E= -770.405609362890     Delta-E=       -0.000000013472 Rises=F Damp=F
 DIIS: error= 1.13D-06 at cycle  15 NSaved=  15.
 NSaved=15 IEnMin=15 EnMin= -770.405609362890     IErMin=15 ErrMin= 1.13D-06
 ErrMax= 1.13D-06  0.00D+00 EMaxC= 1.00D-01 BMatC= 2.94D-09 BMatP= 1.89D-08
 IDIUse=1 WtCom= 1.00D+00 WtEn= 0.00D+00
 Coeff-Com: -0.215D-04 0.427D-04 0.178D-03 0.332D-03 0.220D-03-0.138D-02
 Coeff-Com: -0.298D-02-0.257D-03 0.191D-01 0.139D-01-0.540D-01-0.862D-01
 Coeff-Com: -0.204D-01 0.294D+00 0.838D+00
 Coeff:     -0.215D-04 0.427D-04 0.178D-03 0.332D-03 0.220D-03-0.138D-02
 Coeff:     -0.298D-02-0.257D-03 0.191D-01 0.139D-01-0.540D-01-0.862D-01
 Coeff:     -0.204D-01 0.294D+00 0.838D+00
 Gap=     0.158 Goal=   None    Shift=    0.000
 Gap=     0.124 Goal=   None    Shift=    0.000
 RMSDP=2.59D-07 MaxDP=2.16D-05 DE=-1.35D-08 OVMax= 5.29D-05

 Cycle  16  Pass 1  IDiag  1:
 RMSU=  1.02D-07    CP:  9.58D-01  2.48D+00  9.21D-01  8.93D-01  1.28D+00
                    CP:  1.31D+00  1.66D+00  1.49D+00  1.82D+00  1.47D+00
                    CP:  1.87D+00  1.74D+00  1.70D+00  1.29D+00  1.11D+00
 E= -770.405609365430     Delta-E=       -0.000000002540 Rises=F Damp=F
 DIIS: error= 4.83D-07 at cycle  16 NSaved=  16.
 NSaved=16 IEnMin=16 EnMin= -770.405609365430     IErMin=16 ErrMin= 4.83D-07
 ErrMax= 4.83D-07  0.00D+00 EMaxC= 1.00D-01 BMatC= 5.20D-10 BMatP= 2.94D-09
 IDIUse=1 WtCom= 1.00D+00 WtEn= 0.00D+00
 Coeff-Com:  0.195D-05-0.471D-05 0.980D-04 0.230D-03 0.251D-03-0.509D-03
 Coeff-Com: -0.288D-02-0.247D-02 0.692D-02 0.113D-01 0.133D-01-0.232D-01
 Coeff-Com: -0.106D+00-0.229D-01 0.299D+00 0.827D+00
 Coeff:      0.195D-05-0.471D-05 0.980D-04 0.230D-03 0.251D-03-0.509D-03
 Coeff:     -0.288D-02-0.247D-02 0.692D-02 0.113D-01 0.133D-01-0.232D-01
 Coeff:     -0.106D+00-0.229D-01 0.299D+00 0.827D+00
 Gap=     0.158 Goal=   None    Shift=    0.000
 Gap=     0.124 Goal=   None    Shift=    0.000
 RMSDP=1.12D-07 MaxDP=9.49D-06 DE=-2.54D-09 OVMax= 2.47D-05

 Cycle  17  Pass 1  IDiag  1:
 RMSU=  4.50D-08    CP:  9.58D-01  2.48D+00  9.21D-01  8.93D-01  1.28D+00
                    CP:  1.31D+00  1.66D+00  1.49D+00  1.81D+00  1.47D+00
                    CP:  1.88D+00  1.75D+00  1.76D+00  1.39D+00  1.34D+00
                    CP:  1.15D+00
 E= -770.405609365855     Delta-E=       -0.000000000425 Rises=F Damp=F
 DIIS: error= 2.45D-07 at cycle  17 NSaved=  17.
 NSaved=17 IEnMin=17 EnMin= -770.405609365855     IErMin=17 ErrMin= 2.45D-07
 ErrMax= 2.45D-07  0.00D+00 EMaxC= 1.00D-01 BMatC= 1.49D-10 BMatP= 5.20D-10
 IDIUse=1 WtCom= 1.00D+00 WtEn= 0.00D+00
 Coeff-Com:  0.199D-05-0.529D-05 0.122D-04 0.511D-04 0.776D-04 0.570D-04
 Coeff-Com: -0.881D-03-0.113D-02-0.762D-03 0.256D-02 0.195D-01 0.823D-02
 Coeff-Com: -0.518D-01-0.759D-01-0.334D-01 0.414D+00 0.720D+00
 Coeff:      0.199D-05-0.529D-05 0.122D-04 0.511D-04 0.776D-04 0.570D-04
 Coeff:     -0.881D-03-0.113D-02-0.762D-03 0.256D-02 0.195D-01 0.823D-02
 Coeff:     -0.518D-01-0.759D-01-0.334D-01 0.414D+00 0.720D+00
 Gap=     0.158 Goal=   None    Shift=    0.000
 Gap=     0.124 Goal=   None    Shift=    0.000
 RMSDP=4.88D-08 MaxDP=4.71D-06 DE=-4.25D-10 OVMax= 1.23D-05

 Cycle  18  Pass 1  IDiag  1:
 RMSU=  2.06D-08    CP:  9.58D-01  2.48D+00  9.21D-01  8.93D-01  1.28D+00
                    CP:  1.31D+00  1.66D+00  1.49D+00  1.81D+00  1.47D+00
                    CP:  1.88D+00  1.76D+00  1.78D+00  1.42D+00  1.42D+00
                    CP:  1.35D+00  1.01D+00
 E= -770.405609365940     Delta-E=       -0.000000000085 Rises=F Damp=F
 DIIS: error= 8.20D-08 at cycle  18 NSaved=  18.
 NSaved=18 IEnMin=18 EnMin= -770.405609365940     IErMin=18 ErrMin= 8.20D-08
 ErrMax= 8.20D-08  0.00D+00 EMaxC= 1.00D-01 BMatC= 1.76D-11 BMatP= 1.49D-10
 IDIUse=1 WtCom= 1.00D+00 WtEn= 0.00D+00
 Coeff-Com: -0.816D-07-0.515D-06-0.178D-04-0.327D-04-0.307D-04 0.121D-03
 Coeff-Com:  0.296D-03 0.197D-03-0.168D-02-0.163D-02 0.375D-02 0.752D-02
 Coeff-Com:  0.421D-02-0.192D-01-0.787D-01-0.411D-01 0.253D+00 0.873D+00
 Coeff:     -0.816D-07-0.515D-06-0.178D-04-0.327D-04-0.307D-04 0.121D-03
 Coeff:      0.296D-03 0.197D-03-0.168D-02-0.163D-02 0.375D-02 0.752D-02
 Coeff:      0.421D-02-0.192D-01-0.787D-01-0.411D-01 0.253D+00 0.873D+00
 Gap=     0.158 Goal=   None    Shift=    0.000
 Gap=     0.124 Goal=   None    Shift=    0.000
 RMSDP=2.32D-08 MaxDP=2.09D-06 DE=-8.50D-11 OVMax= 5.41D-06

 Cycle  19  Pass 1  IDiag  1:
 RMSU=  8.12D-09    CP:  9.58D-01  2.48D+00  9.21D-01  8.93D-01  1.28D+00
                    CP:  1.31D+00  1.66D+00  1.49D+00  1.81D+00  1.47D+00
                    CP:  1.88D+00  1.76D+00  1.78D+00  1.44D+00  1.46D+00
                    CP:  1.45D+00  1.21D+00  1.06D+00
 E= -770.405609365959     Delta-E=       -0.000000000019 Rises=F Damp=F
 DIIS: error= 4.35D-08 at cycle  19 NSaved=  19.
 NSaved=19 IEnMin=19 EnMin= -770.405609365959     IErMin=19 ErrMin= 4.35D-08
 ErrMax= 4.35D-08  0.00D+00 EMaxC= 1.00D-01 BMatC= 3.90D-12 BMatP= 1.76D-11
 IDIUse=1 WtCom= 1.00D+00 WtEn= 0.00D+00
 Coeff-Com: -0.305D-06 0.407D-06-0.863D-05-0.183D-04-0.196D-04 0.520D-04
 Coeff-Com:  0.209D-03 0.200D-03-0.688D-03-0.973D-03-0.250D-03 0.254D-02
 Coeff-Com:  0.695D-02-0.468D-03-0.320D-01-0.605D-01 0.390D-01 0.407D+00
 Coeff-Com:  0.639D+00
 Coeff:     -0.305D-06 0.407D-06-0.863D-05-0.183D-04-0.196D-04 0.520D-04
 Coeff:      0.209D-03 0.200D-03-0.688D-03-0.973D-03-0.250D-03 0.254D-02
 Coeff:      0.695D-02-0.468D-03-0.320D-01-0.605D-01 0.390D-01 0.407D+00
 Coeff:      0.639D+00
 Gap=     0.158 Goal=   None    Shift=    0.000
 Gap=     0.124 Goal=   None    Shift=    0.000
 RMSDP=6.04D-09 MaxDP=4.47D-07 DE=-1.86D-11 OVMax= 1.15D-06

 Error on total polarization charges =  0.00971
 SCF Done:  E(UB3LYP) =  -770.405609366     A.U. after   19 cycles
            NFock= 19  Conv=0.60D-08     -V/T= 2.0095
 <Sx>= 0.0000 <Sy>= 0.0000 <Sz>= 0.5000 <S**2>= 0.7639 S= 0.5069
 <L.S>=  0.00000000000    
 KE= 7.631881087954D+02 PE=-4.435418903356D+03 EE= 1.579225679518D+03
 Annihilation of the first spin contaminant:
 S**2 before annihilation     0.7639,   after     0.7502
 Leave Link  502 at Fri May 24 20:07:48 2019, MaxMem=   104857600 cpu:            1479.2 elap:              47.0
 (Enter /opt/software/gaussian/g16.b01/l801.exe)
 DoSCS=F DFT=T ScalE2(SS,OS)=  1.000000  1.000000
 ExpMin= 1.61D-01 ExpMax= 5.48D+03 ExpMxC= 8.25D+02 IAcc=3 IRadAn=         5 AccDes= 0.00D+00
 HarFok:  IExCor=  205 AccDes= 0.00D+00 IRadAn=         5 IDoV=-2 UseB2=F ITyADJ=14
 ICtDFT= 12500011 ScaDFX=  1.000000  1.000000  1.000000  1.000000
 Largest valence mixing into a core orbital is  5.92D-05
 Largest core mixing into a valence orbital is  1.20D-05
 Largest valence mixing into a core orbital is  6.43D-05
 Largest core mixing into a valence orbital is  1.21D-05
 Range of M.O.s used for correlation:    19   355
 NBasis=   355 NAE=    65 NBE=    64 NFC=    18 NFV=     0
 NROrb=    337 NOA=    47 NOB=    46 NVA=   290 NVB=   291
 Leave Link  801 at Fri May 24 20:07:48 2019, MaxMem=   104857600 cpu:               4.7 elap:               0.2
 (Enter /opt/software/gaussian/g16.b01/l914.exe)
 UHF ground state
 Ignoring spin specification with unrestricted ground state.
 Two-electron integrals replicated using symmetry.
 MDV=   104857600 DFT=T DoStab=F Mixed=T DoRPA=T DoScal=F NonHer=T
 NEqPCM:  Using non-equilibrium solvation (IEInf=1, Eps=  35.6880, EpsInf=   1.8069)
 Inv3:  Mode=1 IEnd=    17021772.
 Iteration    1 A*A^-1 deviation from unit magnitude is 3.44D-15 for   1022.
 Iteration    1 A*A^-1 deviation from orthogonality  is 1.54D-15 for   1092    990.
 Iteration    1 A^-1*A deviation from unit magnitude is 3.89D-15 for   1022.
 Iteration    1 A^-1*A deviation from orthogonality  is 1.54D-15 for   1492    456.
 Making orbital integer symmetry assigments:
 Orbital symmetries:
 Alpha Orbitals:
       Occupied  (A) (A) (A) (A) (A) (A) (A) (A) (A) (A) (A) (A)
                 (A) (A) (A) (A) (A) (A) (A) (A) (A) (A) (A) (A)
                 (A) (A) (A) (A) (A) (A) (A) (A) (A) (A) (A) (A)
                 (A) (A) (A) (A) (A) (A) (A) (A) (A) (A) (A) (A)
                 (A) (A) (A) (A) (A) (A) (A) (A) (A) (A) (A) (A)
                 (A) (A) (A) (A) (A)
       Virtual   (A) (A) (A) (A) (A) (A) (A) (A) (A) (A) (A) (A)
                 (A) (A) (A) (A) (A) (A) (A) (A) (A) (A) (A) (A)
                 (A) (A) (A) (A) (A) (A) (A) (A) (A) (A) (A) (A)
                 (A) (A) (A) (A) (A) (A) (A) (A) (A) (A) (A) (A)
                 (A) (A) (A) (A) (A) (A) (A) (A) (A) (A) (A) (A)
                 (A) (A) (A) (A) (A) (A) (A) (A) (A) (A) (A) (A)
                 (A) (A) (A) (A) (A) (A) (A) (A) (A) (A) (A) (A)
                 (A) (A) (A) (A) (A) (A) (A) (A) (A) (A) (A) (A)
                 (A) (A) (A) (A) (A) (A) (A) (A) (A) (A) (A) (A)
                 (A) (A) (A) (A) (A) (A) (A) (A) (A) (A) (A) (A)
                 (A) (A) (A) (A) (A) (A) (A) (A) (A) (A) (A) (A)
                 (A) (A) (A) (A) (A) (A) (A) (A) (A) (A) (A) (A)
                 (A) (A) (A) (A) (A) (A) (A) (A) (A) (A) (A) (A)
                 (A) (A) (A) (A) (A) (A) (A) (A) (A) (A) (A) (A)
                 (A) (A) (A) (A) (A) (A) (A) (A) (A) (A) (A) (A)
                 (A) (A) (A) (A) (A) (A) (A) (A) (A) (A) (A) (A)
                 (A) (A) (A) (A) (A) (A) (A) (A) (A) (A) (A) (A)
                 (A) (A) (A) (A) (A) (A) (A) (A) (A) (A) (A) (A)
                 (A) (A) (A) (A) (A) (A) (A) (A) (A) (A) (A) (A)
                 (A) (A) (A) (A) (A) (A) (A) (A) (A) (A) (A) (A)
                 (A) (A) (A) (A) (A) (A) (A) (A) (A) (A) (A) (A)
                 (A) (A) (A) (A) (A) (A) (A) (A) (A) (A) (A) (A)
                 (A) (A) (A) (A) (A) (A) (A) (A) (A) (A) (A) (A)
                 (A) (A) (A) (A) (A) (A) (A) (A) (A) (A) (A) (A)
                 (A) (A)
 Beta  Orbitals:
       Occupied  (A) (A) (A) (A) (A) (A) (A) (A) (A) (A) (A) (A)
                 (A) (A) (A) (A) (A) (A) (A) (A) (A) (A) (A) (A)
                 (A) (A) (A) (A) (A) (A) (A) (A) (A) (A) (A) (A)
                 (A) (A) (A) (A) (A) (A) (A) (A) (A) (A) (A) (A)
                 (A) (A) (A) (A) (A) (A) (A) (A) (A) (A) (A) (A)
                 (A) (A) (A) (A)
       Virtual   (A) (A) (A) (A) (A) (A) (A) (A) (A) (A) (A) (A)
                 (A) (A) (A) (A) (A) (A) (A) (A) (A) (A) (A) (A)
                 (A) (A) (A) (A) (A) (A) (A) (A) (A) (A) (A) (A)
                 (A) (A) (A) (A) (A) (A) (A) (A) (A) (A) (A) (A)
                 (A) (A) (A) (A) (A) (A) (A) (A) (A) (A) (A) (A)
                 (A) (A) (A) (A) (A) (A) (A) (A) (A) (A) (A) (A)
                 (A) (A) (A) (A) (A) (A) (A) (A) (A) (A) (A) (A)
                 (A) (A) (A) (A) (A) (A) (A) (A) (A) (A) (A) (A)
                 (A) (A) (A) (A) (A) (A) (A) (A) (A) (A) (A) (A)
                 (A) (A) (A) (A) (A) (A) (A) (A) (A) (A) (A) (A)
                 (A) (A) (A) (A) (A) (A) (A) (A) (A) (A) (A) (A)
                 (A) (A) (A) (A) (A) (A) (A) (A) (A) (A) (A) (A)
                 (A) (A) (A) (A) (A) (A) (A) (A) (A) (A) (A) (A)
                 (A) (A) (A) (A) (A) (A) (A) (A) (A) (A) (A) (A)
                 (A) (A) (A) (A) (A) (A) (A) (A) (A) (A) (A) (A)
                 (A) (A) (A) (A) (A) (A) (A) (A) (A) (A) (A) (A)
                 (A) (A) (A) (A) (A) (A) (A) (A) (A) (A) (A) (A)
                 (A) (A) (A) (A) (A) (A) (A) (A) (A) (A) (A) (A)
                 (A) (A) (A) (A) (A) (A) (A) (A) (A) (A) (A) (A)
                 (A) (A) (A) (A) (A) (A) (A) (A) (A) (A) (A) (A)
                 (A) (A) (A) (A) (A) (A) (A) (A) (A) (A) (A) (A)
                 (A) (A) (A) (A) (A) (A) (A) (A) (A) (A) (A) (A)
                 (A) (A) (A) (A) (A) (A) (A) (A) (A) (A) (A) (A)
                 (A) (A) (A) (A) (A) (A) (A) (A) (A) (A) (A) (A)
                 (A) (A) (A)
    72 initial guesses have been made.
 Convergence on wavefunction:    0.001000000000000
 Davidson Disk Diagonalization:  ConvIn= 1.00D-03 SkipCon=T Conv= 1.00D-03.
 Max sub-space:  2000 roots to seek:    72 dimension of matrix:        27016
 Iteration     1 Dimension    72 NMult     0 NNew     72
 CISAX will form     3 AO SS matrices at one time.
 NMat=     3 NSing=     3 JSym2X= 0.
 FoFJK:  IHMeth= 1 ICntrl=       0 DoSepK=F KAlg= 0 I1Cent=           0 FoldK=F
 IRaf= 840000000 NMat=       6 IRICut=       1 DoRegI=T DoRafI=F ISym2E= 0 IDoP0=0 IntGTp=1.
 NMat=     3 NSing=     3 JSym2X= 0.
 NMat=     3 NSing=     3 JSym2X= 0.
 NMat=     3 NSing=     3 JSym2X= 0.
 NMat=     3 NSing=     3 JSym2X= 0.
 NMat=     3 NSing=     3 JSym2X= 0.
 NMat=     3 NSing=     3 JSym2X= 0.
 NMat=     3 NSing=     3 JSym2X= 0.
 NMat=     3 NSing=     3 JSym2X= 0.
 NMat=     3 NSing=     3 JSym2X= 0.
 NMat=     3 NSing=     3 JSym2X= 0.
 NMat=     3 NSing=     3 JSym2X= 0.
 NMat=     3 NSing=     3 JSym2X= 0.
 NMat=     3 NSing=     3 JSym2X= 0.
 NMat=     3 NSing=     3 JSym2X= 0.
 NMat=     3 NSing=     3 JSym2X= 0.
 NMat=     3 NSing=     3 JSym2X= 0.
 NMat=     3 NSing=     3 JSym2X= 0.
 NMat=     3 NSing=     3 JSym2X= 0.
 NMat=     3 NSing=     3 JSym2X= 0.
 NMat=     3 NSing=     3 JSym2X= 0.
 NMat=     3 NSing=     3 JSym2X= 0.
 NMat=     3 NSing=     3 JSym2X= 0.
 NMat=     3 NSing=     3 JSym2X= 0.
 New state      9 was old state     16
 New state     10 was old state      9
 New state     11 was old state     26
 New state     14 was old state     10
 New state     16 was old state     11
 New state     17 was old state     14
 New state     18 was old state     19
 Excitation Energies [eV] at current iteration:
 Root      1 :     1.908410758173522
 Root      2 :     2.804081600544145
 Root      3 :     2.904433929068923
 Root      4 :     3.072620963690039
 Root      5 :     3.290227848307099
 Root      6 :     3.684411928947600
 Root      7 :     4.091227558285230
 Root      8 :     4.172959663374793
 Root      9 :     4.342586197510471
 Root     10 :     4.448167515394611
 Root     11 :     4.507250448063639
 Root     12 :     4.623711194612347
 Root     13 :     4.687037921482211
 Root     14 :     4.717764844339486
 Root     15 :     4.771679787596391
 Root     16 :     4.794032883556657
 Root     17 :     4.970868356502898
 Root     18 :     5.015250910354156
 Root     19 :     5.149422989753599
 Root     20 :     5.218379432463172
 Root     21 :     5.264259659791162
 Root     22 :     5.323430265056039
 Root     23 :     5.341469113499697
 Root     24 :     5.439597388711739
 Root     25 :     5.467151679151629
 Root     26 :     5.548968628756414
 Root     27 :     5.566262140883708
 Root     28 :     5.654595740450786
 Root     29 :     5.683960585941223
 Root     30 :     5.865411194356788
 Root     31 :     5.882257818935617
 Root     32 :     5.922044380460529
 Root     33 :     5.957020490097061
 Root     34 :     5.967622245920183
 Root     35 :     5.994247386645593
 Root     36 :     6.002680961506436
 Root     37 :     6.053786789450970
 Root     38 :     6.073136813602812
 Root     39 :     6.078497321914579
 Root     40 :     6.081369327610259
 Root     41 :     6.121968720672614
 Root     42 :     6.175143836484835
 Root     43 :     6.192182391940452
 Root     44 :     6.231270277710821
 Root     45 :     6.244103250415371
 Root     46 :     6.252628972906041
 Root     47 :     6.301469807799083
 Root     48 :     6.313934438080174
 Root     49 :     6.358764381374869
 Root     50 :     6.399050481335861
 Root     51 :     6.421097729471701
 Root     52 :     6.526427390602907
 Root     53 :     6.541160538274408
 Root     54 :     6.579153709555145
 Root     55 :     6.669853547805223
 Root     56 :     6.714080477048803
 Root     57 :     6.798742337130014
 Root     58 :     6.814547983016674
 Root     59 :     6.906528506900893
 Root     60 :     6.935329583026217
 Root     61 :     6.961375129186108
 Root     62 :     7.152741115454059
 Root     63 :     7.211605959107596
 Root     64 :     7.219405681066672
 Root     65 :     7.320686360579384
 Root     66 :     7.425322641796800
 Root     67 :     7.545483024107179
 Root     68 :     7.646410072175716
 Root     69 :     8.118267874469881
 Root     70 :     8.311341644677226
 Root     71 :     8.403529683533742
 Root     72 :     8.733752866180099
 Iteration     2 Dimension   108 NMult    72 NNew     36
 CISAX will form     3 AO SS matrices at one time.
 NMat=     3 NSing=     3 JSym2X= 0.
 NMat=     3 NSing=     3 JSym2X= 0.
 NMat=     3 NSing=     3 JSym2X= 0.
 NMat=     3 NSing=     3 JSym2X= 0.
 NMat=     3 NSing=     3 JSym2X= 0.
 NMat=     3 NSing=     3 JSym2X= 0.
 NMat=     3 NSing=     3 JSym2X= 0.
 NMat=     3 NSing=     3 JSym2X= 0.
 NMat=     3 NSing=     3 JSym2X= 0.
 NMat=     3 NSing=     3 JSym2X= 0.
 NMat=     3 NSing=     3 JSym2X= 0.
 NMat=     3 NSing=     3 JSym2X= 0.
 Root      1 not converged, maximum delta is    0.061668491781379
 Root      2 not converged, maximum delta is    0.429204433139215
 Root      3 not converged, maximum delta is    0.405233947344046
 Root      4 not converged, maximum delta is    0.214408321712088
 Root      5 not converged, maximum delta is    0.233507563760040
 Root      6 not converged, maximum delta is    0.073892120653518
 New state      7 was old state      8
 Root      7 not converged, maximum delta is    0.243533996950508
 New state      8 was old state      9
 Root      8 not converged, maximum delta is    0.293365445539891
 New state      9 was old state      7
 Root      9 not converged, maximum delta is    0.115591216620196
 New state     10 was old state     11
 Root     10 not converged, maximum delta is    0.118655464093753
 New state     11 was old state     10
 Root     11 not converged, maximum delta is    0.286126116183966
 New state     12 was old state     16
 Root     12 not converged, maximum delta is    0.644017453786314
 New state     13 was old state     12
 Root     13 not converged, maximum delta is    0.441813835363206
 Root     14 not converged, maximum delta is    0.289469351247304
 New state     15 was old state     13
 Root     15 not converged, maximum delta is    0.327044187246019
 New state     16 was old state     15
 Root     16 not converged, maximum delta is    0.474176406487320
 Root     17 not converged, maximum delta is    0.096480000245172
 Root     18 not converged, maximum delta is    0.058898699380817
 Excitation Energies [eV] at current iteration:
 Root      1 :     1.811115207115110   Change is   -0.097295551058413
 Root      2 :     2.650413004720849   Change is   -0.153668595823295
 Root      3 :     2.817090678516283   Change is   -0.087343250552640
 Root      4 :     2.961775287043113   Change is   -0.110845676646925
 Root      5 :     3.165733062298421   Change is   -0.124494786008678
 Root      6 :     3.423782622555316   Change is   -0.260629306392284
 Root      7 :     3.915455749040791   Change is   -0.257503914334002
 Root      8 :     3.962433391848715   Change is   -0.380152805661756
 Root      9 :     4.030537538594929   Change is   -0.060690019690301
 Root     10 :     4.181537690219590   Change is   -0.325712757844049
 Root     11 :     4.399381846699653   Change is   -0.048785668694957
 Root     12 :     4.423048488829775   Change is   -0.370984394726882
 Root     13 :     4.527765827477093   Change is   -0.095945367135254
 Root     14 :     4.561484536032547   Change is   -0.156280308306939
 Root     15 :     4.640766138630113   Change is   -0.046271782852098
 Root     16 :     4.698832387450524   Change is   -0.072847400145866
 Root     17 :     4.900508398888315   Change is   -0.070359957614583
 Root     18 :     4.961340361792813   Change is   -0.053910548561343
 Iteration     3 Dimension   144 NMult   108 NNew     36
 CISAX will form     3 AO SS matrices at one time.
 NMat=     3 NSing=     3 JSym2X= 0.
 NMat=     3 NSing=     3 JSym2X= 0.
 NMat=     3 NSing=     3 JSym2X= 0.
 NMat=     3 NSing=     3 JSym2X= 0.
 NMat=     3 NSing=     3 JSym2X= 0.
 NMat=     3 NSing=     3 JSym2X= 0.
 NMat=     3 NSing=     3 JSym2X= 0.
 NMat=     3 NSing=     3 JSym2X= 0.
 NMat=     3 NSing=     3 JSym2X= 0.
 NMat=     3 NSing=     3 JSym2X= 0.
 NMat=     3 NSing=     3 JSym2X= 0.
 NMat=     3 NSing=     3 JSym2X= 0.
 Root      1 not converged, maximum delta is    0.004103019862010
 Root      2 not converged, maximum delta is    0.023076798892245
 Root      3 not converged, maximum delta is    0.023508278765783
 Root      4 not converged, maximum delta is    0.010314089057624
 Root      5 not converged, maximum delta is    0.015209797609960
 Root      6 not converged, maximum delta is    0.013140653268729
 Root      7 not converged, maximum delta is    0.064520454408553
 Root      8 not converged, maximum delta is    0.136268844328744
 Root      9 not converged, maximum delta is    0.023208180534675
 Root     10 not converged, maximum delta is    0.034103525574891
 Root     11 not converged, maximum delta is    0.447431007931703
 Root     12 not converged, maximum delta is    0.428754860478273
 Root     13 not converged, maximum delta is    0.097660303948198
 Root     14 not converged, maximum delta is    0.134337442835085
 Root     15 not converged, maximum delta is    0.024173411554943
 Root     16 not converged, maximum delta is    0.006109005929700
 Root     17 not converged, maximum delta is    0.010721479649746
 Root     18 not converged, maximum delta is    0.007620747830988
 Excitation Energies [eV] at current iteration:
 Root      1 :     1.803628980880410   Change is   -0.007486226234699
 Root      2 :     2.635037174354658   Change is   -0.015375830366191
 Root      3 :     2.808965285184147   Change is   -0.008125393332136
 Root      4 :     2.951465754401369   Change is   -0.010309532641744
 Root      5 :     3.154219112526366   Change is   -0.011513949772054
 Root      6 :     3.405973790470989   Change is   -0.017808832084326
 Root      7 :     3.894263240505504   Change is   -0.021192508535287
 Root      8 :     3.940513839958112   Change is   -0.021919551890603
 Root      9 :     4.024888753869563   Change is   -0.005648784725366
 Root     10 :     4.165172040274998   Change is   -0.016365649944593
 Root     11 :     4.378616973001217   Change is   -0.020764873698436
 Root     12 :     4.403625769494924   Change is   -0.019422719334851
 Root     13 :     4.516848375104377   Change is   -0.010917452372715
 Root     14 :     4.551980006723708   Change is   -0.009504529308839
 Root     15 :     4.637520028532766   Change is   -0.003246110097347
 Root     16 :     4.694914841558194   Change is   -0.003917545892331
 Root     17 :     4.897795893893841   Change is   -0.002712504994474
 Root     18 :     4.958436834509895   Change is   -0.002903527282919
 Iteration     4 Dimension   180 NMult   144 NNew     36
 CISAX will form     3 AO SS matrices at one time.
 NMat=     3 NSing=     3 JSym2X= 0.
 NMat=     3 NSing=     3 JSym2X= 0.
 NMat=     3 NSing=     3 JSym2X= 0.
 NMat=     3 NSing=     3 JSym2X= 0.
 NMat=     3 NSing=     3 JSym2X= 0.
 NMat=     3 NSing=     3 JSym2X= 0.
 NMat=     3 NSing=     3 JSym2X= 0.
 NMat=     3 NSing=     3 JSym2X= 0.
 NMat=     3 NSing=     3 JSym2X= 0.
 NMat=     3 NSing=     3 JSym2X= 0.
 NMat=     3 NSing=     3 JSym2X= 0.
 NMat=     3 NSing=     3 JSym2X= 0.
 Root      1 has converged.
 Root      2 not converged, maximum delta is    0.002064923334803
 Root      3 not converged, maximum delta is    0.001645879829826
 Root      4 not converged, maximum delta is    0.001175166933178
 Root      5 not converged, maximum delta is    0.001334653561148
 Root      6 not converged, maximum delta is    0.001499452191042
 Root      7 not converged, maximum delta is    0.007473662073703
 Root      8 not converged, maximum delta is    0.018075097072144
 Root      9 not converged, maximum delta is    0.002353914048252
 Root     10 not converged, maximum delta is    0.003711014600451
 Root     11 not converged, maximum delta is    0.030601408484227
 Root     12 not converged, maximum delta is    0.036243764506531
 Root     13 not converged, maximum delta is    0.005903295480317
 Root     14 not converged, maximum delta is    0.007298083566098
 Root     15 not converged, maximum delta is    0.001668416580611
 Root     16 not converged, maximum delta is    0.001382698453939
 Root     17 not converged, maximum delta is    0.002182560520657
 Root     18 not converged, maximum delta is    0.001027811811791
 Excitation Energies [eV] at current iteration:
 Root      1 :     1.803347190289091   Change is   -0.000281790591319
 Root      2 :     2.633887026295577   Change is   -0.001150148059081
 Root      3 :     2.808415027254409   Change is   -0.000550257929738
 Root      4 :     2.950690691476741   Change is   -0.000775062924628
 Root      5 :     3.153299261960740   Change is   -0.000919850565627
 Root      6 :     3.404641555893361   Change is   -0.001332234577628
 Root      7 :     3.892365125655918   Change is   -0.001898114849587
 Root      8 :     3.938898423805522   Change is   -0.001615416152590
 Root      9 :     4.024668905038271   Change is   -0.000219848831292
 Root     10 :     4.163424193458610   Change is   -0.001747846816388
 Root     11 :     4.375545308739404   Change is   -0.003071664261814
 Root     12 :     4.402948210785024   Change is   -0.000677558709899
 Root     13 :     4.516011871298002   Change is   -0.000836503806376
 Root     14 :     4.551341741705651   Change is   -0.000638265018057
 Root     15 :     4.637268491853752   Change is   -0.000251536679014
 Root     16 :     4.694433951915241   Change is   -0.000480889642952
 Root     17 :     4.897568608867809   Change is   -0.000227285026032
 Root     18 :     4.958199259054329   Change is   -0.000237575455566
 Iteration     5 Dimension   214 NMult   180 NNew     34
 CISAX will form     3 AO SS matrices at one time.
 NMat=     3 NSing=     3 JSym2X= 0.
 NMat=     3 NSing=     3 JSym2X= 0.
 NMat=     3 NSing=     3 JSym2X= 0.
 NMat=     3 NSing=     3 JSym2X= 0.
 NMat=     3 NSing=     3 JSym2X= 0.
 NMat=     3 NSing=     3 JSym2X= 0.
 NMat=     3 NSing=     3 JSym2X= 0.
 NMat=     3 NSing=     3 JSym2X= 0.
 NMat=     3 NSing=     3 JSym2X= 0.
 NMat=     3 NSing=     3 JSym2X= 0.
 NMat=     3 NSing=     3 JSym2X= 0.
 NMat=     1 NSing=     1 JSym2X= 0.
 Root      1 has converged.
 Root      2 has converged.
 Root      3 has converged.
 Root      4 has converged.
 Root      5 has converged.
 Root      6 has converged.
 Root      7 has converged.
 Root      8 not converged, maximum delta is    0.001577622052009
 Root      9 has converged.
 Root     10 has converged.
 Root     11 not converged, maximum delta is    0.002115814513189
 Root     12 not converged, maximum delta is    0.002554634893595
 Root     13 has converged.
 Root     14 has converged.
 Root     15 has converged.
 Root     16 has converged.
 Root     17 has converged.
 Root     18 has converged.
 Excitation Energies [eV] at current iteration:
 Root      1 :     1.803341323225145   Change is   -0.000005867063946
 Root      2 :     2.633821234577477   Change is   -0.000065791718100
 Root      3 :     2.808390087326878   Change is   -0.000024939927531
 Root      4 :     2.950645899432705   Change is   -0.000044792044036
 Root      5 :     3.153250088165446   Change is   -0.000049173795294
 Root      6 :     3.404577446789317   Change is   -0.000064109104044
 Root      7 :     3.892209639002720   Change is   -0.000155486653198
 Root      8 :     3.938802872801887   Change is   -0.000095551003635
 Root      9 :     4.024653417393194   Change is   -0.000015487645076
 Root     10 :     4.163336916867314   Change is   -0.000087276591296
 Root     11 :     4.375315245334279   Change is   -0.000230063405125
 Root     12 :     4.402901572181639   Change is   -0.000046638603385
 Root     13 :     4.515956070002403   Change is   -0.000055801295599
 Root     14 :     4.551303763851147   Change is   -0.000037977854505
 Root     15 :     4.637251302546852   Change is   -0.000017189306900
 Root     16 :     4.694405175276350   Change is   -0.000028776638891
 Root     17 :     4.897551960226374   Change is   -0.000016648641435
 Root     18 :     4.958180271709180   Change is   -0.000018987345148
 Iteration     6 Dimension   220 NMult   214 NNew      6
 CISAX will form     3 AO SS matrices at one time.
 NMat=     3 NSing=     3 JSym2X= 0.
 NMat=     3 NSing=     3 JSym2X= 0.
 Root      1 has converged.
 Root      2 has converged.
 Root      3 has converged.
 Root      4 has converged.
 Root      5 has converged.
 Root      6 has converged.
 Root      7 has converged.
 Root      8 has converged.
 Root      9 has converged.
 Root     10 has converged.
 Root     11 has converged.
 Root     12 has converged.
 Root     13 has converged.
 Root     14 has converged.
 Root     15 has converged.
 Root     16 has converged.
 Root     17 has converged.
 Root     18 has converged.
 Excitation Energies [eV] at current iteration:
 Root      1 :     1.803341045478537   Change is   -0.000000277746608
 Root      2 :     2.633819652617885   Change is   -0.000001581959591
 Root      3 :     2.808389767522366   Change is   -0.000000319804513
 Root      4 :     2.950645531379177   Change is   -0.000000368053528
 Root      5 :     3.153249547488702   Change is   -0.000000540676745
 Root      6 :     3.404577187222463   Change is   -0.000000259566854
 Root      7 :     3.892204185261424   Change is   -0.000005453741296
 Root      8 :     3.938797181561851   Change is   -0.000005691240036
 Root      9 :     4.024652990808438   Change is   -0.000000426584757
 Root     10 :     4.163335539739932   Change is   -0.000001377127382
 Root     11 :     4.375300535226705   Change is   -0.000014710107574
 Root     12 :     4.402898678043132   Change is   -0.000002894138507
 Root     13 :     4.515955109398444   Change is   -0.000000960603959
 Root     14 :     4.551303550214896   Change is   -0.000000213636251
 Root     15 :     4.637251032912862   Change is   -0.000000269633989
 Root     16 :     4.694405077622547   Change is   -0.000000097653803
 Root     17 :     4.897551845672494   Change is   -0.000000114553881
 Root     18 :     4.958180172100024   Change is   -0.000000099609157
 Convergence achieved on expansion vectors.
 ***********************************************************************
 Excited states from <AA,BB:AA,BB> singles matrix:
 ***********************************************************************
 
 ExtSpn:  IState=     1 X2= 1.002 Y2= 0.002 X2-Y2-1= 8.88D-16
          S2Grnd=  0.764 Ra=  0.002 Rb=  0.043 T=  0.018 S2Ext=  0.063 S2=  0.827
 ExtSpn:  IState=     2 X2= 1.009 Y2= 0.009 X2-Y2-1=-1.33D-15
          S2Grnd=  0.764 Ra=  0.028 Rb=  0.045 T=  0.060 S2Ext=  0.132 S2=  0.896
 ExtSpn:  IState=     3 X2= 1.003 Y2= 0.003 X2-Y2-1=-2.22D-16
          S2Grnd=  0.764 Ra=  0.014 Rb=  0.031 T=  0.030 S2Ext=  0.076 S2=  0.840
 ExtSpn:  IState=     4 X2= 1.009 Y2= 0.009 X2-Y2-1= 0.00D+00
          S2Grnd=  0.764 Ra=  0.040 Rb=  0.043 T=  0.065 S2Ext=  0.148 S2=  0.912
 ExtSpn:  IState=     5 X2= 1.007 Y2= 0.007 X2-Y2-1=-3.33D-16
          S2Grnd=  0.764 Ra=  0.043 Rb=  0.046 T=  0.072 S2Ext=  0.161 S2=  0.925
 ExtSpn:  IState=     6 X2= 1.013 Y2= 0.013 X2-Y2-1=-2.22D-16
          S2Grnd=  0.764 Ra=  0.125 Rb=  0.078 T=  0.174 S2Ext=  0.377 S2=  1.141
 ExtSpn:  IState=     7 X2= 1.006 Y2= 0.006 X2-Y2-1= 1.33D-15
          S2Grnd=  0.764 Ra=  0.062 Rb=  0.050 T=  0.096 S2Ext=  0.209 S2=  0.973
 ExtSpn:  IState=     8 X2= 1.026 Y2= 0.026 X2-Y2-1=-7.77D-16
          S2Grnd=  0.764 Ra=  0.314 Rb=  0.324 T=  0.617 S2Ext=  1.255 S2=  2.019
 ExtSpn:  IState=     9 X2= 1.003 Y2= 0.003 X2-Y2-1= 1.78D-15
          S2Grnd=  0.764 Ra=  0.065 Rb=  0.046 T=  0.067 S2Ext=  0.178 S2=  0.942
 ExtSpn:  IState=    10 X2= 1.024 Y2= 0.024 X2-Y2-1= 4.44D-16
          S2Grnd=  0.764 Ra=  0.379 Rb=  0.368 T=  0.733 S2Ext=  1.481 S2=  2.244
 ExtSpn:  IState=    11 X2= 1.006 Y2= 0.006 X2-Y2-1=-4.44D-16
          S2Grnd=  0.764 Ra=  0.106 Rb=  0.081 T=  0.144 S2Ext=  0.331 S2=  1.095
 ExtSpn:  IState=    12 X2= 1.002 Y2= 0.002 X2-Y2-1= 2.22D-16
          S2Grnd=  0.764 Ra=  0.123 Rb=  0.104 T=  0.194 S2Ext=  0.421 S2=  1.185
 ExtSpn:  IState=    13 X2= 1.002 Y2= 0.002 X2-Y2-1= 8.88D-16
          S2Grnd=  0.764 Ra=  0.460 Rb=  0.058 T=  0.227 S2Ext=  0.745 S2=  1.509
 ExtSpn:  IState=    14 X2= 1.004 Y2= 0.004 X2-Y2-1=-1.44D-15
          S2Grnd=  0.764 Ra=  0.534 Rb=  0.187 T=  0.479 S2Ext=  1.200 S2=  1.964
 ExtSpn:  IState=    15 X2= 1.002 Y2= 0.002 X2-Y2-1=-5.55D-16
          S2Grnd=  0.764 Ra=  0.614 Rb=  0.263 T=  0.728 S2Ext=  1.605 S2=  2.369
 ExtSpn:  IState=    16 X2= 1.003 Y2= 0.003 X2-Y2-1= 0.00D+00
          S2Grnd=  0.764 Ra=  0.539 Rb=  0.385 T=  0.830 S2Ext=  1.754 S2=  2.518
 ExtSpn:  IState=    17 X2= 1.001 Y2= 0.001 X2-Y2-1=-7.77D-16
          S2Grnd=  0.764 Ra=  0.064 Rb=  0.896 T= -0.439 S2Ext=  0.521 S2=  1.285
 ExtSpn:  IState=    18 X2= 1.002 Y2= 0.002 X2-Y2-1=-1.11D-16
          S2Grnd=  0.764 Ra=  0.583 Rb=  0.354 T=  0.858 S2Ext=  1.795 S2=  2.559
 1PDM for each excited state written to RWF  633
 Ground to excited state transition densities written to RWF  633
 Ground to excited state transition electric dipole moments (Au):
       state          X           Y           Z        Dip. S.      Osc.
         1        -0.0800     -0.1240     -0.1095      0.0337      0.0015
         2        -0.5952      0.2408      0.0094      0.4124      0.0266
         3        -0.1521      0.2212      0.0827      0.0789      0.0054
         4        -0.2051     -0.3186      0.1341      0.1616      0.0117
         5        -0.2841      0.3498     -0.1285      0.2196      0.0170
         6        -1.3224     -0.4153     -0.2867      2.0034      0.1671
         7         0.5999     -0.2304      0.1768      0.4442      0.0424
         8        -0.8613     -0.4830     -0.1764      1.0062      0.0971
         9         0.0963      0.3018      0.1182      0.1143      0.0113
        10         0.0698      0.3376     -0.1439      0.1396      0.0142
        11         0.6953      0.2110      0.0468      0.5302      0.0568
        12        -0.1438     -0.0672     -0.1149      0.0384      0.0041
        13         0.0469      0.3628     -0.0962      0.1431      0.0158
        14        -0.2293     -0.4691      0.0198      0.2730      0.0304
        15         0.0214     -0.1236      0.0329      0.0168      0.0019
        16         0.0258      0.0709     -0.0815      0.0123      0.0014
        17        -0.2409     -0.1813     -0.0805      0.0974      0.0117
        18         0.0214     -0.0653     -0.0194      0.0051      0.0006
 Ground to excited state transition velocity dipole moments (Au):
       state          X           Y           Z        Dip. S.      Osc.
         1         0.0038      0.0078      0.0075      0.0001      0.0013
         2         0.0560     -0.0218     -0.0007      0.0036      0.0249
         3         0.0183     -0.0224     -0.0114      0.0010      0.0063
         4         0.0223      0.0312     -0.0157      0.0017      0.0106
         5         0.0323     -0.0395      0.0148      0.0028      0.0163
         6         0.1604      0.0501      0.0362      0.0296      0.1575
         7        -0.0823      0.0319     -0.0209      0.0082      0.0383
         8         0.1211      0.0670      0.0239      0.0197      0.0908
[...]
    16  H    0.000625  -0.000025  -0.000163  -0.002037   0.000002  -0.000000
    17  C   -0.000021  -0.000064   0.000023   0.000002  -0.016134   0.000100
    18  H   -0.000023   0.000370  -0.000002  -0.000000   0.000100  -0.001555
    19  C   -0.001349  -0.001010   0.001013  -0.000009  -0.000121  -0.000002
    20  H   -0.000102  -0.000012   0.000060   0.000015   0.000011  -0.000000
    21  H   -0.000005  -0.000119   0.000005  -0.000000   0.000084   0.000004
    22  H    0.000012   0.000018  -0.000019   0.000000  -0.000013   0.000000
    23  C    0.000133   0.000385  -0.000002  -0.000003  -0.000011   0.000052
    24  C    0.000003   0.000052  -0.000000  -0.000000  -0.000000  -0.000007
    25  C    0.000075   0.001716  -0.000004  -0.000000  -0.000041  -0.000029
    26  C   -0.000000  -0.000001   0.000000   0.000000   0.000000  -0.000002
    27  H   -0.000000   0.000000   0.000000  -0.000000  -0.000000  -0.000000
    28  C   -0.000000  -0.000014   0.000000   0.000000   0.000000  -0.000086
    29  H   -0.000003   0.000025   0.000001  -0.000000  -0.000016   0.000004
    30  C   -0.000000  -0.000025   0.000000   0.000000  -0.000000   0.000010
    31  H   -0.000000  -0.000000   0.000000   0.000000   0.000000   0.000000
    32  H   -0.000000  -0.000005   0.000000   0.000000  -0.000000  -0.000000
    33  H    0.000000   0.000000  -0.000000  -0.000000   0.000000  -0.000000
    34  O    0.000005   0.000006  -0.000000  -0.000001  -0.000000   0.000000
    35  H    0.000021   0.000005   0.000000  -0.000001  -0.000000   0.000000
              19         20         21         22         23         24
     1  C    0.000007   0.000001   0.000001  -0.000000  -0.010581  -0.001524
     2  C    0.000016   0.000001   0.000001  -0.000000  -0.032761  -0.009805
     3  O   -0.000001  -0.000000  -0.000000   0.000000   0.000743   0.000054
     4  C    0.000006  -0.000000  -0.000001   0.000000   0.001703   0.000865
     5  H   -0.000002   0.000000   0.000000  -0.000000  -0.000139  -0.000139
     6  H   -0.000000   0.000000   0.000000   0.000000   0.000100   0.000137
     7  H    0.000000  -0.000000  -0.000000   0.000000   0.000520   0.000665
     8  C   -0.000015  -0.000001  -0.000000   0.000000   0.008213  -0.000065
     9  H   -0.000005  -0.000001  -0.000000   0.000000   0.000418   0.000013
    10  H   -0.000003  -0.000002  -0.000000   0.000000   0.000422   0.000001
    11  H    0.000001   0.000000   0.000000  -0.000000  -0.001913   0.000123
    12  C   -0.000164   0.000034   0.000026  -0.000017   0.001575   0.000198
    13  C   -0.001349  -0.000102  -0.000005   0.000012   0.000133   0.000003
    14  C   -0.001010  -0.000012  -0.000119   0.000018   0.000385   0.000052
    15  C    0.001013   0.000060   0.000005  -0.000019  -0.000002  -0.000000
    16  H   -0.000009   0.000015  -0.000000   0.000000  -0.000003  -0.000000
    17  C   -0.000121   0.000011   0.000084  -0.000013  -0.000011  -0.000000
    18  H   -0.000002  -0.000000   0.000004   0.000000   0.000052  -0.000007
    19  C    0.034195  -0.000112  -0.000065   0.000195  -0.000003  -0.000000
    20  H   -0.000112   0.000702   0.000000  -0.000005  -0.000000  -0.000000
    21  H   -0.000065   0.000000   0.000655  -0.000003  -0.000000  -0.000000
    22  H    0.000195  -0.000005  -0.000003  -0.001595   0.000000   0.000000
    23  C   -0.000003  -0.000000  -0.000000   0.000000  -0.084401   0.004992
    24  C   -0.000000  -0.000000  -0.000000   0.000000   0.004992   0.130737
    25  C   -0.000032  -0.000000  -0.000014   0.000000   0.002379   0.003002
    26  C    0.000000   0.000000   0.000000  -0.000000   0.000167  -0.001820
    27  H    0.000000   0.000000   0.000000  -0.000000   0.000585   0.000353
    28  C    0.000000   0.000000  -0.000000  -0.000000   0.000742   0.000041
    29  H    0.000002   0.000000   0.000000  -0.000000   0.000275  -0.000015
    30  C    0.000000   0.000000   0.000001  -0.000000  -0.000488  -0.005283
    31  H    0.000000   0.000000   0.000000  -0.000000   0.000038  -0.000231
    32  H    0.000000   0.000000   0.000000  -0.000000   0.000003  -0.000010
    33  H   -0.000000  -0.000000  -0.000000   0.000000  -0.000028   0.000014
    34  O   -0.000000  -0.000000  -0.000000   0.000000   0.004286   0.001253
    35  H   -0.000000  -0.000000  -0.000000   0.000000   0.000770   0.000045
              25         26         27         28         29         30
     1  C   -0.001191   0.000003  -0.000017   0.000014  -0.000038   0.000012
     2  C   -0.008676  -0.000005  -0.000130   0.000015   0.000046   0.000137
     3  O    0.000025   0.000000  -0.000001  -0.000000  -0.000001  -0.000000
     4  C    0.000443   0.000009   0.000011  -0.000006  -0.000001  -0.000013
     5  H   -0.000022   0.000001   0.000000   0.000000  -0.000000   0.000001
     6  H   -0.000012  -0.000074   0.000030   0.000002   0.000002   0.000004
     7  H    0.000033   0.000002  -0.000019  -0.000000  -0.000000  -0.000003
     8  C   -0.001019   0.000009  -0.000017   0.000004  -0.000065   0.000006
     9  H   -0.000174  -0.000000   0.000000   0.000003   0.000055   0.000000
    10  H   -0.000046   0.000000  -0.000000   0.000000  -0.000006   0.000000
    11  H    0.001157  -0.000002   0.000001  -0.000003   0.000019  -0.000005
    12  C    0.000357  -0.000001  -0.000001  -0.000009   0.000018  -0.000003
    13  C    0.000075  -0.000000  -0.000000  -0.000000  -0.000003  -0.000000
    14  C    0.001716  -0.000001   0.000000  -0.000014   0.000025  -0.000025
    15  C   -0.000004   0.000000   0.000000   0.000000   0.000001   0.000000
    16  H   -0.000000   0.000000  -0.000000   0.000000  -0.000000   0.000000
    17  C   -0.000041   0.000000  -0.000000   0.000000  -0.000016  -0.000000
    18  H   -0.000029  -0.000002  -0.000000  -0.000086   0.000004   0.000010
    19  C   -0.000032   0.000000   0.000000   0.000000   0.000002   0.000000
    20  H   -0.000000   0.000000   0.000000   0.000000   0.000000   0.000000
    21  H   -0.000014   0.000000   0.000000  -0.000000   0.000000   0.000001
    22  H    0.000000  -0.000000  -0.000000  -0.000000  -0.000000  -0.000000
    23  C    0.002379   0.000167   0.000585   0.000742   0.000275  -0.000488
    24  C    0.003002  -0.001820   0.000353   0.000041  -0.000015  -0.005283
    25  C    0.128779   0.000025   0.000007  -0.001886   0.000581  -0.005014
    26  C    0.000025  -0.065373   0.000286  -0.000073  -0.000011   0.001132
    27  H    0.000007   0.000286  -0.006300  -0.000011   0.000001  -0.000001
    28  C   -0.001886  -0.000073  -0.000011  -0.066267   0.000266   0.001063
    29  H    0.000581  -0.000011   0.000001   0.000266  -0.006241   0.000002
    30  C   -0.005014   0.001132  -0.000001   0.001063   0.000002   0.140844
    31  H   -0.000012   0.000180   0.000025   0.000007  -0.000000  -0.000316
    32  H   -0.000268   0.000007  -0.000000   0.000288   0.000018  -0.000270
    33  H    0.000019   0.000038   0.000002   0.000047   0.000002   0.000655
    34  O    0.000161   0.000001  -0.000067  -0.000000   0.000002  -0.000001
    35  H   -0.000003   0.000002  -0.000010  -0.000000  -0.000000   0.000000
              31         32         33         34         35
     1  C    0.000000   0.000000  -0.000000  -0.006395  -0.004746
     2  C   -0.000000   0.000001  -0.000000  -0.057719  -0.010573
     3  O   -0.000000  -0.000000   0.000000   0.004314   0.006972
     4  C    0.000000  -0.000000   0.000000   0.002050   0.001047
     5  H    0.000000   0.000000  -0.000000  -0.000158  -0.000116
     6  H   -0.000001   0.000000   0.000000  -0.000024  -0.000012
     7  H   -0.000001  -0.000000   0.000000   0.001529   0.000777
     8  C   -0.000000  -0.000001   0.000000  -0.000083   0.002088
     9  H   -0.000000  -0.000000   0.000000  -0.000047  -0.000004
    10  H   -0.000000  -0.000000   0.000000  -0.000769   0.001216
    11  H    0.000000   0.000000  -0.000000   0.002297  -0.000701
    12  C   -0.000000   0.000000   0.000000   0.000400   0.000363
    13  C   -0.000000  -0.000000   0.000000   0.000005   0.000021
    14  C   -0.000000  -0.000005   0.000000   0.000006   0.000005
    15  C    0.000000   0.000000  -0.000000  -0.000000   0.000000
    16  H    0.000000   0.000000  -0.000000  -0.000001  -0.000001
    17  C    0.000000  -0.000000   0.000000  -0.000000  -0.000000
    18  H    0.000000  -0.000000  -0.000000   0.000000   0.000000
    19  C    0.000000   0.000000  -0.000000  -0.000000  -0.000000
    20  H    0.000000   0.000000  -0.000000  -0.000000  -0.000000
    21  H    0.000000   0.000000  -0.000000  -0.000000  -0.000000
    22  H   -0.000000  -0.000000   0.000000   0.000000   0.000000
    23  C    0.000038   0.000003  -0.000028   0.004286   0.000770
    24  C   -0.000231  -0.000010   0.000014   0.001253   0.000045
    25  C   -0.000012  -0.000268   0.000019   0.000161  -0.000003
    26  C    0.000180   0.000007   0.000038   0.000001   0.000002
    27  H    0.000025  -0.000000   0.000002  -0.000067  -0.000010
    28  C    0.000007   0.000288   0.000047  -0.000000  -0.000000
    29  H   -0.000000   0.000018   0.000002   0.000002  -0.000000
    30  C   -0.000316  -0.000270   0.000655  -0.000001   0.000000
    31  H    0.002673  -0.000000   0.000021  -0.000000  -0.000000
    32  H   -0.000000   0.002534   0.000026  -0.000000  -0.000000
    33  H    0.000021   0.000026  -0.006691   0.000000   0.000000
    34  O   -0.000000  -0.000000   0.000000   0.117941  -0.001658
    35  H   -0.000000  -0.000000   0.000000  -0.001658   0.012101
 Mulliken charges and spin densities:
               1          2
     1  C    0.296601   0.037020
     2  C    0.209969   0.434179
     3  O   -0.583817   0.250118
     4  C   -0.344130   0.012726
     5  H    0.128156   0.006780
     6  H    0.119811  -0.002008
     7  H    0.120061   0.000024
     8  C   -0.334312  -0.009448
     9  H    0.131760   0.000603
    10  H    0.129650   0.003550
    11  H    0.132318   0.021249
    12  C    0.090640  -0.019347
    13  C   -0.119236   0.030985
    14  C   -0.125984   0.028056
    15  C   -0.101843  -0.014778
    16  H    0.104258  -0.001679
    17  C   -0.109411  -0.015821
    18  H    0.104409  -0.001067
    19  C   -0.094706   0.032543
    20  H    0.103075   0.000589
    21  H    0.104287   0.000572
    22  H    0.104594  -0.001427
    23  C    0.103616  -0.101830
    24  C   -0.112266   0.123649
    25  C   -0.116457   0.120316
    26  C   -0.101421  -0.065498
    27  H    0.115735  -0.005272
    28  C   -0.108214  -0.065865
    29  H    0.108962  -0.005079
    30  C   -0.090928   0.132445
    31  H    0.108275   0.002383
    32  H    0.109167   0.002323
    33  H    0.109448  -0.005896
    34  O   -0.531839   0.067324
    35  H    0.339772   0.007582
 Sum of Mulliken charges =  -0.00000   1.00000
 Mulliken charges and spin densities with hydrogens summed into heavy atoms:
               1          2
     1  C    0.296601   0.037020
     2  C    0.209969   0.434179
     3  O   -0.583817   0.250118
     4  C    0.023898   0.017522
     8  C    0.059415   0.015954
    12  C    0.090640  -0.019347
    13  C   -0.014978   0.029307
    14  C   -0.021576   0.026989
    15  C    0.001232  -0.014188
    17  C   -0.005124  -0.015249
    19  C    0.009888   0.031115
    23  C    0.103616  -0.101830
    24  C    0.003468   0.118377
    25  C   -0.007494   0.115236
    26  C    0.006854  -0.063116
    28  C    0.000953  -0.063542
    30  C    0.018520   0.126549
    34  O   -0.192067   0.074906
 Electronic spatial extent (au):  <R**2>=           4097.6461
 Charge=             -0.0000 electrons
 Dipole moment (field-independent basis, Debye):
    X=              1.1737    Y=              3.9520    Z=              0.5531  Tot=              4.1596
 Quadrupole moment (field-independent basis, Debye-Ang):
   XX=           -100.1449   YY=           -103.4428   ZZ=           -102.8208
   XY=             -1.6141   XZ=             -7.4302   YZ=             -1.1142
 Traceless Quadrupole moment (field-independent basis, Debye-Ang):
   XX=              1.9913   YY=             -1.3067   ZZ=             -0.6846
   XY=             -1.6141   XZ=             -7.4302   YZ=             -1.1142
 Octapole moment (field-independent basis, Debye-Ang**2):
  XXX=              5.6325  YYY=             22.2426  ZZZ=              1.9508  XYY=             10.3431
  XXY=             23.5837  XXZ=             -1.3865  XZZ=              0.6588  YZZ=            -12.1602
  YYZ=              5.3497  XYZ=              3.0482
 Hexadecapole moment (field-independent basis, Debye-Ang**3):
 XXXX=          -2933.1507 YYYY=          -1583.0651 ZZZZ=           -693.4946 XXXY=              7.5986
 XXXZ=           -143.5830 YYYX=            -24.2771 YYYZ=            -15.7679 ZZZX=              0.3953
 ZZZY=             -0.9680 XXYY=           -753.9466 XXZZ=           -654.2017 YYZZ=           -391.1395
 XXYZ=              1.5399 YYXZ=            -16.1149 ZZXY=              2.0391
 N-N= 1.322599505676D+03 E-N=-4.435418904043D+03  KE= 7.631881087954D+02
 Leave Link  601 at Fri May 24 20:23:16 2019, MaxMem=   104857600 cpu:               2.8 elap:               0.1
 (Enter /opt/software/gaussian/g16.b01/l9999.exe)
 Electronic transition elements 
                 1             2             3             4             5 
      1  -0.770339D+03 -0.770309D+03 -0.770302D+03 -0.770297D+03 -0.770290D+03
      2  -0.799595D-01 -0.595218D+00 -0.152130D+00 -0.205104D+00 -0.284055D+00
      3  -0.123953D+00  0.240800D+00  0.221176D+00 -0.318599D+00  0.349847D+00
      4  -0.109454D+00  0.936139D-02  0.826781D-01  0.134128D+00 -0.128488D+00
      5   0.375736D-02  0.560142D-01  0.183365D-01  0.223466D-01  0.323259D-01
      6   0.776931D-02 -0.218159D-01 -0.224303D-01  0.311937D-01 -0.395136D-01
      7   0.750118D-02 -0.721000D-03 -0.114372D-01 -0.157269D-01  0.148210D-01
      8  -0.169753D+00 -0.231487D+00 -0.202025D+00 -0.918523D-01 -0.109166D+00
      9  -0.537801D+00 -0.135516D-01 -0.544987D-01  0.220634D+00  0.363574D-01
     10   0.297054D+00  0.451029D+00 -0.438521D+00 -0.329885D-01  0.181785D+00
     11   0.441638D-01 -0.121810D+00 -0.869247D-01  0.292584D+00 -0.922698D-02
     12  -0.812973D-02  0.674613D-01  0.424837D-01 -0.785054D-01  0.196646D-01
     13  -0.261869D-01 -0.619334D-02  0.176021D-02 -0.496134D-01 -0.112985D-01
     14   0.399572D-02  0.317622D+00 -0.148835D-01  0.613526D-01  0.741782D-01
     15   0.270540D-02  0.243004D-01  0.643684D-02 -0.527599D-01 -0.182025D-01
     16  -0.192216D-01  0.658802D-01 -0.206185D-01  0.291884D-01 -0.214004D-01
                 6             7             8             9            10 
      1  -0.770280D+03 -0.770263D+03 -0.770261D+03 -0.770258D+03 -0.770253D+03
      2  -0.132240D+01  0.599926D+00 -0.861279D+00  0.962503D-01  0.698479D-01
      3  -0.415319D+00 -0.230373D+00 -0.482958D+00  0.301798D+00  0.337573D+00
      4  -0.286660D+00  0.176822D+00 -0.176365D+00  0.118192D+00 -0.143945D+00
      5   0.160397D+00 -0.822913D-01  0.121103D+00 -0.122476D-01 -0.103664D-01
      6   0.501057D-01  0.319070D-01  0.669585D-01 -0.482615D-01 -0.499988D-01
      7   0.362395D-01 -0.208640D-01  0.238795D-01 -0.175754D-01  0.218559D-01
      8  -0.333002D+00 -0.552442D-01 -0.114069D+00 -0.173875D+00 -0.110749D-01
      9   0.519990D-02 -0.250305D+00  0.246857D+00  0.186202D+00 -0.216529D-01
     10   0.569380D+00 -0.228518D+00  0.292847D+00 -0.487212D+00  0.823238D-02
     11   0.235271D+00  0.180982D+00  0.395913D+00  0.155681D+00 -0.267015D+00
     12  -0.528235D-01 -0.298827D-01 -0.832516D-01 -0.740926D-01  0.686964D-01
     13  -0.600231D-01 -0.637360D-01 -0.716329D-01 -0.316009D-01  0.322754D-01
     14   0.367650D+00  0.372639D-01  0.129132D+00 -0.108227D+00 -0.811918D-01
     15  -0.213577D-01 -0.123831D-01 -0.561135D-01 -0.815702D-01  0.348693D-01
     16  -0.286091D-01  0.659043D-01 -0.542417D-01 -0.339959D-01 -0.503310D-01
                11            12            13            14            15 
      1  -0.770245D+03 -0.770244D+03 -0.770240D+03 -0.770238D+03 -0.770235D+03
      2   0.695304D+00 -0.143845D+00  0.468604D-01 -0.229330D+00  0.213918D-01
      3   0.210997D+00 -0.672466D-01  0.362799D+00 -0.469083D+00 -0.123607D+00
      4   0.467911D-01 -0.114912D+00 -0.961573D-01  0.197728D-01  0.328914D-01
      5  -0.107467D+00  0.234420D-01 -0.853972D-02  0.386152D-01 -0.234465D-02
      6  -0.335222D-01  0.864693D-02 -0.596447D-01  0.777145D-01  0.207810D-01
      7  -0.823853D-02  0.173448D-01  0.168881D-01 -0.379179D-02 -0.671086D-02
      8   0.297737D-01  0.236761D+00  0.159132D+00 -0.383568D-01  0.101680D-01
      9   0.320157D+00 -0.154161D+00 -0.146142D+00  0.383770D+00 -0.250767D-01
     10   0.522574D-01  0.392668D+00 -0.218564D+00  0.206461D+00  0.435068D-01
     11  -0.916200D-01  0.581651D-01 -0.430063D+00  0.429662D+00 -0.112014D-01
     12   0.169549D+00 -0.763520D-01 -0.152078D-02 -0.432009D-01  0.390205D-01
     13  -0.117966D+00  0.269523D-01  0.189640D+00 -0.120304D+00 -0.392073D-01
     14  -0.516292D-01  0.132065D+00 -0.138557D+00  0.140907D+00  0.277768D-01
     15   0.840567D-02 -0.100562D-01  0.507737D-01 -0.488459D-01  0.217898D-01
     16   0.553998D-01  0.427663D-01 -0.558106D-01  0.393327D-01  0.201291D-01
                16            17            18 
      1  -0.770233D+03 -0.770226D+03 -0.770223D+03
      2   0.258498D-01 -0.240887D+00  0.214112D-01
      3   0.709450D-01 -0.181326D+00 -0.652958D-01
      4  -0.815117D-01 -0.804658D-01 -0.193561D-01
      5  -0.527811D-02  0.428921D-01 -0.432229D-02
      6  -0.127215D-01  0.329687D-01  0.123225D-01
      7   0.141832D-01  0.155393D-01  0.404733D-02
      8   0.298689D-01 -0.934439D-02 -0.455229D-01
      9  -0.129255D+00  0.200862D+00  0.156220D-01
     10  -0.756048D-01  0.164519D+00 -0.268908D-01
     11  -0.570544D-01  0.123746D+00 -0.500948D-02
     12   0.403200D-02 -0.805056D-02  0.257049D-01
     13   0.163939D-01 -0.139687D-01 -0.140996D-01
     14  -0.774515D-01  0.955936D-01  0.176603D-01
     15   0.806474D-02 -0.162281D-01  0.149774D-01
     16  -0.472676D-01 -0.227831D-01  0.445125D-02
 1\1\GINC-GRA751\SP\UB3LYP TD-FC\6-31G(d,p)\C16H17O2(2)\RZK\24-May-2019
 \0\\#p td=(50-50,nstates=18) ub3lyp/6-31g(d,p) scrf=(iefpcm,solvent=ac
 etonitrile) guess=(mix,always) empiricaldispersion=gd3\\Title Card Req
 uired\\0,2\C,0,-0.763142,-1.35997,-0.757662\C,0,0.694135,-1.255743,0.7
 50808\O,0,-1.197256,-2.504665,-0.417684\C,0,0.132322,-1.308659,-1.9966
 79\H,0,-0.523756,-1.414484,-2.867892\H,0,0.700853,-0.386401,-2.105503\
 H,0,0.821729,-2.152765,-1.97632\C,0,-0.168048,-1.234446,1.994739\H,0,-
 0.728176,-0.308354,2.110051\H,0,-0.876599,-2.063098,1.963481\H,0,0.487
 639,-1.359196,2.864244\C,0,-1.61984,-0.152403,-0.477849\C,0,-2.814318,
 -0.328657,0.240937\C,0,-1.284457,1.138713,-0.916667\C,0,-3.644983,0.75
 2754,0.522217\H,0,-3.073141,-1.329676,0.567152\C,0,-2.11631,2.223184,-
 0.635323\H,0,-0.366928,1.308852,-1.466637\C,0,-3.297059,2.035546,0.086
 361\H,0,-4.56536,0.59775,1.07771\H,0,-1.839302,3.215456,-0.978738\H,0,
 -3.942869,2.880763,0.305179\C,0,1.591862,-0.132905,0.473678\C,0,2.7592
 55,-0.326228,-0.29895\C,0,1.309257,1.168573,0.942429\C,0,3.607071,0.73
 7857,-0.585901\H,0,2.987034,-1.320242,-0.663704\C,0,2.159356,2.23033,0
 .648337\H,0,0.417074,1.354361,1.527229\C,0,3.311085,2.022467,-0.116712
 \H,0,4.501587,0.567788,-1.177427\H,0,1.922148,3.223795,1.01632\H,0,3.9
 71859,2.853107,-0.344977\O,0,1.255879,-2.476714,0.490634\H,0,0.500126,
 -3.0791,0.323657\\Version=ES64L-G16RevB.01\State=2-A\HF=-770.4056094\S
 2=0.763916\S2-1=0.\S2A=0.750158\RMSD=6.036e-09\PG=C01 [X(C16H17O2)]\\@


 OF ALL THE WONDERS OF THE UNIVERSE, THE GREATEST IS MAN.

                                    -- ARISTOTLE
 Job cpu time:       0 days  8 hours 39 minutes 32.8 seconds.
 Elapsed time:       0 days  0 hours 16 minutes 16.4 seconds.
 File lengths (MBytes):  RWF=   1421 Int=      0 D2E=      0 Chk=     96 Scr=      1
 Normal termination of Gaussian 16 at Fri May 24 20:23:16 2019.
