 Entering Gaussian System, Link 0=g16
 Initial command:
 /opt/software/gaussian/g16.b01/l1.exe "/localscratch/rzk.15153371.0/Gau-27283.inp" -scrdir="/localscratch/rzk.15153371.0/"
 Entering Link 1 = /opt/software/gaussian/g16.b01/l1.exe PID=     27288.
  
 Copyright (c) 1988-2017, Gaussian, Inc.  All Rights Reserved.
  
 This is part of the Gaussian(R) 16 program.  It is based on
 the Gaussian(R) 09 system (copyright 2009, Gaussian, Inc.),
 the Gaussian(R) 03 system (copyright 2003, Gaussian, Inc.),
 the Gaussian(R) 98 system (copyright 1998, Gaussian, Inc.),
 the Gaussian(R) 94 system (copyright 1995, Gaussian, Inc.),
 the Gaussian 92(TM) system (copyright 1992, Gaussian, Inc.),
 the Gaussian 90(TM) system (copyright 1990, Gaussian, Inc.),
 the Gaussian 88(TM) system (copyright 1988, Gaussian, Inc.),
 the Gaussian 86(TM) system (copyright 1986, Carnegie Mellon
 University), and the Gaussian 82(TM) system (copyright 1983,
 Carnegie Mellon University). Gaussian is a federally registered
 trademark of Gaussian, Inc.
  
 This software contains proprietary and confidential information,
 including trade secrets, belonging to Gaussian, Inc.
  
 This software is provided under written license and may be
 used, copied, transmitted, or stored only in accord with that
 written license.
  
 The following legend is applicable only to US Government
 contracts under FAR:
  
                    RESTRICTED RIGHTS LEGEND
  
 Use, reproduction and disclosure by the US Government is
 subject to restrictions as set forth in subparagraphs (a)
 and (c) of the Commercial Computer Software - Restricted
 Rights clause in FAR 52.227-19.
  
 Gaussian, Inc.
 340 Quinnipiac St., Bldg. 40, Wallingford CT 06492
  
  
 ---------------------------------------------------------------
 Warning -- This program may not be used in any manner that
 competes with the business of Gaussian, Inc. or will provide
 assistance to any competitor of Gaussian, Inc.  The licensee
 of this program is prohibited from giving any competitor of
 Gaussian, Inc. access to this program.  By using this program,
 the user acknowledges that Gaussian, Inc. is engaged in the
 business of creating and licensing software in the field of
 computational chemistry and represents and warrants to the
 licensee that it is not a competitor of Gaussian, Inc. and that
 it will not use this program in any manner prohibited above.
 ---------------------------------------------------------------
  

 Cite this work as:
 Gaussian 16, Revision B.01,
 M. J. Frisch, G. W. Trucks, H. B. Schlegel, G. E. Scuseria, 
 M. A. Robb, J. R. Cheeseman, G. Scalmani, V. Barone, 
 G. A. Petersson, H. Nakatsuji, X. Li, M. Caricato, A. V. Marenich, 
 J. Bloino, B. G. Janesko, R. Gomperts, B. Mennucci, H. P. Hratchian, 
 J. V. Ortiz, A. F. Izmaylov, J. L. Sonnenberg, D. Williams-Young, 
 F. Ding, F. Lipparini, F. Egidi, J. Goings, B. Peng, A. Petrone, 
 T. Henderson, D. Ranasinghe, V. G. Zakrzewski, J. Gao, N. Rega, 
 G. Zheng, W. Liang, M. Hada, M. Ehara, K. Toyota, R. Fukuda, 
 J. Hasegawa, M. Ishida, T. Nakajima, Y. Honda, O. Kitao, H. Nakai, 
 T. Vreven, K. Throssell, J. A. Montgomery, Jr., J. E. Peralta, 
 F. Ogliaro, M. J. Bearpark, J. J. Heyd, E. N. Brothers, K. N. Kudin, 
 V. N. Staroverov, T. A. Keith, R. Kobayashi, J. Normand, 
 K. Raghavachari, A. P. Rendell, J. C. Burant, S. S. Iyengar, 
 J. Tomasi, M. Cossi, J. M. Millam, M. Klene, C. Adamo, R. Cammi, 
 J. W. Ochterski, R. L. Martin, K. Morokuma, O. Farkas, 
 J. B. Foresman, and D. J. Fox, Gaussian, Inc., Wallingford CT, 2016.
 
 ******************************************
 Gaussian 16:  ES64L-G16RevB.01 20-Dec-2017
                25-May-2019 
 ******************************************
 %NProcShared=32
 Will use up to   32 processors via shared memory.
 %chk=AH-A_8.chk
 ----------------------------------------------------------------------
 #p td=(50-50,nstates=36) ub3lyp/6-31g(d,p) scrf=(iefpcm,solvent=aceton
 itrile) guess=(mix,always) empiricaldispersion=gd3
 ----------------------------------------------------------------------
 1/38=1,172=1/1;
 2/12=2,17=6,18=5,40=1/2;
 3/5=1,6=6,7=101,11=2,25=1,30=1,70=2201,72=2,74=-5,116=2,124=31/1,2,3,8;
 4/13=-1/1;
 5/5=2,38=5,53=2/2;
 8/6=1,10=2,108=36/1;
 9/41=36,42=1,48=2,70=2/14;
 6/7=2,8=2,9=2,10=2/1;
 99/5=1,9=1/99;
 Leave Link    1 at Sat May 25 04:20:37 2019, MaxMem=           0 cpu:               4.0 elap:               0.1
 (Enter /opt/software/gaussian/g16.b01/l101.exe)
 -------------------
 Title Card Required
 -------------------
 Symbolic Z-matrix:
 Charge =  0 Multiplicity = 2
 C                    -0.94555  -1.41073  -0.89848 
 C                     0.74421  -1.25037   0.937 
 O                    -1.34092  -2.50056  -0.44143 
 C                     0.05725  -1.41303  -2.03603 
 H                    -0.50802  -1.4059   -2.97589 
 H                     0.72791  -0.55471  -2.04071 
 H                     0.64659  -2.32843  -1.98753 
 C                    -0.24308  -1.18528   2.06431 
 H                    -0.70939  -0.20611   2.16314 
 H                    -1.03516  -1.92185   1.90623 
 H                     0.26365  -1.42733   3.00812 
 C                    -1.66517  -0.14702  -0.56483 
 C                    -2.83551  -0.22654   0.21146 
 C                    -1.22245   1.11571  -0.99443 
 C                    -3.53932   0.92302   0.55605 
 H                    -3.17487  -1.20489   0.53268 
 C                    -1.92666   2.26763  -0.64592 
 H                    -0.31856   1.20895  -1.58385 
 C                    -3.08458   2.17596   0.13 
 H                    -4.44225   0.84651   1.15442 
 H                    -1.56767   3.23745  -0.97659 
 H                    -3.63097   3.07458   0.40045 
 C                     1.61981  -0.17258   0.57498 
 C                     2.73931  -0.40278  -0.26962 
 C                     1.38025   1.15961   1.00277 
 C                     3.56388   0.64295  -0.66311 
 H                     2.93874  -1.41271  -0.60713 
 C                     2.21079   2.19827   0.59992 
 H                     0.53374   1.3799    1.64175 
 C                     3.3076    1.95214  -0.23469 
 H                     4.41388   0.44041  -1.30841 
 H                     2.00175   3.20926   0.93728 
 H                     3.95296   2.76751  -0.5464 
 O                     1.16371  -2.5026    0.59503 
 H                     0.36066  -3.03925   0.43736 
 
 ITRead=  0  0  0  0  0  0  0  0  0  0  0  0  0  0  0  0  0  0  0  0
 ITRead=  0  0  0  0  0  0  0  0  0  0  0  0  0  0  0
 MicOpt= -1 -1 -1 -1 -1 -1 -1 -1 -1 -1 -1 -1 -1 -1 -1 -1 -1 -1 -1 -1
 MicOpt= -1 -1 -1 -1 -1 -1 -1 -1 -1 -1 -1 -1 -1 -1 -1
 NAtoms=     35 NQM=       35 NQMF=       0 NMMI=      0 NMMIF=      0
                NMic=       0 NMicF=      0.
                    Isotopes and Nuclear Properties:
 (Nuclear quadrupole moments (NQMom) in fm**2, nuclear magnetic moments (NMagM)
  in nuclear magnetons)

  Atom         1           2           3           4           5           6           7           8           9          10
 IAtWgt=          12          12          16          12           1           1           1          12           1           1
 AtmWgt=  12.0000000  12.0000000  15.9949146  12.0000000   1.0078250   1.0078250   1.0078250  12.0000000   1.0078250   1.0078250
 NucSpn=           0           0           0           0           1           1           1           0           1           1
 AtZEff=  -0.0000000  -0.0000000  -0.0000000  -0.0000000  -0.0000000  -0.0000000  -0.0000000  -0.0000000  -0.0000000  -0.0000000
 NQMom=    0.0000000   0.0000000   0.0000000   0.0000000   0.0000000   0.0000000   0.0000000   0.0000000   0.0000000   0.0000000
 NMagM=    0.0000000   0.0000000   0.0000000   0.0000000   2.7928460   2.7928460   2.7928460   0.0000000   2.7928460   2.7928460
 AtZNuc=   6.0000000   6.0000000   8.0000000   6.0000000   1.0000000   1.0000000   1.0000000   6.0000000   1.0000000   1.0000000

  Atom        11          12          13          14          15          16          17          18          19          20
 IAtWgt=           1          12          12          12          12           1          12           1          12           1
 AtmWgt=   1.0078250  12.0000000  12.0000000  12.0000000  12.0000000   1.0078250  12.0000000   1.0078250  12.0000000   1.0078250
 NucSpn=           1           0           0           0           0           1           0           1           0           1
 AtZEff=  -0.0000000  -0.0000000  -0.0000000  -0.0000000  -0.0000000  -0.0000000  -0.0000000  -0.0000000  -0.0000000  -0.0000000
 NQMom=    0.0000000   0.0000000   0.0000000   0.0000000   0.0000000   0.0000000   0.0000000   0.0000000   0.0000000   0.0000000
 NMagM=    2.7928460   0.0000000   0.0000000   0.0000000   0.0000000   2.7928460   0.0000000   2.7928460   0.0000000   2.7928460
 AtZNuc=   1.0000000   6.0000000   6.0000000   6.0000000   6.0000000   1.0000000   6.0000000   1.0000000   6.0000000   1.0000000

  Atom        21          22          23          24          25          26          27          28          29          30
 IAtWgt=           1           1          12          12          12          12           1          12           1          12
 AtmWgt=   1.0078250   1.0078250  12.0000000  12.0000000  12.0000000  12.0000000   1.0078250  12.0000000   1.0078250  12.0000000
 NucSpn=           1           1           0           0           0           0           1           0           1           0
 AtZEff=  -0.0000000  -0.0000000  -0.0000000  -0.0000000  -0.0000000  -0.0000000  -0.0000000  -0.0000000  -0.0000000  -0.0000000
 NQMom=    0.0000000   0.0000000   0.0000000   0.0000000   0.0000000   0.0000000   0.0000000   0.0000000   0.0000000   0.0000000
 NMagM=    2.7928460   2.7928460   0.0000000   0.0000000   0.0000000   0.0000000   2.7928460   0.0000000   2.7928460   0.0000000
 AtZNuc=   1.0000000   1.0000000   6.0000000   6.0000000   6.0000000   6.0000000   1.0000000   6.0000000   1.0000000   6.0000000

  Atom        31          32          33          34          35
 IAtWgt=           1           1           1          16           1
 AtmWgt=   1.0078250   1.0078250   1.0078250  15.9949146   1.0078250
 NucSpn=           1           1           1           0           1
 AtZEff=  -0.0000000  -0.0000000  -0.0000000  -0.0000000  -0.0000000
 NQMom=    0.0000000   0.0000000   0.0000000   0.0000000   0.0000000
 NMagM=    2.7928460   2.7928460   2.7928460   0.0000000   2.7928460
 AtZNuc=   1.0000000   1.0000000   1.0000000   8.0000000   1.0000000
 Leave Link  101 at Sat May 25 04:20:38 2019, MaxMem=   104857600 cpu:               4.6 elap:               0.2
 (Enter /opt/software/gaussian/g16.b01/l202.exe)
                          Input orientation:                          
 ---------------------------------------------------------------------
 Center     Atomic      Atomic             Coordinates (Angstroms)
 Number     Number       Type             X           Y           Z
 ---------------------------------------------------------------------
      1          6           0       -0.945554   -1.410729   -0.898479
      2          6           0        0.744212   -1.250365    0.936998
      3          8           0       -1.340918   -2.500556   -0.441433
      4          6           0        0.057250   -1.413026   -2.036034
      5          1           0       -0.508020   -1.405900   -2.975889
      6          1           0        0.727908   -0.554714   -2.040709
      7          1           0        0.646590   -2.328429   -1.987534
      8          6           0       -0.243077   -1.185278    2.064314
      9          1           0       -0.709388   -0.206110    2.163137
     10          1           0       -1.035163   -1.921846    1.906233
     11          1           0        0.263651   -1.427325    3.008115
     12          6           0       -1.665174   -0.147024   -0.564832
     13          6           0       -2.835505   -0.226542    0.211456
     14          6           0       -1.222451    1.115707   -0.994427
     15          6           0       -3.539315    0.923020    0.556053
     16          1           0       -3.174872   -1.204891    0.532681
     17          6           0       -1.926664    2.267634   -0.645923
     18          1           0       -0.318562    1.208953   -1.583845
     19          6           0       -3.084577    2.175963    0.130003
     20          1           0       -4.442247    0.846513    1.154416
     21          1           0       -1.567672    3.237448   -0.976592
     22          1           0       -3.630972    3.074580    0.400449
     23          6           0        1.619807   -0.172576    0.574983
     24          6           0        2.739312   -0.402780   -0.269615
     25          6           0        1.380251    1.159607    1.002769
     26          6           0        3.563875    0.642950   -0.663107
     27          1           0        2.938736   -1.412707   -0.607126
     28          6           0        2.210794    2.198274    0.599923
     29          1           0        0.533744    1.379899    1.641753
     30          6           0        3.307604    1.952144   -0.234691
     31          1           0        4.413884    0.440413   -1.308408
     32          1           0        2.001748    3.209258    0.937281
     33          1           0        3.952955    2.767505   -0.546401
     34          8           0        1.163706   -2.502604    0.595026
     35          1           0        0.360659   -3.039247    0.437362
 ---------------------------------------------------------------------
                    Distance matrix (angstroms):
                    1          2          3          4          5
     1  C    0.000000
     2  C    2.500000   0.000000
     3  O    1.246165   2.794784   0.000000
     4  C    1.516461   3.055699   2.383348   0.000000
     5  H    2.122991   4.111321   2.883654   1.096772   0.000000
     6  H    2.199529   3.057930   3.259452   1.089267   1.768219
     7  H    2.136150   3.118435   2.523934   1.089787   1.777928
     8  C    3.053268   1.499939   3.035454   4.117635   5.051981
     9  H    3.298541   2.169525   3.528044   4.435923   5.281064
    10  H    2.852311   2.134591   2.437197   4.122346   4.937529
    11  H    4.089490   2.133490   3.952954   5.048390   6.033593
    12  C    1.492020   3.045980   2.378967   2.594984   2.955837
    13  C    2.491218   3.793283   2.798427   3.850583   4.119131
    14  C    2.543375   3.632694   3.660218   3.019449   3.285591
    15  C    3.780165   4.818436   4.189129   5.011118   5.204540
    16  H    2.657150   3.940147   2.447659   4.133791   4.411640
    17  C    3.815326   4.692071   4.808383   4.406312   4.575603
    18  H    2.779493   3.678639   4.013823   2.687096   2.968356
    19  C    4.300878   5.201018   5.023616   5.238667   5.395827
    20  H    4.640731   5.598529   4.834030   5.960701   6.132775
    21  H    4.690275   5.398805   5.767365   5.038819   5.165339
    22  H    5.386713   6.175376   6.085660   6.299051   6.420840
    23  C    3.207053   1.435044   3.901088   3.285987   4.319424
    24  C    3.871649   2.480875   4.591129   3.366644   4.344575
    25  C    3.953573   2.493358   4.784065   4.195604   5.096775
    26  C    4.960640   3.754394   5.829903   4.290499   5.111465
    27  H    3.895202   2.688235   4.418858   3.216324   4.182250
    28  C    5.023211   3.762658   5.981478   4.962611   5.759206
    29  H    4.053234   2.731166   4.786643   4.642585   5.492592
    30  C    5.462498   4.266134   6.440344   5.013383   5.774912
    31  H    5.684923   4.622453   6.520636   4.790087   5.514935
    32  H    5.779350   4.633534   6.758420   5.829853   6.550688
    33  H    6.448022   5.351615   7.469175   5.905283   6.574193
    34  O    2.805660   1.364193   2.710607   3.055144   4.092537
    35  H    2.478454   1.896536   1.989430   2.975624   3.882359
                    6          7          8          9         10
     6  H    0.000000
     7  H    1.776374   0.000000
     8  C    4.265165   4.302996   0.000000
     9  H    4.456418   4.854996   1.089028   0.000000
    10  H    4.533853   4.260871   1.093125   1.765185   0.000000
    11  H    5.144668   5.090691   1.098235   1.775432   1.773588
    12  C    2.840997   3.482364   3.164291   2.891165   3.106939
    13  C    4.228221   4.623686   3.327603   2.886148   2.997925
    14  C    2.772889   4.042480   3.950899   3.461307   4.204240
    15  C    5.209229   5.879078   4.193442   3.444726   4.023310
    16  H    4.719826   4.713533   3.307825   3.120026   2.641784
    17  C    4.117988   5.435564   4.701324   3.935986   4.985982
    18  H    2.101034   3.688842   4.364299   4.024304   4.743002
    19  C    5.167555   6.220540   4.807663   3.930576   4.913973
    20  H    6.237208   6.771142   4.752801   4.007464   4.453904
    21  H    4.558785   6.074862   5.528306   4.738422   5.934017
    22  H    6.175019   7.293319   5.691456   4.733461   5.828369
    23  C    2.789867   3.487312   2.591140   2.819310   3.446888
    24  C    2.684326   3.322477   3.867062   4.224984   4.613950
    25  C    3.553478   4.652587   3.043116   2.752858   4.018187
    26  C    3.372669   4.369640   5.027338   5.193201   5.859252
    27  H    2.771114   2.828075   4.160799   4.736987   4.729489
    28  C    4.092778   5.443593   4.428809   4.092941   5.405374
    29  H    4.164247   5.190005   2.713327   2.081500   3.665097
    30  C    4.025030   5.336362   5.266515   5.152074   6.200885
    31  H    3.887539   4.724426   5.975400   6.222341   6.753243
    32  H    4.965740   6.407572   5.061758   4.529649   6.040689
    33  H    4.865288   6.243193   6.328271   6.158037   7.272328
    34  O    3.306251   2.639576   2.423467   3.352810   2.625180
    35  H    3.528259   2.543057   2.539423   3.485680   2.313976
                   11         12         13         14         15
    11  H    0.000000
    12  C    4.257404   0.000000
    13  C    4.343725   1.406635   0.000000
    14  C    4.969492   1.405363   2.420275   0.000000
    15  C    5.098949   2.431827   1.391254   2.794454   0.000000
    16  H    4.242722   2.145415   1.084215   3.395465   2.159021
    17  C    5.639344   2.430129   2.789624   1.394384   2.419375
    18  H    5.326822   2.165739   3.408629   1.083108   3.877392
    19  C    5.698934   2.809585   2.416754   2.419917   1.399347
    20  H    5.545450   3.413951   2.149940   3.880345   1.085900
    21  H    6.402479   3.410822   3.875317   2.149716   3.404843
    22  H    6.498858   3.895492   3.400866   3.403503   2.159126
    23  C    3.055108   3.477202   4.470444   3.493015   5.274204
    24  C    4.233451   4.421771   5.598310   4.304268   6.469979
    25  C    3.458385   3.665961   4.507791   3.280972   4.945468
    26  C    5.353073   5.289298   6.517127   4.821015   7.212496
    27  H    4.497362   4.774906   5.951380   4.884502   6.983821
    28  C    4.768199   4.677628   5.612109   3.937140   5.889987
    29  H    3.133752   3.469258   3.997279   3.178595   4.239964
    30  C    5.585898   5.407774   6.533262   4.668857   6.968836
    31  H    6.272579   6.152474   7.436966   5.685321   8.183062
    32  H    5.367237   5.193004   5.977505   4.302315   6.006297
    33  H    6.621340   6.329154   7.458006   5.451054   7.794334
    34  O    2.790936   3.859610   4.617496   4.616523   5.818490
    35  H    3.035865   3.670606   4.263544   4.671178   5.560885
                   16         17         18         19         20
    16  H    0.000000
    17  C    3.873701   0.000000
    18  H    4.297072   2.141610   0.000000
    19  C    3.405947   1.396863   3.394587   0.000000
    20  H    2.490191   3.404257   4.963287   2.158733   0.000000
    21  H    4.959372   1.085706   2.458419   2.156920   4.303597
    22  H    4.305739   2.156553   4.288362   1.085910   2.488155
    23  C    4.904733   4.474672   3.213477   5.276824   6.174365
    24  C    6.022012   5.389253   3.698037   6.381794   7.427206
    25  C    5.153734   3.857667   3.094992   4.661479   5.832882
    26  C    7.089086   5.725898   4.030066   6.868848   8.212358
    27  H    6.222423   6.100699   4.293841   7.049980   7.917450
    28  C    6.371142   4.321516   3.485002   5.316228   6.811584
    29  H    4.654569   3.474931   3.340678   4.001419   5.028169
    30  C    7.251084   5.259868   3.939750   6.406487   7.950612
    31  H    7.980342   6.631755   4.802350   7.829947   9.201167
    32  H    6.815116   4.338849   3.967510   5.252628   6.866934
    33  H    8.231055   5.901669   4.663822   7.094667   8.778520
    34  O    4.528930   5.817690   4.551950   6.336651   6.554099
    35  H    3.984210   5.879485   4.753296   6.257998   6.219421
                   21         22         23         24         25
    21  H    0.000000
    22  H    2.485956   0.000000
    23  C    4.918910   6.176177   0.000000
    24  C    5.683413   7.288452   1.421137   0.000000
    25  C    4.114067   5.398358   1.419542   2.430445   0.000000
    26  C    5.758686   7.668755   2.444862   1.388629   2.794690
    27  H    6.485997   8.019477   2.162147   1.083345   3.411369
    28  C    4.223990   5.910493   2.443526   2.793011   1.389574
    29  H    3.836948   4.664508   2.174330   3.419913   1.083237
    30  C    5.096149   7.057415   2.831725   2.422776   2.423657
    31  H    6.611544   8.635898   3.424877   2.143422   3.880942
    32  H    4.050242   5.659846   3.422563   3.879100   2.142806
    33  H    5.557269   7.648972   3.917290   3.405914   3.406475
    34  O    6.548176   7.357430   2.374334   2.763946   3.691197
    35  H    6.716742   7.301600   3.134038   3.620603   4.357709
                   26         27         28         29         30
    26  C    0.000000
    27  H    2.149339   0.000000
    28  C    2.417665   3.876345   0.000000
    29  H    3.877779   4.317417   2.137205   0.000000
    30  C    1.401144   3.405436   1.400055   3.397470   0.000000
    31  H    1.086255   2.470205   3.403734   4.964028   2.159179
    32  H    3.404030   4.962429   1.086094   2.449055   2.158498
    33  H    2.163039   4.301918   2.161760   4.290043   1.085566
    34  O    4.151894   2.404948   4.816085   4.070174   5.012934
    35  H    5.003019   3.222277   5.557072   4.583598   5.835248
                   31         32         33         34         35
    31  H    0.000000
    32  H    4.304419   0.000000
    33  H    2.491680   2.490716   0.000000
    34  O    4.779965   5.783150   6.070981   0.000000
    35  H    5.619998   6.479730   6.898605   0.978636   0.000000
 Stoichiometry    C16H17O2(2)
 Framework group  C1[X(C16H17O2)]
 Deg. of freedom    99
 Full point group                 C1      NOp   1
 Largest Abelian subgroup         C1      NOp   1
 Largest concise Abelian subgroup C1      NOp   1
                         Standard orientation:                         
 ---------------------------------------------------------------------
 Center     Atomic      Atomic             Coordinates (Angstroms)
 Number     Number       Type             X           Y           Z
 ---------------------------------------------------------------------
      1          6           0       -0.945554   -1.410729   -0.898479
      2          6           0        0.744212   -1.250365    0.936998
      3          8           0       -1.340918   -2.500556   -0.441433
      4          6           0        0.057250   -1.413026   -2.036034
      5          1           0       -0.508020   -1.405900   -2.975889
      6          1           0        0.727908   -0.554714   -2.040709
      7          1           0        0.646590   -2.328429   -1.987534
      8          6           0       -0.243077   -1.185278    2.064314
      9          1           0       -0.709388   -0.206110    2.163137
     10          1           0       -1.035163   -1.921846    1.906233
     11          1           0        0.263651   -1.427325    3.008115
     12          6           0       -1.665174   -0.147024   -0.564832
     13          6           0       -2.835505   -0.226542    0.211456
     14          6           0       -1.222451    1.115707   -0.994427
     15          6           0       -3.539315    0.923020    0.556053
     16          1           0       -3.174872   -1.204891    0.532681
     17          6           0       -1.926664    2.267634   -0.645923
     18          1           0       -0.318562    1.208953   -1.583845
     19          6           0       -3.084577    2.175963    0.130003
     20          1           0       -4.442247    0.846513    1.154416
     21          1           0       -1.567672    3.237448   -0.976592
     22          1           0       -3.630972    3.074580    0.400449
     23          6           0        1.619807   -0.172576    0.574983
     24          6           0        2.739312   -0.402780   -0.269615
     25          6           0        1.380251    1.159607    1.002769
     26          6           0        3.563875    0.642950   -0.663107
     27          1           0        2.938736   -1.412707   -0.607126
     28          6           0        2.210794    2.198274    0.599923
     29          1           0        0.533744    1.379899    1.641753
     30          6           0        3.307604    1.952144   -0.234691
     31          1           0        4.413884    0.440413   -1.308408
     32          1           0        2.001748    3.209258    0.937281
     33          1           0        3.952955    2.767505   -0.546401
     34          8           0        1.163706   -2.502604    0.595026
     35          1           0        0.360659   -3.039247    0.437362
 ---------------------------------------------------------------------
 Rotational constants (GHZ):           0.5930876           0.3778213           0.2914804
 Leave Link  202 at Sat May 25 04:20:38 2019, MaxMem=   104857600 cpu:               0.8 elap:               0.1
 (Enter /opt/software/gaussian/g16.b01/l301.exe)
 Standard basis: 6-31G(d,p) (6D, 7F)
 Ernie: Thresh=  0.10000D-02 Tol=  0.10000D-05 Strict=F.
 There are   355 symmetry adapted cartesian basis functions of A   symmetry.
 There are   355 symmetry adapted basis functions of A   symmetry.
   355 basis functions,   623 primitive gaussians,   355 cartesian basis functions
    65 alpha electrons       64 beta electrons
       nuclear repulsion energy      1313.7857696324 Hartrees.
 IExCor=  402 DFT=T Ex+Corr=B3LYP ExCW=0 ScaHFX=  0.200000
 ScaDFX=  0.800000  0.720000  1.000000  0.810000 ScalE2=  1.000000  1.000000
 IRadAn=      5 IRanWt=     -1 IRanGd=            0 ICorTp=0 IEmpDi=131
 NAtoms=   35 NActive=   35 NUniq=   35 SFac= 1.00D+00 NAtFMM=   60 NAOKFM=F Big=F
 Integral buffers will be    131072 words long.
 Raffenetti 2 integral format.
 Two-electron integral symmetry is turned on.
 R6Disp:  Grimme-D3 Dispersion energy=       -0.0423435025 Hartrees.
 Nuclear repulsion after empirical dispersion term =     1313.7434261300 Hartrees.
 ------------------------------------------------------------------------------
 Polarizable Continuum Model (PCM)
 =================================
 Model                : PCM.
 Atomic radii         : UFF (Universal Force Field).
 Polarization charges : Total charges.
 Charge compensation  : None.
 Solution method      : On-the-fly selection.
 Cavity type          : Scaled VdW (van der Waals Surface) (Alpha=1.100).
 Cavity algorithm     : GePol (No added spheres)
                        Default sphere list used, NSphG=   35.
                        Lebedev-Laikov grids with approx.  5.0 points / Ang**2.
                        Smoothing algorithm: York/Karplus (Gamma=1.0000).
                        Polarization charges: spherical gaussians, with
                                              point-specific exponents (IZeta= 3).
                        Self-potential: point-specific (ISelfS= 7).
                        Self-field    : sphere-specific E.n sum rule (ISelfD= 2).
 Solvent              : Acetonitrile, Eps=  35.688000 Eps(inf)=   1.806874
 ------------------------------------------------------------------------------
 GePol: Number of generator spheres                  =      35
 GePol: Total number of spheres                      =      35
 GePol: Number of exposed spheres                    =      35 (100.00%)
 GePol: Number of points                             =    2401
 GePol: Average weight of points                     =       0.13
 GePol: Minimum weight of points                     =   0.21D-10
 GePol: Maximum weight of points                     =    0.20577
 GePol: Number of points with low weight             =     182
 GePol: Fraction of low-weight points (<1% of avg)   =       7.58%
 GePol: Cavity surface area                          =    310.830 Ang**2
 GePol: Cavity volume                                =    355.694 Ang**3
 Leave Link  301 at Sat May 25 04:20:38 2019, MaxMem=   104857600 cpu:               4.6 elap:               0.2
 (Enter /opt/software/gaussian/g16.b01/l302.exe)
 NPDir=0 NMtPBC=     1 NCelOv=     1 NCel=       1 NClECP=     1 NCelD=      1
         NCelK=      1 NCelE2=     1 NClLst=     1 CellRange=     0.0.
 One-electron integrals computed using PRISM.
 One-electron integral symmetry used in STVInt
 PrsmSu:  requested number of processors reduced to:  28 ShMem   1 Linda.
 NBasis=   355 RedAO= T EigKep=  4.58D-04  NBF=   355
 NBsUse=   355 1.00D-06 EigRej= -1.00D+00 NBFU=   355
 Precomputing XC quadrature grid using
 IXCGrd= 4 IRadAn=           5 IRanWt=          -1 IRanGd=           0 AccXCQ= 0.00D+00.
 Generated NRdTot=       0 NPtTot=           0 NUsed=           0 NTot=          32
 NSgBfM=   354   354   354   354   354 MxSgAt=    35 MxSgA2=    35.
 Leave Link  302 at Sat May 25 04:20:39 2019, MaxMem=   104857600 cpu:              14.9 elap:               0.5
 (Enter /opt/software/gaussian/g16.b01/l303.exe)
 DipDrv:  MaxL=1.
 Leave Link  303 at Sat May 25 04:20:39 2019, MaxMem=   104857600 cpu:               2.6 elap:               0.1
 (Enter /opt/software/gaussian/g16.b01/l308.exe)
 Leave Link  308 at Sat May 25 04:20:39 2019, MaxMem=   104857600 cpu:               1.5 elap:               0.1
 (Enter /opt/software/gaussian/g16.b01/l401.exe)
 ExpMin= 1.61D-01 ExpMax= 5.48D+03 ExpMxC= 8.25D+02 IAcc=3 IRadAn=         5 AccDes= 0.00D+00
 Harris functional with IExCor=  402 and IRadAn=       5 diagonalized for initial guess.
 HarFok:  IExCor=  402 AccDes= 0.00D+00 IRadAn=         5 IDoV= 1 UseB2=F ITyADJ=14
 ICtDFT=  3500011 ScaDFX=  1.000000  1.000000  1.000000  1.000000
 FoFCou: FMM=F IPFlag=           0 FMFlag=      100000 FMFlg1=           0
         NFxFlg=           0 DoJE=T BraDBF=F KetDBF=T FulRan=T
         wScrn=  0.000000 ICntrl=       500 IOpCl=  0 I1Cent=   200000004 NGrid=           0
         NMat0=    1 NMatS0=      1 NMatT0=    0 NMatD0=    1 NMtDS0=    0 NMtDT0=    0
 Petite list used in FoFCou.
 Harris En= -770.470587481944    
 JPrj=0 DoOrth=F DoCkMO=T.
 Mixing orbitals, IMix= 1 IMixAn=  0 NRI=1 NE=   65 Coef=  7.07106781D-01  7.07106781D-01
 Mixing orbitals, IMix= 1 IMixAn=  0 NRI=1 NE=   64 Coef= -7.07106781D-01  7.07106781D-01
 Initial guess <Sx>= 0.0000 <Sy>= 0.0000 <Sz>= 0.5000 <S**2>= 1.0000 S= 0.6180
 Leave Link  401 at Sat May 25 04:20:41 2019, MaxMem=   104857600 cpu:              28.3 elap:               0.9
 (Enter /opt/software/gaussian/g16.b01/l502.exe)
 Integral symmetry usage will be decided dynamically.
 UHF open shell SCF:
 Using DIIS extrapolation, IDIIS=  1040.
 NGot=   104857600 LenX=   104590331 LenY=   104463865
 Requested convergence on RMS density matrix=1.00D-08 within 128 cycles.
 Requested convergence on MAX density matrix=1.00D-06.
 Requested convergence on             energy=1.00D-06.
 No special actions if energy rises.
 Fock matrices will be formed incrementally for  20 cycles.

 Cycle   1  Pass 1  IDiag  1:
 FoFJK:  IHMeth= 1 ICntrl=       0 DoSepK=F KAlg= 0 I1Cent=           0 FoldK=F
 IRaf= 840000000 NMat=       1 IRICut=       1 DoRegI=T DoRafI=F ISym2E= 0 IDoP0=0 IntGTp=1.
 FoFCou: FMM=F IPFlag=           0 FMFlag=      100000 FMFlg1=           0
         NFxFlg=           0 DoJE=F BraDBF=F KetDBF=F FulRan=T
         wScrn=  0.000000 ICntrl=         0 IOpCl=  1 I1Cent=           0 NGrid=           0
         NMat0=    1 NMatS0=      1 NMatT0=    0 NMatD0=    1 NMtDS0=    0 NMtDT0=    0
 Symmetry not used in FoFCou.
 Inv3:  Mode=1 IEnd=    17294403.
 Iteration    1 A*A^-1 deviation from unit magnitude is 3.77D-15 for     75.
 Iteration    1 A*A^-1 deviation from orthogonality  is 2.11D-15 for   2296    697.
 Iteration    1 A^-1*A deviation from unit magnitude is 3.55D-15 for     75.
 Iteration    1 A^-1*A deviation from orthogonality  is 1.28D-14 for   1984   1963.
 E= -769.867309988812    
 DIIS: error= 2.65D-02 at cycle   1 NSaved=   1.
 NSaved= 1 IEnMin= 1 EnMin= -769.867309988812     IErMin= 1 ErrMin= 2.65D-02
 ErrMax= 2.65D-02  0.00D+00 EMaxC= 1.00D-01 BMatC= 1.82D+00 BMatP= 1.82D+00
 IDIUse=3 WtCom= 7.35D-01 WtEn= 2.65D-01
 Coeff-Com:  0.100D+01
 Coeff-En:   0.100D+01
 Coeff:      0.100D+01
 Gap=     0.004 Goal=   None    Shift=    0.000
 Gap=    -0.002 Goal=   None    Shift=    0.000
 GapD=   -0.002 DampG=0.250 DampE=0.500 DampFc=0.2500 IDamp=-1.
 Damping current iteration by 2.50D-01
 RMSDP=4.55D-03 MaxDP=1.66D-01              OVMax= 5.98D-01

 Cycle   2  Pass 1  IDiag  1:
 RMSU=  1.11D-03    CP:  9.86D-01
 E= -770.050090680791     Delta-E=       -0.182780691978 Rises=F Damp=T
 DIIS: error= 1.46D-02 at cycle   2 NSaved=   2.
 NSaved= 2 IEnMin= 2 EnMin= -770.050090680791     IErMin= 2 ErrMin= 1.46D-02
 ErrMax= 1.46D-02  0.00D+00 EMaxC= 1.00D-01 BMatC= 4.83D-01 BMatP= 1.82D+00
 IDIUse=3 WtCom= 8.54D-01 WtEn= 1.46D-01
 Coeff-Com: -0.828D+00 0.183D+01
 Coeff-En:   0.000D+00 0.100D+01
 Coeff:     -0.708D+00 0.171D+01
 Gap=     0.092 Goal=   None    Shift=    0.000
 Gap=     0.127 Goal=   None    Shift=    0.000
 RMSDP=2.07D-03 MaxDP=4.87D-02 DE=-1.83D-01 OVMax= 1.81D-01

 Cycle   3  Pass 1  IDiag  1:
 RMSU=  1.46D-03    CP:  9.57D-01  2.25D+00
 E= -770.384491603966     Delta-E=       -0.334400923176 Rises=F Damp=F
 DIIS: error= 7.82D-03 at cycle   3 NSaved=   3.
 NSaved= 3 IEnMin= 3 EnMin= -770.384491603966     IErMin= 3 ErrMin= 7.82D-03
 ErrMax= 7.82D-03  0.00D+00 EMaxC= 1.00D-01 BMatC= 1.53D-01 BMatP= 4.83D-01
 IDIUse=3 WtCom= 9.22D-01 WtEn= 7.82D-02
 Coeff-Com: -0.461D+00 0.975D+00 0.486D+00
 Coeff-En:   0.000D+00 0.000D+00 0.100D+01
 Coeff:     -0.425D+00 0.898D+00 0.527D+00
 Gap=     0.107 Goal=   None    Shift=    0.000
 Gap=     0.136 Goal=   None    Shift=    0.000
 RMSDP=8.67D-04 MaxDP=4.28D-02 DE=-3.34D-01 OVMax= 9.40D-02

 Cycle   4  Pass 1  IDiag  1:
 RMSU=  7.53D-04    CP:  9.60D-01  2.29D+00  7.11D-01
 E= -770.413003597148     Delta-E=       -0.028511993181 Rises=F Damp=F
 DIIS: error= 4.00D-03 at cycle   4 NSaved=   4.
 NSaved= 4 IEnMin= 4 EnMin= -770.413003597148     IErMin= 4 ErrMin= 4.00D-03
 ErrMax= 4.00D-03  0.00D+00 EMaxC= 1.00D-01 BMatC= 3.89D-02 BMatP= 1.53D-01
 IDIUse=3 WtCom= 9.60D-01 WtEn= 4.00D-02
 Coeff-Com: -0.481D-01 0.116D+00 0.329D+00 0.603D+00
 Coeff-En:   0.000D+00 0.000D+00 0.213D+00 0.787D+00
 Coeff:     -0.461D-01 0.111D+00 0.325D+00 0.611D+00
 Gap=     0.110 Goal=   None    Shift=    0.000
 Gap=     0.153 Goal=   None    Shift=    0.000
 RMSDP=3.54D-04 MaxDP=1.90D-02 DE=-2.85D-02 OVMax= 4.10D-02

 Cycle   5  Pass 1  IDiag  1:
 RMSU=  2.13D-04    CP:  9.59D-01  2.28D+00  8.40D-01  7.22D-01
 E= -770.421944863431     Delta-E=       -0.008941266283 Rises=F Damp=F
 DIIS: error= 8.13D-04 at cycle   5 NSaved=   5.
 NSaved= 5 IEnMin= 5 EnMin= -770.421944863431     IErMin= 5 ErrMin= 8.13D-04
 ErrMax= 8.13D-04  0.00D+00 EMaxC= 1.00D-01 BMatC= 2.04D-03 BMatP= 3.89D-02
 IDIUse=3 WtCom= 9.92D-01 WtEn= 8.13D-03
 Coeff-Com:  0.503D-02-0.398D-02 0.119D+00 0.295D+00 0.585D+00
 Coeff-En:   0.000D+00 0.000D+00 0.000D+00 0.000D+00 0.100D+01
 Coeff:      0.499D-02-0.395D-02 0.118D+00 0.292D+00 0.589D+00
 Gap=     0.113 Goal=   None    Shift=    0.000
 Gap=     0.154 Goal=   None    Shift=    0.000
 RMSDP=9.47D-05 MaxDP=4.11D-03 DE=-8.94D-03 OVMax= 1.04D-02

 Cycle   6  Pass 1  IDiag  1:
 RMSU=  8.43D-05    CP:  9.58D-01  2.29D+00  8.44D-01  7.71D-01  9.09D-01
 E= -770.422520888978     Delta-E=       -0.000576025548 Rises=F Damp=F
 DIIS: error= 4.55D-04 at cycle   6 NSaved=   6.
 NSaved= 6 IEnMin= 6 EnMin= -770.422520888978     IErMin= 6 ErrMin= 4.55D-04
 ErrMax= 4.55D-04  0.00D+00 EMaxC= 1.00D-01 BMatC= 3.76D-04 BMatP= 2.04D-03
 IDIUse=3 WtCom= 9.95D-01 WtEn= 4.55D-03
 Coeff-Com:  0.105D-01-0.208D-01-0.721D-02 0.175D-01 0.289D+00 0.711D+00
 Coeff-En:   0.000D+00 0.000D+00 0.000D+00 0.000D+00 0.000D+00 0.100D+01
 Coeff:      0.104D-01-0.207D-01-0.718D-02 0.174D-01 0.288D+00 0.712D+00
 Gap=     0.115 Goal=   None    Shift=    0.000
 Gap=     0.154 Goal=   None    Shift=    0.000
 RMSDP=5.25D-05 MaxDP=3.35D-03 DE=-5.76D-04 OVMax= 9.60D-03

 Cycle   7  Pass 1  IDiag  1:
 RMSU=  3.59D-05    CP:  9.58D-01  2.30D+00  8.48D-01  7.93D-01  1.07D+00
                    CP:  9.55D-01
 E= -770.422695862070     Delta-E=       -0.000174973092 Rises=F Damp=F
 DIIS: error= 2.45D-04 at cycle   7 NSaved=   7.
 NSaved= 7 IEnMin= 7 EnMin= -770.422695862070     IErMin= 7 ErrMin= 2.45D-04
 ErrMax= 2.45D-04  0.00D+00 EMaxC= 1.00D-01 BMatC= 6.22D-05 BMatP= 3.76D-04
 IDIUse=3 WtCom= 9.98D-01 WtEn= 2.45D-03
 Coeff-Com: -0.108D-03-0.416D-03-0.242D-01-0.590D-01-0.528D-01 0.229D+00
 Coeff-Com:  0.908D+00
 Coeff-En:   0.000D+00 0.000D+00 0.000D+00 0.000D+00 0.000D+00 0.000D+00
 Coeff-En:   0.100D+01
 Coeff:     -0.108D-03-0.415D-03-0.241D-01-0.588D-01-0.527D-01 0.228D+00
 Coeff:      0.908D+00
 Gap=     0.115 Goal=   None    Shift=    0.000
 Gap=     0.155 Goal=   None    Shift=    0.000
 RMSDP=2.95D-05 MaxDP=1.66D-03 DE=-1.75D-04 OVMax= 4.26D-03

 Cycle   8  Pass 1  IDiag  1:
 RMSU=  1.93D-05    CP:  9.58D-01  2.30D+00  8.51D-01  8.00D-01  1.13D+00
                    CP:  1.15D+00  1.11D+00
 E= -770.422741868713     Delta-E=       -0.000046006643 Rises=F Damp=F
 DIIS: error= 1.15D-04 at cycle   8 NSaved=   8.
 NSaved= 8 IEnMin= 8 EnMin= -770.422741868713     IErMin= 8 ErrMin= 1.15D-04
 ErrMax= 1.15D-04  0.00D+00 EMaxC= 1.00D-01 BMatC= 2.13D-05 BMatP= 6.22D-05
 IDIUse=3 WtCom= 9.99D-01 WtEn= 1.15D-03
 Coeff-Com: -0.168D-02 0.301D-02-0.115D-01-0.356D-01-0.829D-01-0.255D-01
 Coeff-Com:  0.473D+00 0.682D+00
 Coeff-En:   0.000D+00 0.000D+00 0.000D+00 0.000D+00 0.000D+00 0.000D+00
 Coeff-En:   0.000D+00 0.100D+01
 Coeff:     -0.168D-02 0.301D-02-0.114D-01-0.356D-01-0.829D-01-0.254D-01
 Coeff:      0.472D+00 0.682D+00
 Gap=     0.115 Goal=   None    Shift=    0.000
 Gap=     0.155 Goal=   None    Shift=    0.000
 RMSDP=1.40D-05 MaxDP=9.12D-04 DE=-4.60D-05 OVMax= 2.24D-03

 Cycle   9  Pass 1  IDiag  1:
 RMSU=  1.02D-05    CP:  9.58D-01  2.30D+00  8.51D-01  8.01D-01  1.14D+00
                    CP:  1.20D+00  1.33D+00  9.82D-01
 E= -770.422755194588     Delta-E=       -0.000013325875 Rises=F Damp=F
 DIIS: error= 7.60D-05 at cycle   9 NSaved=   9.
 NSaved= 9 IEnMin= 9 EnMin= -770.422755194588     IErMin= 9 ErrMin= 7.60D-05
 ErrMax= 7.60D-05  0.00D+00 EMaxC= 1.00D-01 BMatC= 4.11D-06 BMatP= 2.13D-05
 IDIUse=1 WtCom= 1.00D+00 WtEn= 0.00D+00
 Coeff-Com: -0.522D-03 0.110D-02 0.257D-02 0.297D-02-0.107D-01-0.677D-01
 Coeff-Com: -0.622D-01 0.251D+00 0.883D+00
 Coeff:     -0.522D-03 0.110D-02 0.257D-02 0.297D-02-0.107D-01-0.677D-01
 Coeff:     -0.622D-01 0.251D+00 0.883D+00
 Gap=     0.115 Goal=   None    Shift=    0.000
 Gap=     0.155 Goal=   None    Shift=    0.000
 RMSDP=8.29D-06 MaxDP=4.86D-04 DE=-1.33D-05 OVMax= 1.40D-03

 Cycle  10  Pass 1  IDiag  1:
 RMSU=  4.72D-06    CP:  9.58D-01  2.30D+00  8.51D-01  8.00D-01  1.15D+00
                    CP:  1.22D+00  1.41D+00  1.26D+00  1.25D+00
 E= -770.422759173493     Delta-E=       -0.000003978904 Rises=F Damp=F
 DIIS: error= 4.26D-05 at cycle  10 NSaved=  10.
 NSaved=10 IEnMin=10 EnMin= -770.422759173493     IErMin=10 ErrMin= 4.26D-05
 ErrMax= 4.26D-05  0.00D+00 EMaxC= 1.00D-01 BMatC= 1.69D-06 BMatP= 4.11D-06
 IDIUse=1 WtCom= 1.00D+00 WtEn= 0.00D+00
 Coeff-Com:  0.123D-03-0.984D-04 0.537D-02 0.132D-01 0.201D-01-0.358D-01
 Coeff-Com: -0.191D+00-0.493D-01 0.512D+00 0.725D+00
 Coeff:      0.123D-03-0.984D-04 0.537D-02 0.132D-01 0.201D-01-0.358D-01
 Coeff:     -0.191D+00-0.493D-01 0.512D+00 0.725D+00
 Gap=     0.115 Goal=   None    Shift=    0.000
 Gap=     0.155 Goal=   None    Shift=    0.000
 RMSDP=5.23D-06 MaxDP=3.17D-04 DE=-3.98D-06 OVMax= 8.67D-04

 Cycle  11  Pass 1  IDiag  1:
 RMSU=  2.22D-06    CP:  9.58D-01  2.29D+00  8.51D-01  7.99D-01  1.14D+00
                    CP:  1.22D+00  1.45D+00  1.39D+00  1.59D+00  1.04D+00
 E= -770.422760648749     Delta-E=       -0.000001475256 Rises=F Damp=F
 DIIS: error= 1.82D-05 at cycle  11 NSaved=  11.
 NSaved=11 IEnMin=11 EnMin= -770.422760648749     IErMin=11 ErrMin= 1.82D-05
 ErrMax= 1.82D-05  0.00D+00 EMaxC= 1.00D-01 BMatC= 2.85D-07 BMatP= 1.69D-06
 IDIUse=1 WtCom= 1.00D+00 WtEn= 0.00D+00
 Coeff-Com:  0.214D-03-0.418D-03 0.943D-03 0.319D-02 0.853D-02 0.397D-02
 Coeff-Com: -0.494D-01-0.730D-01-0.679D-01 0.260D+00 0.914D+00
 Coeff:      0.214D-03-0.418D-03 0.943D-03 0.319D-02 0.853D-02 0.397D-02
 Coeff:     -0.494D-01-0.730D-01-0.679D-01 0.260D+00 0.914D+00
 Gap=     0.115 Goal=   None    Shift=    0.000
 Gap=     0.155 Goal=   None    Shift=    0.000
 RMSDP=2.94D-06 MaxDP=1.90D-04 DE=-1.48D-06 OVMax= 5.24D-04

 Cycle  12  Pass 1  IDiag  1:
 RMSU=  1.10D-06    CP:  9.58D-01  2.29D+00  8.51D-01  7.99D-01  1.14D+00
                    CP:  1.23D+00  1.47D+00  1.47D+00  1.75D+00  1.32D+00
                    CP:  1.17D+00
 E= -770.422760995500     Delta-E=       -0.000000346751 Rises=F Damp=F
 DIIS: error= 7.86D-06 at cycle  12 NSaved=  12.
 NSaved=12 IEnMin=12 EnMin= -770.422760995500     IErMin=12 ErrMin= 7.86D-06
 ErrMax= 7.86D-06  0.00D+00 EMaxC= 1.00D-01 BMatC= 9.29D-08 BMatP= 2.85D-07
 IDIUse=1 WtCom= 1.00D+00 WtEn= 0.00D+00
 Coeff-Com:  0.891D-04-0.196D-03-0.634D-03-0.116D-02 0.423D-04 0.982D-02
 Coeff-Com:  0.159D-01-0.261D-01-0.150D+00-0.281D-01 0.465D+00 0.715D+00
 Coeff:      0.891D-04-0.196D-03-0.634D-03-0.116D-02 0.423D-04 0.982D-02
 Coeff:      0.159D-01-0.261D-01-0.150D+00-0.281D-01 0.465D+00 0.715D+00
 Gap=     0.115 Goal=   None    Shift=    0.000
 Gap=     0.155 Goal=   None    Shift=    0.000
 RMSDP=1.16D-06 MaxDP=7.96D-05 DE=-3.47D-07 OVMax= 1.87D-04

 Cycle  13  Pass 1  IDiag  1:
 RMSU=  4.74D-07    CP:  9.58D-01  2.29D+00  8.51D-01  7.99D-01  1.14D+00
                    CP:  1.23D+00  1.48D+00  1.49D+00  1.81D+00  1.42D+00
                    CP:  1.43D+00  9.69D-01
 E= -770.422761061990     Delta-E=       -0.000000066490 Rises=F Damp=F
 DIIS: error= 3.30D-06 at cycle  13 NSaved=  13.
 NSaved=13 IEnMin=13 EnMin= -770.422761061990     IErMin=13 ErrMin= 3.30D-06
 ErrMax= 3.30D-06  0.00D+00 EMaxC= 1.00D-01 BMatC= 1.63D-08 BMatP= 9.29D-08
 IDIUse=1 WtCom= 1.00D+00 WtEn= 0.00D+00
 Coeff-Com: -0.130D-04 0.174D-04-0.514D-03-0.132D-02-0.228D-02 0.328D-02
 Coeff-Com:  0.198D-01 0.664D-02-0.485D-01-0.741D-01-0.279D-01 0.301D+00
 Coeff-Com:  0.824D+00
 Coeff:     -0.130D-04 0.174D-04-0.514D-03-0.132D-02-0.228D-02 0.328D-02
 Coeff:      0.198D-01 0.664D-02-0.485D-01-0.741D-01-0.279D-01 0.301D+00
 Coeff:      0.824D+00
 Gap=     0.115 Goal=   None    Shift=    0.000
 Gap=     0.155 Goal=   None    Shift=    0.000
 RMSDP=5.15D-07 MaxDP=3.73D-05 DE=-6.65D-08 OVMax= 7.52D-05

 Cycle  14  Pass 1  IDiag  1:
 RMSU=  2.54D-07    CP:  9.58D-01  2.29D+00  8.51D-01  7.99D-01  1.14D+00
                    CP:  1.23D+00  1.48D+00  1.50D+00  1.83D+00  1.46D+00
                    CP:  1.52D+00  1.18D+00  1.04D+00
 E= -770.422761074255     Delta-E=       -0.000000012265 Rises=F Damp=F
 DIIS: error= 1.50D-06 at cycle  14 NSaved=  14.
 NSaved=14 IEnMin=14 EnMin= -770.422761074255     IErMin=14 ErrMin= 1.50D-06
 ErrMax= 1.50D-06  0.00D+00 EMaxC= 1.00D-01 BMatC= 3.46D-09 BMatP= 1.63D-08
 IDIUse=1 WtCom= 1.00D+00 WtEn= 0.00D+00
 Coeff-Com: -0.232D-04 0.464D-04-0.104D-03-0.337D-03-0.103D-02-0.372D-03
 Coeff-Com:  0.550D-02 0.694D-02 0.736D-02-0.248D-01-0.980D-01-0.406D-03
 Coeff-Com:  0.359D+00 0.746D+00
 Coeff:     -0.232D-04 0.464D-04-0.104D-03-0.337D-03-0.103D-02-0.372D-03
 Coeff:      0.550D-02 0.694D-02 0.736D-02-0.248D-01-0.980D-01-0.406D-03
 Coeff:      0.359D+00 0.746D+00
 Gap=     0.115 Goal=   None    Shift=    0.000
 Gap=     0.155 Goal=   None    Shift=    0.000
 RMSDP=1.90D-07 MaxDP=1.17D-05 DE=-1.23D-08 OVMax= 2.69D-05

 Cycle  15  Pass 1  IDiag  1:
 RMSU=  1.12D-07    CP:  9.58D-01  2.29D+00  8.51D-01  7.99D-01  1.14D+00
                    CP:  1.23D+00  1.48D+00  1.50D+00  1.83D+00  1.47D+00
                    CP:  1.55D+00  1.24D+00  1.26D+00  9.75D-01
 E= -770.422761076217     Delta-E=       -0.000000001962 Rises=F Damp=F
 DIIS: error= 8.85D-07 at cycle  15 NSaved=  15.
 NSaved=15 IEnMin=15 EnMin= -770.422761076217     IErMin=15 ErrMin= 8.85D-07
 ErrMax= 8.85D-07  0.00D+00 EMaxC= 1.00D-01 BMatC= 1.33D-09 BMatP= 3.46D-09
 IDIUse=1 WtCom= 1.00D+00 WtEn= 0.00D+00
 Coeff-Com: -0.105D-04 0.228D-04 0.552D-04 0.109D-03-0.103D-03-0.967D-03
 Coeff-Com: -0.126D-02 0.252D-02 0.162D-01 0.211D-02-0.540D-01-0.694D-01
 Coeff-Com:  0.285D-01 0.449D+00 0.628D+00
 Coeff:     -0.105D-04 0.228D-04 0.552D-04 0.109D-03-0.103D-03-0.967D-03
 Coeff:     -0.126D-02 0.252D-02 0.162D-01 0.211D-02-0.540D-01-0.694D-01
 Coeff:      0.285D-01 0.449D+00 0.628D+00
 Gap=     0.115 Goal=   None    Shift=    0.000
 Gap=     0.155 Goal=   None    Shift=    0.000
 RMSDP=9.50D-08 MaxDP=4.71D-06 DE=-1.96D-09 OVMax= 1.27D-05

 Cycle  16  Pass 1  IDiag  1:
 RMSU=  5.81D-08    CP:  9.58D-01  2.29D+00  8.51D-01  7.99D-01  1.14D+00
                    CP:  1.23D+00  1.48D+00  1.50D+00  1.83D+00  1.47D+00
                    CP:  1.56D+00  1.27D+00  1.32D+00  1.16D+00  8.48D-01
 E= -770.422761076819     Delta-E=       -0.000000000602 Rises=F Damp=F
 DIIS: error= 3.70D-07 at cycle  16 NSaved=  16.
 NSaved=16 IEnMin=16 EnMin= -770.422761076819     IErMin=16 ErrMin= 3.70D-07
 ErrMax= 3.70D-07  0.00D+00 EMaxC= 1.00D-01 BMatC= 1.79D-10 BMatP= 1.33D-09
 IDIUse=1 WtCom= 1.00D+00 WtEn= 0.00D+00
 Coeff-Com:  0.107D-05-0.219D-05 0.430D-04 0.122D-03 0.202D-03-0.282D-03
 Coeff-Com: -0.184D-02-0.718D-03 0.463D-02 0.672D-02 0.308D-02-0.267D-01
 Coeff-Com: -0.803D-01-0.665D-02 0.259D+00 0.843D+00
 Coeff:      0.107D-05-0.219D-05 0.430D-04 0.122D-03 0.202D-03-0.282D-03
 Coeff:     -0.184D-02-0.718D-03 0.463D-02 0.672D-02 0.308D-02-0.267D-01
 Coeff:     -0.803D-01-0.665D-02 0.259D+00 0.843D+00
 Gap=     0.115 Goal=   None    Shift=    0.000
 Gap=     0.155 Goal=   None    Shift=    0.000
 RMSDP=4.92D-08 MaxDP=2.63D-06 DE=-6.02D-10 OVMax= 7.14D-06

 Cycle  17  Pass 1  IDiag  1:
 RMSU=  2.70D-08    CP:  9.58D-01  2.29D+00  8.51D-01  7.99D-01  1.14D+00
                    CP:  1.23D+00  1.48D+00  1.50D+00  1.83D+00  1.47D+00
                    CP:  1.56D+00  1.28D+00  1.35D+00  1.24D+00  1.07D+00
                    CP:  1.05D+00
 E= -770.422761076952     Delta-E=       -0.000000000133 Rises=F Damp=F
 DIIS: error= 2.06D-07 at cycle  17 NSaved=  17.
 NSaved=17 IEnMin=17 EnMin= -770.422761076952     IErMin=17 ErrMin= 2.06D-07
 ErrMax= 2.06D-07  0.00D+00 EMaxC= 1.00D-01 BMatC= 4.13D-11 BMatP= 1.79D-10
 IDIUse=1 WtCom= 1.00D+00 WtEn= 0.00D+00
 Coeff-Com:  0.944D-06-0.232D-05 0.738D-05 0.271D-04 0.970D-04 0.601D-04
 Coeff-Com: -0.465D-03-0.631D-03-0.120D-02 0.206D-02 0.111D-01 0.179D-02
 Coeff-Com: -0.364D-01-0.811D-01-0.120D-01 0.322D+00 0.794D+00
 Coeff:      0.944D-06-0.232D-05 0.738D-05 0.271D-04 0.970D-04 0.601D-04
 Coeff:     -0.465D-03-0.631D-03-0.120D-02 0.206D-02 0.111D-01 0.179D-02
 Coeff:     -0.364D-01-0.811D-01-0.120D-01 0.322D+00 0.794D+00
 Gap=     0.115 Goal=   None    Shift=    0.000
 Gap=     0.155 Goal=   None    Shift=    0.000
 RMSDP=2.33D-08 MaxDP=1.51D-06 DE=-1.33D-10 OVMax= 3.52D-06

 Cycle  18  Pass 1  IDiag  1:
 RMSU=  1.47D-08    CP:  9.58D-01  2.29D+00  8.51D-01  7.99D-01  1.14D+00
                    CP:  1.23D+00  1.48D+00  1.50D+00  1.83D+00  1.47D+00
                    CP:  1.56D+00  1.28D+00  1.36D+00  1.26D+00  1.14D+00
                    CP:  1.26D+00  1.16D+00
 E= -770.422761076989     Delta-E=       -0.000000000037 Rises=F Damp=F
 DIIS: error= 1.50D-07 at cycle  18 NSaved=  18.
 NSaved=18 IEnMin=18 EnMin= -770.422761076989     IErMin=18 ErrMin= 1.50D-07
 ErrMax= 1.50D-07  0.00D+00 EMaxC= 1.00D-01 BMatC= 1.88D-11 BMatP= 4.13D-11
 IDIUse=1 WtCom= 1.00D+00 WtEn= 0.00D+00
 Coeff-Com:  0.349D-06-0.109D-05-0.119D-04-0.306D-04-0.167D-04 0.133D-03
 Coeff-Com:  0.402D-03-0.177D-04-0.237D-02-0.138D-02 0.472D-02 0.103D-01
 Coeff-Com:  0.102D-01-0.393D-01-0.103D+00-0.139D+00 0.475D+00 0.784D+00
 Coeff:      0.349D-06-0.109D-05-0.119D-04-0.306D-04-0.167D-04 0.133D-03
 Coeff:      0.402D-03-0.177D-04-0.237D-02-0.138D-02 0.472D-02 0.103D-01
 Coeff:      0.102D-01-0.393D-01-0.103D+00-0.139D+00 0.475D+00 0.784D+00
 Gap=     0.115 Goal=   None    Shift=    0.000
 Gap=     0.155 Goal=   None    Shift=    0.000
 RMSDP=1.63D-08 MaxDP=1.09D-06 DE=-3.73D-11 OVMax= 2.99D-06

 Cycle  19  Pass 1  IDiag  1:
 RMSU=  7.45D-09    CP:  9.58D-01  2.29D+00  8.51D-01  7.99D-01  1.14D+00
                    CP:  1.23D+00  1.48D+00  1.50D+00  1.83D+00  1.47D+00
                    CP:  1.56D+00  1.28D+00  1.37D+00  1.28D+00  1.19D+00
                    CP:  1.39D+00  1.54D+00  1.06D+00
 E= -770.422761076998     Delta-E=       -0.000000000009 Rises=F Damp=F
 DIIS: error= 5.95D-08 at cycle  19 NSaved=  19.
 NSaved=19 IEnMin=19 EnMin= -770.422761076998     IErMin=19 ErrMin= 5.95D-08
 ErrMax= 5.95D-08  0.00D+00 EMaxC= 1.00D-01 BMatC= 3.40D-12 BMatP= 1.88D-11
 IDIUse=1 WtCom= 1.00D+00 WtEn= 0.00D+00
 Coeff-Com:  0.262D-07-0.751D-07-0.632D-05-0.189D-04-0.265D-04 0.445D-04
 Coeff-Com:  0.262D-03 0.157D-03-0.764D-03-0.102D-02-0.429D-03 0.380D-02
 Coeff-Com:  0.124D-01 0.134D-02-0.422D-01-0.132D+00 0.415D-01 0.327D+00
 Coeff-Com:  0.789D+00
 Coeff:      0.262D-07-0.751D-07-0.632D-05-0.189D-04-0.265D-04 0.445D-04
 Coeff:      0.262D-03 0.157D-03-0.764D-03-0.102D-02-0.429D-03 0.380D-02
 Coeff:      0.124D-01 0.134D-02-0.422D-01-0.132D+00 0.415D-01 0.327D+00
 Coeff:      0.789D+00
 Gap=     0.115 Goal=   None    Shift=    0.000
 Gap=     0.155 Goal=   None    Shift=    0.000
 RMSDP=7.69D-09 MaxDP=5.13D-07 DE=-9.09D-12 OVMax= 1.29D-06

 Error on total polarization charges =  0.00982
 SCF Done:  E(UB3LYP) =  -770.422761077     A.U. after   19 cycles
            NFock= 19  Conv=0.77D-08     -V/T= 2.0095
 <Sx>= 0.0000 <Sy>= 0.0000 <Sz>= 0.5000 <S**2>= 0.7685 S= 0.5092
 <L.S>=  0.00000000000    
 KE= 7.631677773251D+02 PE=-4.417657357185D+03 EE= 1.570323392653D+03
 Annihilation of the first spin contaminant:
 S**2 before annihilation     0.7685,   after     0.7502
 Leave Link  502 at Sat May 25 04:21:28 2019, MaxMem=   104857600 cpu:            1476.2 elap:              47.0
 (Enter /opt/software/gaussian/g16.b01/l801.exe)
 DoSCS=F DFT=T ScalE2(SS,OS)=  1.000000  1.000000
 ExpMin= 1.61D-01 ExpMax= 5.48D+03 ExpMxC= 8.25D+02 IAcc=3 IRadAn=         5 AccDes= 0.00D+00
 HarFok:  IExCor=  205 AccDes= 0.00D+00 IRadAn=         5 IDoV=-2 UseB2=F ITyADJ=14
 ICtDFT= 12500011 ScaDFX=  1.000000  1.000000  1.000000  1.000000
 Largest valence mixing into a core orbital is  5.83D-05
 Largest core mixing into a valence orbital is  1.21D-05
 Largest valence mixing into a core orbital is  6.39D-05
 Largest core mixing into a valence orbital is  1.21D-05
 Range of M.O.s used for correlation:    19   355
 NBasis=   355 NAE=    65 NBE=    64 NFC=    18 NFV=     0
 NROrb=    337 NOA=    47 NOB=    46 NVA=   290 NVB=   291
 Leave Link  801 at Sat May 25 04:21:28 2019, MaxMem=   104857600 cpu:               5.5 elap:               0.2
 (Enter /opt/software/gaussian/g16.b01/l914.exe)
 UHF ground state
 Ignoring spin specification with unrestricted ground state.
 Two-electron integrals replicated using symmetry.
 MDV=   104857600 DFT=T DoStab=F Mixed=T DoRPA=T DoScal=F NonHer=T
 NEqPCM:  Using non-equilibrium solvation (IEInf=1, Eps=  35.6880, EpsInf=   1.8069)
 Inv3:  Mode=1 IEnd=    17294403.
 Iteration    1 A*A^-1 deviation from unit magnitude is 3.33D-15 for    437.
 Iteration    1 A*A^-1 deviation from orthogonality  is 1.60D-15 for   1375     54.
 Iteration    1 A^-1*A deviation from unit magnitude is 2.89D-15 for    437.
 Iteration    1 A^-1*A deviation from orthogonality  is 2.22D-15 for   2337    715.
 Making orbital integer symmetry assigments:
 Orbital symmetries:
 Alpha Orbitals:
       Occupied  (A) (A) (A) (A) (A) (A) (A) (A) (A) (A) (A) (A)
                 (A) (A) (A) (A) (A) (A) (A) (A) (A) (A) (A) (A)
                 (A) (A) (A) (A) (A) (A) (A) (A) (A) (A) (A) (A)
                 (A) (A) (A) (A) (A) (A) (A) (A) (A) (A) (A) (A)
                 (A) (A) (A) (A) (A) (A) (A) (A) (A) (A) (A) (A)
                 (A) (A) (A) (A) (A)
       Virtual   (A) (A) (A) (A) (A) (A) (A) (A) (A) (A) (A) (A)
                 (A) (A) (A) (A) (A) (A) (A) (A) (A) (A) (A) (A)
                 (A) (A) (A) (A) (A) (A) (A) (A) (A) (A) (A) (A)
                 (A) (A) (A) (A) (A) (A) (A) (A) (A) (A) (A) (A)
                 (A) (A) (A) (A) (A) (A) (A) (A) (A) (A) (A) (A)
                 (A) (A) (A) (A) (A) (A) (A) (A) (A) (A) (A) (A)
                 (A) (A) (A) (A) (A) (A) (A) (A) (A) (A) (A) (A)
                 (A) (A) (A) (A) (A) (A) (A) (A) (A) (A) (A) (A)
                 (A) (A) (A) (A) (A) (A) (A) (A) (A) (A) (A) (A)
                 (A) (A) (A) (A) (A) (A) (A) (A) (A) (A) (A) (A)
                 (A) (A) (A) (A) (A) (A) (A) (A) (A) (A) (A) (A)
                 (A) (A) (A) (A) (A) (A) (A) (A) (A) (A) (A) (A)
                 (A) (A) (A) (A) (A) (A) (A) (A) (A) (A) (A) (A)
                 (A) (A) (A) (A) (A) (A) (A) (A) (A) (A) (A) (A)
                 (A) (A) (A) (A) (A) (A) (A) (A) (A) (A) (A) (A)
                 (A) (A) (A) (A) (A) (A) (A) (A) (A) (A) (A) (A)
                 (A) (A) (A) (A) (A) (A) (A) (A) (A) (A) (A) (A)
                 (A) (A) (A) (A) (A) (A) (A) (A) (A) (A) (A) (A)
                 (A) (A) (A) (A) (A) (A) (A) (A) (A) (A) (A) (A)
                 (A) (A) (A) (A) (A) (A) (A) (A) (A) (A) (A) (A)
                 (A) (A) (A) (A) (A) (A) (A) (A) (A) (A) (A) (A)
                 (A) (A) (A) (A) (A) (A) (A) (A) (A) (A) (A) (A)
                 (A) (A) (A) (A) (A) (A) (A) (A) (A) (A) (A) (A)
                 (A) (A) (A) (A) (A) (A) (A) (A) (A) (A) (A) (A)
                 (A) (A)
 Beta  Orbitals:
       Occupied  (A) (A) (A) (A) (A) (A) (A) (A) (A) (A) (A) (A)
                 (A) (A) (A) (A) (A) (A) (A) (A) (A) (A) (A) (A)
                 (A) (A) (A) (A) (A) (A) (A) (A) (A) (A) (A) (A)
                 (A) (A) (A) (A) (A) (A) (A) (A) (A) (A) (A) (A)
                 (A) (A) (A) (A) (A) (A) (A) (A) (A) (A) (A) (A)
                 (A) (A) (A) (A)
       Virtual   (A) (A) (A) (A) (A) (A) (A) (A) (A) (A) (A) (A)
                 (A) (A) (A) (A) (A) (A) (A) (A) (A) (A) (A) (A)
                 (A) (A) (A) (A) (A) (A) (A) (A) (A) (A) (A) (A)
                 (A) (A) (A) (A) (A) (A) (A) (A) (A) (A) (A) (A)
                 (A) (A) (A) (A) (A) (A) (A) (A) (A) (A) (A) (A)
                 (A) (A) (A) (A) (A) (A) (A) (A) (A) (A) (A) (A)
                 (A) (A) (A) (A) (A) (A) (A) (A) (A) (A) (A) (A)
                 (A) (A) (A) (A) (A) (A) (A) (A) (A) (A) (A) (A)
                 (A) (A) (A) (A) (A) (A) (A) (A) (A) (A) (A) (A)
                 (A) (A) (A) (A) (A) (A) (A) (A) (A) (A) (A) (A)
                 (A) (A) (A) (A) (A) (A) (A) (A) (A) (A) (A) (A)
                 (A) (A) (A) (A) (A) (A) (A) (A) (A) (A) (A) (A)
                 (A) (A) (A) (A) (A) (A) (A) (A) (A) (A) (A) (A)
                 (A) (A) (A) (A) (A) (A) (A) (A) (A) (A) (A) (A)
                 (A) (A) (A) (A) (A) (A) (A) (A) (A) (A) (A) (A)
                 (A) (A) (A) (A) (A) (A) (A) (A) (A) (A) (A) (A)
                 (A) (A) (A) (A) (A) (A) (A) (A) (A) (A) (A) (A)
                 (A) (A) (A) (A) (A) (A) (A) (A) (A) (A) (A) (A)
                 (A) (A) (A) (A) (A) (A) (A) (A) (A) (A) (A) (A)
                 (A) (A) (A) (A) (A) (A) (A) (A) (A) (A) (A) (A)
                 (A) (A) (A) (A) (A) (A) (A) (A) (A) (A) (A) (A)
                 (A) (A) (A) (A) (A) (A) (A) (A) (A) (A) (A) (A)
                 (A) (A) (A) (A) (A) (A) (A) (A) (A) (A) (A) (A)
                 (A) (A) (A) (A) (A) (A) (A) (A) (A) (A) (A) (A)
                 (A) (A) (A)
   144 initial guesses have been made.
 Convergence on wavefunction:    0.001000000000000
 Davidson Disk Diagonalization:  ConvIn= 1.00D-03 SkipCon=T Conv= 1.00D-03.
 Max sub-space:  2160 roots to seek:   144 dimension of matrix:        27016
 Iteration     1 Dimension   144 NMult     0 NNew    144
 CISAX will form     3 AO SS matrices at one time.
 NMat=     3 NSing=     3 JSym2X= 0.
 FoFJK:  IHMeth= 1 ICntrl=       0 DoSepK=F KAlg= 0 I1Cent=           0 FoldK=F
 IRaf= 840000000 NMat=       6 IRICut=       1 DoRegI=T DoRafI=F ISym2E= 0 IDoP0=0 IntGTp=1.
 NMat=     3 NSing=     3 JSym2X= 0.
 NMat=     3 NSing=     3 JSym2X= 0.
 NMat=     3 NSing=     3 JSym2X= 0.
 NMat=     3 NSing=     3 JSym2X= 0.
 NMat=     3 NSing=     3 JSym2X= 0.
 NMat=     3 NSing=     3 JSym2X= 0.
 NMat=     3 NSing=     3 JSym2X= 0.
 NMat=     3 NSing=     3 JSym2X= 0.
 NMat=     3 NSing=     3 JSym2X= 0.
 NMat=     3 NSing=     3 JSym2X= 0.
 NMat=     3 NSing=     3 JSym2X= 0.
 NMat=     3 NSing=     3 JSym2X= 0.
 NMat=     3 NSing=     3 JSym2X= 0.
 NMat=     3 NSing=     3 JSym2X= 0.
 NMat=     3 NSing=     3 JSym2X= 0.
 NMat=     3 NSing=     3 JSym2X= 0.
 NMat=     3 NSing=     3 JSym2X= 0.
 NMat=     3 NSing=     3 JSym2X= 0.
 NMat=     3 NSing=     3 JSym2X= 0.
 NMat=     3 NSing=     3 JSym2X= 0.
 NMat=     3 NSing=     3 JSym2X= 0.
 NMat=     3 NSing=     3 JSym2X= 0.
 NMat=     3 NSing=     3 JSym2X= 0.
 NMat=     3 NSing=     3 JSym2X= 0.
 NMat=     3 NSing=     3 JSym2X= 0.
 NMat=     3 NSing=     3 JSym2X= 0.
 NMat=     3 NSing=     3 JSym2X= 0.
 NMat=     3 NSing=     3 JSym2X= 0.
 NMat=     3 NSing=     3 JSym2X= 0.
 NMat=     3 NSing=     3 JSym2X= 0.
 NMat=     3 NSing=     3 JSym2X= 0.
 NMat=     3 NSing=     3 JSym2X= 0.
 NMat=     3 NSing=     3 JSym2X= 0.
 NMat=     3 NSing=     3 JSym2X= 0.
 NMat=     3 NSing=     3 JSym2X= 0.
 NMat=     3 NSing=     3 JSym2X= 0.
 NMat=     3 NSing=     3 JSym2X= 0.
 NMat=     3 NSing=     3 JSym2X= 0.
 NMat=     3 NSing=     3 JSym2X= 0.
 NMat=     3 NSing=     3 JSym2X= 0.
 NMat=     3 NSing=     3 JSym2X= 0.
 NMat=     3 NSing=     3 JSym2X= 0.
 NMat=     3 NSing=     3 JSym2X= 0.
 NMat=     3 NSing=     3 JSym2X= 0.
 NMat=     3 NSing=     3 JSym2X= 0.
 NMat=     3 NSing=     3 JSym2X= 0.
 NMat=     3 NSing=     3 JSym2X= 0.
 New state      2 was old state      4
 New state      3 was old state      2
 New state      4 was old state      5
 New state      5 was old state      6
 New state      6 was old state      3
 New state      9 was old state     11
 New state     10 was old state     12
 New state     11 was old state     10
 New state     12 was old state      9
 New state     13 was old state     22
 New state     14 was old state     30
 New state     15 was old state     16
 New state     16 was old state     13
 New state     17 was old state     19
 New state     18 was old state     15
 New state     19 was old state     14
 New state     21 was old state     28
 New state     22 was old state     18
 New state     23 was old state     27
 New state     24 was old state     39
 New state     25 was old state     24
 New state     26 was old state     29
 New state     27 was old state     25
 New state     28 was old state     17
 New state     29 was old state     36
 New state     30 was old state     34
 New state     31 was old state     44
 New state     32 was old state     48
 New state     33 was old state     43
 New state     34 was old state     26
 New state     35 was old state     58
 New state     36 was old state     35
 Excitation Energies [eV] at current iteration:
 Root      1 :     2.678708749791046
 Root      2 :     2.968381001228610
 Root      3 :     3.233109919915769
 Root      4 :     3.352562793724799
 Root      5 :     3.474999791858847
 Root      6 :     3.545739715760059
 Root      7 :     3.772186698341394
 Root      8 :     3.855027852889664
 Root      9 :     4.001403877737298
 Root     10 :     4.331137701098432
 Root     11 :     4.458358897691816
 Root     12 :     4.534176572216497
 Root     13 :     4.570081609135914
 Root     14 :     4.696766660451853
 Root     15 :     4.753988966593100
 Root     16 :     4.838018220173909
 Root     17 :     4.891473094002119
 Root     18 :     4.976229020482853
 Root     19 :     5.066123708134025
 Root     20 :     5.157164638592000
 Root     21 :     5.204176114163674
 Root     22 :     5.285625966156191
 Root     23 :     5.492573257961849
 Root     24 :     5.550477920198927
 Root     25 :     5.754554163591618
 Root     26 :     5.756915517615338
 Root     27 :     5.780006607174222
 Root     28 :     5.799277561198739
 Root     29 :     5.938986443416011
 Root     30 :     5.949675284223197
 Root     31 :     6.045415607866420
 Root     32 :     6.056372304892763
 Root     33 :     6.084373477191383
 Root     34 :     6.093262130571870
 Root     35 :     6.186917068148742
 Root     36 :     6.200842944049412
 Root     37 :     6.219184889592658
 Root     38 :     6.241180126106340
 Root     39 :     6.252553341049953
 Root     40 :     6.279339817243827
 Root     41 :     6.285112682049265
 Root     42 :     6.300122356888139
 Root     43 :     6.353055292669666
 Root     44 :     6.382559759473260
 Root     45 :     6.394326206909835
 Root     46 :     6.413209837145367
 Root     47 :     6.441775108159717
 Root     48 :     6.450669351441357
 Root     49 :     6.496327168780184
 Root     50 :     6.524720624117614
 Root     51 :     6.568353107404411
 Root     52 :     6.604967351687927
 Root     53 :     6.643510989764176
 Root     54 :     6.668858602510527
 Root     55 :     6.672054616418637
 Root     56 :     6.736675006243680
 Root     57 :     6.794603021204885
 Root     58 :     6.839813978853373
 Root     59 :     6.878929263380922
 Root     60 :     6.893128290681740
 Root     61 :     6.967999697052591
 Root     62 :     7.042050943468731
 Root     63 :     7.057250976938497
 Root     64 :     7.069887097530554
 Root     65 :     7.090962139184469
 Root     66 :     7.121402517880198
 Root     67 :     7.161059844559245
 Root     68 :     7.170518129508198
 Root     69 :     7.318442632332824
 Root     70 :     7.340616524701642
 Root     71 :     7.376603412194827
 Root     72 :     7.385292093258536
 Root     73 :     7.391239113283471
 Root     74 :     7.412116641527940
 Root     75 :     7.425769280841399
 Root     76 :     7.432806097921849
 Root     77 :     7.473783624665904
 Root     78 :     7.510734699414810
 Root     79 :     7.523098988611602
 Root     80 :     7.536498246986683
 Root     81 :     7.562753577120916
 Root     82 :     7.578761569497448
 Root     83 :     7.596458588924777
 Root     84 :     7.638461015323506
 Root     85 :     7.663212931081718
 Root     86 :     7.701568777833703
 Root     87 :     7.708261534947864
 Root     88 :     7.718143839383000
 Root     89 :     7.738494279990804
 Root     90 :     7.796069942321708
 Root     91 :     7.808425080964306
 Root     92 :     7.817671763801944
 Root     93 :     7.833659900975752
 Root     94 :     7.856101365243350
 Root     95 :     7.883439001521546
 Root     96 :     7.915995054939717
 Root     97 :     7.941882625203875
 Root     98 :     7.968087014996523
 Root     99 :     7.986045146961938
 Root    100 :     8.017140434334838
 Root    101 :     8.026849793216583
 Root    102 :     8.058463904046359
 Root    103 :     8.074213693287874
 Root    104 :     8.104981322465102
 Root    105 :     8.172024275500428
 Root    106 :     8.184389253966083
 Root    107 :     8.206804668746281
 Root    108 :     8.222124288371406
 Root    109 :     8.235242902780866
 Root    110 :     8.275784006095822
 Root    111 :     8.284682444198186
 Root    112 :     8.288951639717201
 Root    113 :     8.313365051986672
 Root    114 :     8.340714594065130
 Root    115 :     8.356520317128327
 Root    116 :     8.375694947220143
 Root    117 :     8.390889949388493
 Root    118 :     8.401341165387306
 Root    119 :     8.407810879278170
 Root    120 :     8.427834548874626
 Root    121 :     8.438215516737634
 Root    122 :     8.467724730711264
 Root    123 :     8.485513468099285
 Root    124 :     8.496001307526020
 Root    125 :     8.504769068791298
 Root    126 :     8.532675593942345
 Root    127 :     8.538819187779225
 Root    128 :     8.547089956300375
 Root    129 :     8.563992143000215
 Root    130 :     8.577127951214518
 Root    131 :     8.624546048098184
 Root    132 :     8.633317444268332
 Root    133 :     8.657429159595743
 Root    134 :     8.698296227322212
 Root    135 :     8.711561273921147
 Root    136 :     8.769422892548542
 Root    137 :     8.808255939225658
 Root    138 :     8.821497334844347
 Root    139 :     8.837651414985562
 Root    140 :     8.863553515308590
 Root    141 :     8.916895071691659
 Root    142 :     8.974887710356194
 Root    143 :     9.303981829866597
 Root    144 :     9.429393468455563
 Iteration     2 Dimension   216 NMult   144 NNew     72
 CISAX will form     3 AO SS matrices at one time.
 NMat=     3 NSing=     3 JSym2X= 0.
 NMat=     3 NSing=     3 JSym2X= 0.
 NMat=     3 NSing=     3 JSym2X= 0.
 NMat=     3 NSing=     3 JSym2X= 0.
 NMat=     3 NSing=     3 JSym2X= 0.
 NMat=     3 NSing=     3 JSym2X= 0.
 NMat=     3 NSing=     3 JSym2X= 0.
 NMat=     3 NSing=     3 JSym2X= 0.
 NMat=     3 NSing=     3 JSym2X= 0.
 NMat=     3 NSing=     3 JSym2X= 0.
 NMat=     3 NSing=     3 JSym2X= 0.
 NMat=     3 NSing=     3 JSym2X= 0.
 NMat=     3 NSing=     3 JSym2X= 0.
 NMat=     3 NSing=     3 JSym2X= 0.
 NMat=     3 NSing=     3 JSym2X= 0.
 NMat=     3 NSing=     3 JSym2X= 0.
 NMat=     3 NSing=     3 JSym2X= 0.
 NMat=     3 NSing=     3 JSym2X= 0.
 NMat=     3 NSing=     3 JSym2X= 0.
 NMat=     3 NSing=     3 JSym2X= 0.
 NMat=     3 NSing=     3 JSym2X= 0.
 NMat=     3 NSing=     3 JSym2X= 0.
 NMat=     3 NSing=     3 JSym2X= 0.
 NMat=     3 NSing=     3 JSym2X= 0.
 Root      1 not converged, maximum delta is    0.066847293756103
 Root      2 not converged, maximum delta is    0.070392583714406
 Root      3 not converged, maximum delta is    0.362134580523202
 Root      4 not converged, maximum delta is    0.396608803724786
 Root      5 not converged, maximum delta is    0.294960389255657
 Root      6 not converged, maximum delta is    0.170818326868106
 Root      7 not converged, maximum delta is    0.525637890987168
 Root      8 not converged, maximum delta is    0.365867041599421
 Root      9 not converged, maximum delta is    0.021449605174589
 Root     10 not converged, maximum delta is    0.125255165910292
 Root     11 not converged, maximum delta is    0.422483352681192
 New state     12 was old state     13
 Root     12 not converged, maximum delta is    0.293577796105827
 New state     13 was old state     12
 Root     13 not converged, maximum delta is    0.337652038089767
 Root     14 not converged, maximum delta is    0.163456127894619
 Root     15 not converged, maximum delta is    0.158325606285938
 New state     16 was old state     17
 Root     16 not converged, maximum delta is    0.297798234974471
 New state     17 was old state     16
 Root     17 not converged, maximum delta is    0.271393824736491
 Root     18 not converged, maximum delta is    0.223184582694268
 Root     19 not converged, maximum delta is    0.102687631321232
 Root     20 not converged, maximum delta is    0.168227349340085
 Root     21 not converged, maximum delta is    0.343564273961174
 New state     22 was old state     23
 Root     22 not converged, maximum delta is    0.202208444018706
 New state     23 was old state     22
 Root     23 not converged, maximum delta is    0.253313906036198
 New state     24 was old state     28
 Root     24 not converged, maximum delta is    0.306015724912973
 New state     25 was old state     24
 Root     25 not converged, maximum delta is    0.118897826402521
 New state     26 was old state     29
 Root     26 not converged, maximum delta is    0.382184579667920
 New state     27 was old state     26
 Root     27 not converged, maximum delta is    0.141044381961284
 New state     28 was old state     25
 Root     28 not converged, maximum delta is    0.163198783189881
 New state     29 was old state     27
 Root     29 not converged, maximum delta is    0.237120729801116
 Root     30 not converged, maximum delta is    0.074748192037119
 New state     31 was old state     33
 Root     31 not converged, maximum delta is    0.443907199025637
 New state     32 was old state     31
 Root     32 not converged, maximum delta is    0.298748864712435
 New state     33 was old state     32
 Root     33 not converged, maximum delta is    0.431587919372104
 Root     34 not converged, maximum delta is    0.408522187361854
 Root     35 not converged, maximum delta is    0.280612717493695
 New state     36 was old state     37
 Root     36 not converged, maximum delta is    0.332113230771052
 Excitation Energies [eV] at current iteration:
 Root      1 :     2.438956951726287   Change is   -0.239751798064759
 Root      2 :     2.903785613723607   Change is   -0.064595387505003
 Root      3 :     3.153686101695404   Change is   -0.079423818220365
 Root      4 :     3.204295409843725   Change is   -0.148267383881075
 Root      5 :     3.297961205956653   Change is   -0.177038585902195
 Root      6 :     3.469496640303228   Change is   -0.076243075456831
 Root      7 :     3.719955788511486   Change is   -0.052230909829908
 Root      8 :     3.754631312420041   Change is   -0.100396540469623
 Root      9 :     3.947529558488926   Change is   -0.053874319248372
 Root     10 :     4.102740687783712   Change is   -0.228397013314719
 Root     11 :     4.306380017217210   Change is   -0.151978880474605
 Root     12 :     4.319076218508195   Change is   -0.251005390627719
 Root     13 :     4.427591147368667   Change is   -0.106585424847829
 Root     14 :     4.591845880137671   Change is   -0.104920780314181
 Root     15 :     4.727202474754016   Change is   -0.026786491839084
 Root     16 :     4.739465947760765   Change is   -0.152007146241354
 Root     17 :     4.815655042453738   Change is   -0.022363177720171
 Root     18 :     4.869306149295579   Change is   -0.106922871187273
 Root     19 :     4.982426384891936   Change is   -0.083697323242089
 Root     20 :     5.099764587482960   Change is   -0.057400051109040
 Root     21 :     5.142971500051060   Change is   -0.061204614112614
 Root     22 :     5.193073668998816   Change is   -0.299499588963034
 Root     23 :     5.211440513031354   Change is   -0.074185453124836
 Root     24 :     5.326617732341068   Change is   -0.472659828857671
 Root     25 :     5.494090427418732   Change is   -0.056387492780195
 Root     26 :     5.599129743716165   Change is   -0.339856699699847
 Root     27 :     5.691918100278992   Change is   -0.064997417336346
 Root     28 :     5.741957476191839   Change is   -0.012596687399779
 Root     29 :     5.777820171029344   Change is   -0.002186436144879
 Root     30 :     5.907920587847780   Change is   -0.041754696375417
 Root     31 :     5.960735087363677   Change is   -0.123638389827705
 Root     32 :     5.980156743471888   Change is   -0.065258864394532
 Root     33 :     5.992946292718942   Change is   -0.063426012173821
 Root     34 :     6.041131826600528   Change is   -0.052130303971342
 Root     35 :     6.087775590644719   Change is   -0.099141477504024
 Root     36 :     6.157286241067235   Change is   -0.061898648525423
 Iteration     3 Dimension   288 NMult   216 NNew     72
 CISAX will form     3 AO SS matrices at one time.
 NMat=     3 NSing=     3 JSym2X= 0.
 NMat=     3 NSing=     3 JSym2X= 0.
 NMat=     3 NSing=     3 JSym2X= 0.
 NMat=     3 NSing=     3 JSym2X= 0.
 NMat=     3 NSing=     3 JSym2X= 0.
 NMat=     3 NSing=     3 JSym2X= 0.
 NMat=     3 NSing=     3 JSym2X= 0.
 NMat=     3 NSing=     3 JSym2X= 0.
 NMat=     3 NSing=     3 JSym2X= 0.
 NMat=     3 NSing=     3 JSym2X= 0.
 NMat=     3 NSing=     3 JSym2X= 0.
 NMat=     3 NSing=     3 JSym2X= 0.
 NMat=     3 NSing=     3 JSym2X= 0.
 NMat=     3 NSing=     3 JSym2X= 0.
 NMat=     3 NSing=     3 JSym2X= 0.
 NMat=     3 NSing=     3 JSym2X= 0.
 NMat=     3 NSing=     3 JSym2X= 0.
 NMat=     3 NSing=     3 JSym2X= 0.
 NMat=     3 NSing=     3 JSym2X= 0.
 NMat=     3 NSing=     3 JSym2X= 0.
 NMat=     3 NSing=     3 JSym2X= 0.
 NMat=     3 NSing=     3 JSym2X= 0.
 NMat=     3 NSing=     3 JSym2X= 0.
 NMat=     3 NSing=     3 JSym2X= 0.
 Root      1 not converged, maximum delta is    0.004149332053120
 Root      2 not converged, maximum delta is    0.001618657981483
 Root      3 not converged, maximum delta is    0.023745242442543
 Root      4 not converged, maximum delta is    0.023298742240204
 Root      5 not converged, maximum delta is    0.004507230251509
 Root      6 not converged, maximum delta is    0.008224456352170
 Root      7 not converged, maximum delta is    0.040678742917126
 Root      8 not converged, maximum delta is    0.029354722900162
 Root      9 not converged, maximum delta is    0.001527792074399
 Root     10 not converged, maximum delta is    0.003815724181704
 Root     11 not converged, maximum delta is    0.042192189917978
 Root     12 not converged, maximum delta is    0.050467360607725
 Root     13 not converged, maximum delta is    0.012706835348709
 Root     14 not converged, maximum delta is    0.009878483059930
 Root     15 not converged, maximum delta is    0.435787720841225
 Root     16 not converged, maximum delta is    0.431580789977409
 Root     17 not converged, maximum delta is    0.016879290623588
 Root     18 not converged, maximum delta is    0.012902194794150
 Root     19 not converged, maximum delta is    0.007790896648347
 Root     20 not converged, maximum delta is    0.015180333312957
 Root     21 not converged, maximum delta is    0.156996644194403
 Root     22 not converged, maximum delta is    0.157607717246962
 Root     23 not converged, maximum delta is    0.065233990165897
 Root     24 not converged, maximum delta is    0.028571144137953
 Root     25 not converged, maximum delta is    0.008206904228227
 Root     26 not converged, maximum delta is    0.007673824255265
 Root     27 not converged, maximum delta is    0.012858439884564
 Root     28 not converged, maximum delta is    0.004235025617782
 Root     29 not converged, maximum delta is    0.004097322052116
 Root     30 not converged, maximum delta is    0.010867304201492
 Root     31 not converged, maximum delta is    0.032987539364321
 Root     32 not converged, maximum delta is    0.024529889212463
 Root     33 not converged, maximum delta is    0.028208617475225
 Root     34 not converged, maximum delta is    0.019944627668974
 Root     35 not converged, maximum delta is    0.036862797265621
 Root     36 not converged, maximum delta is    0.171274805072572
 Excitation Energies [eV] at current iteration:
 Root      1 :     2.430641471669480   Change is   -0.008315480056807
 Root      2 :     2.902105892795803   Change is   -0.001679720927804
 Root      3 :     3.149049915960947   Change is   -0.004636185734457
 Root      4 :     3.198783830156961   Change is   -0.005511579686764
 Root      5 :     3.291490584540317   Change is   -0.006470621416335
 Root      6 :     3.466093652939324   Change is   -0.003402987363903
 Root      7 :     3.715300299304190   Change is   -0.004655489207296
 Root      8 :     3.751130330956081   Change is   -0.003500981463960
 Root      9 :     3.946003394646008   Change is   -0.001526163842917
 Root     10 :     4.096381564236530   Change is   -0.006359123547182
 Root     11 :     4.298409133058859   Change is   -0.007970884158350
 Root     12 :     4.313515091235861   Change is   -0.005561127272334
 Root     13 :     4.423606992729876   Change is   -0.003984154638792
 Root     14 :     4.587739611841697   Change is   -0.004106268295974
 Root     15 :     4.723631591968524   Change is   -0.003570882785492
 Root     16 :     4.729173245406342   Change is   -0.010292702354423
 Root     17 :     4.814483954504972   Change is   -0.001171087948766
 Root     18 :     4.863895152415468   Change is   -0.005410996880111
 Root     19 :     4.977738214917500   Change is   -0.004688169974435
 Root     20 :     5.096797161863525   Change is   -0.002967425619435
 Root     21 :     5.126308093423029   Change is   -0.016663406628031
 Root     22 :     5.174044810949838   Change is   -0.019028858048977
 Root     23 :     5.207700247634404   Change is   -0.003740265396951
 Root     24 :     5.310657873163747   Change is   -0.015959859177321
 Root     25 :     5.490389346241216   Change is   -0.003701081177516
 Root     26 :     5.589676680215677   Change is   -0.009453063500488
 Root     27 :     5.686077149750663   Change is   -0.005840950528329
 Root     28 :     5.741304640501784   Change is   -0.000652835690054
 Root     29 :     5.777155086405117   Change is   -0.000665084624226
 Root     30 :     5.904873827637770   Change is   -0.003046760210010
 Root     31 :     5.946717081472424   Change is   -0.014018005891253
 Root     32 :     5.975371774750458   Change is   -0.004784968721430
 Root     33 :     5.983564009344309   Change is   -0.009382283374633
 Root     34 :     6.036696725744190   Change is   -0.004435100856337
 Root     35 :     6.081629480004465   Change is   -0.006146110640253
 Root     36 :     6.122602832492718   Change is   -0.034683408574516
 Iteration     4 Dimension   360 NMult   288 NNew     72
 CISAX will form     3 AO SS matrices at one time.
 NMat=     3 NSing=     3 JSym2X= 0.
 NMat=     3 NSing=     3 JSym2X= 0.
 NMat=     3 NSing=     3 JSym2X= 0.
 NMat=     3 NSing=     3 JSym2X= 0.
 NMat=     3 NSing=     3 JSym2X= 0.
 NMat=     3 NSing=     3 JSym2X= 0.
 NMat=     3 NSing=     3 JSym2X= 0.
 NMat=     3 NSing=     3 JSym2X= 0.
 NMat=     3 NSing=     3 JSym2X= 0.
 NMat=     3 NSing=     3 JSym2X= 0.
 NMat=     3 NSing=     3 JSym2X= 0.
 NMat=     3 NSing=     3 JSym2X= 0.
 NMat=     3 NSing=     3 JSym2X= 0.
 NMat=     3 NSing=     3 JSym2X= 0.
 NMat=     3 NSing=     3 JSym2X= 0.
 NMat=     3 NSing=     3 JSym2X= 0.
 NMat=     3 NSing=     3 JSym2X= 0.
 NMat=     3 NSing=     3 JSym2X= 0.
 NMat=     3 NSing=     3 JSym2X= 0.
 NMat=     3 NSing=     3 JSym2X= 0.
 NMat=     3 NSing=     3 JSym2X= 0.
 NMat=     3 NSing=     3 JSym2X= 0.
 NMat=     3 NSing=     3 JSym2X= 0.
 NMat=     3 NSing=     3 JSym2X= 0.
 Root      1 has converged.
 Root      2 has converged.
 Root      3 not converged, maximum delta is    0.001085599416817
 Root      4 not converged, maximum delta is    0.001014596225729
 Root      5 has converged.
 Root      6 has converged.
 Root      7 has converged.
 Root      8 has converged.
 Root      9 has converged.
 Root     10 has converged.
 Root     11 not converged, maximum delta is    0.001769442141539
 Root     12 not converged, maximum delta is    0.002359886185951
 Root     13 has converged.
 Root     14 has converged.
 Root     15 not converged, maximum delta is    0.040268598626328
 Root     16 not converged, maximum delta is    0.044098419914514
 Root     17 has converged.
 Root     18 has converged.
 Root     19 has converged.
 Root     20 not converged, maximum delta is    0.001404611934987
 Root     21 not converged, maximum delta is    0.007724861481831
 Root     22 not converged, maximum delta is    0.012215354399453
 Root     23 not converged, maximum delta is    0.002295151410592
 Root     24 not converged, maximum delta is    0.001661676696113
[...]
     7  H    0.000030   0.000004  -0.000011  -0.000000  -0.000000  -0.000004
     8  C    0.000049   0.000011  -0.000019  -0.000016  -0.000004   0.000001
     9  H   -0.000123   0.000000   0.000000   0.000007   0.000021   0.000000
    10  H    0.000010   0.000000  -0.000000  -0.000000  -0.000010  -0.000000
    11  H    0.000911  -0.000001   0.000001   0.000004   0.000031  -0.000003
    12  C   -0.000417   0.000001  -0.000000  -0.000006   0.000009   0.000004
    13  C    0.000123  -0.000000  -0.000000  -0.000000  -0.000005  -0.000000
    14  C    0.002857   0.000004   0.000000   0.000029   0.000002  -0.000062
    15  C   -0.000001   0.000000  -0.000000   0.000000  -0.000000   0.000000
    16  H   -0.000000  -0.000000   0.000000  -0.000000   0.000000   0.000000
    17  C   -0.000038   0.000000  -0.000000  -0.000004  -0.000016  -0.000001
    18  H    0.000126  -0.000011  -0.000000  -0.000110   0.000002  -0.000003
    19  C   -0.000088  -0.000000   0.000000  -0.000001   0.000006   0.000000
    20  H   -0.000000  -0.000000   0.000000   0.000000   0.000000   0.000000
    21  H   -0.000004   0.000000  -0.000000  -0.000005   0.000000   0.000000
    22  H    0.000000   0.000000  -0.000000   0.000000  -0.000000  -0.000000
    23  C   -0.007105   0.000416   0.000855   0.000908   0.000528   0.000586
    24  C    0.005786   0.001039   0.000532   0.000513  -0.000013  -0.008897
    25  C    0.198726   0.000408   0.000014   0.002074   0.000834  -0.008473
    26  C    0.000408  -0.098518   0.000438  -0.000153  -0.000014  -0.001392
    27  H    0.000014   0.000438  -0.009591  -0.000014   0.000001   0.000004
    28  C    0.002074  -0.000153  -0.000014  -0.098924   0.000315  -0.002766
    29  H    0.000834  -0.000014   0.000001   0.000315  -0.009478   0.000009
    30  C   -0.008473  -0.001392   0.000004  -0.002766   0.000009   0.220852
    31  H   -0.000008   0.000345   0.000032   0.000001  -0.000000  -0.000438
    32  H   -0.000407   0.000001  -0.000000   0.000420   0.000026  -0.000406
    33  H    0.000015   0.000087   0.000002   0.000085   0.000003   0.001070
    34  O    0.000270   0.000002   0.000021   0.000001   0.000000  -0.000002
    35  H    0.000019   0.000002  -0.000006  -0.000000  -0.000000  -0.000000
              31         32         33         34         35
     1  C    0.000000   0.000000  -0.000000  -0.006044  -0.003596
     2  C   -0.000002  -0.000003   0.000000  -0.072806  -0.012694
     3  O   -0.000000  -0.000000   0.000000   0.003198   0.005189
     4  C    0.000000  -0.000000  -0.000000   0.000136   0.000193
     5  H    0.000000   0.000000  -0.000000  -0.000089  -0.000057
     6  H   -0.000003  -0.000000   0.000000   0.000300   0.000060
     7  H   -0.000000  -0.000000   0.000000   0.001427   0.000810
     8  C   -0.000000  -0.000000   0.000000   0.000619   0.001555
     9  H   -0.000000  -0.000000   0.000000  -0.000021   0.000052
    10  H   -0.000000  -0.000000   0.000000  -0.000716   0.002321
    11  H    0.000000   0.000000  -0.000000   0.002655  -0.001044
    12  C    0.000000   0.000000  -0.000000   0.000189   0.000260
    13  C   -0.000000  -0.000000   0.000000   0.000011   0.000027
    14  C   -0.000000  -0.000002   0.000000   0.000025   0.000014
    15  C    0.000000   0.000000  -0.000000   0.000000  -0.000000
    16  H    0.000000   0.000000  -0.000000  -0.000000   0.000001
    17  C    0.000000  -0.000000   0.000000  -0.000000  -0.000000
    18  H   -0.000000  -0.000000   0.000000   0.000002   0.000001
    19  C    0.000000   0.000000  -0.000000  -0.000000  -0.000000
    20  H    0.000000   0.000000  -0.000000  -0.000000  -0.000000
    21  H    0.000000   0.000000  -0.000000  -0.000000  -0.000000
    22  H   -0.000000  -0.000000   0.000000   0.000000   0.000000
    23  C    0.000006  -0.000013  -0.000030   0.001142   0.000435
    24  C   -0.000381  -0.000006   0.000012   0.001889   0.000106
    25  C   -0.000008  -0.000407   0.000015   0.000270   0.000019
    26  C    0.000345   0.000001   0.000087   0.000002   0.000002
    27  H    0.000032  -0.000000   0.000002   0.000021  -0.000006
    28  C    0.000001   0.000420   0.000085   0.000001  -0.000000
    29  H   -0.000000   0.000026   0.000003   0.000000  -0.000000
    30  C   -0.000438  -0.000406   0.001070  -0.000002  -0.000000
    31  H    0.003888  -0.000000   0.000051  -0.000000  -0.000000
    32  H   -0.000000   0.003802   0.000054   0.000000  -0.000000
    33  H    0.000051   0.000054  -0.010505   0.000000   0.000000
    34  O   -0.000000   0.000000   0.000000   0.135420  -0.001158
    35  H   -0.000000  -0.000000   0.000000  -0.001158   0.016936
 Mulliken charges and spin densities:
               1          2
     1  C    0.354879   0.044015
     2  C    0.223709   0.552371
     3  O   -0.569522   0.075407
     4  C   -0.368556  -0.002373
     5  H    0.139796   0.003019
     6  H    0.131198   0.000822
     7  H    0.125610   0.000958
     8  C   -0.355720  -0.036563
     9  H    0.131411   0.002251
    10  H    0.128729   0.011354
    11  H    0.132983   0.031650
    12  C    0.076791  -0.021358
    13  C   -0.115183   0.032492
    14  C   -0.118003   0.027480
    15  C   -0.101431  -0.015976
    16  H    0.108417  -0.001527
    17  C   -0.108125  -0.016421
    18  H    0.107889  -0.001144
    19  C   -0.091417   0.034272
    20  H    0.106392   0.000576
    21  H    0.107408   0.000582
    22  H    0.108242  -0.001539
    23  C    0.101604  -0.147120
    24  C   -0.128507   0.184077
    25  C   -0.128911   0.179691
    26  C   -0.100673  -0.097487
    27  H    0.107967  -0.007985
    28  C   -0.108438  -0.097684
    29  H    0.100751  -0.007777
    30  C   -0.101955   0.200244
    31  H    0.101940   0.003490
    32  H    0.102599   0.003465
    33  H    0.101617  -0.009155
    34  O   -0.544944   0.066471
    35  H    0.341452   0.009425
 Sum of Mulliken charges =  -0.00000   1.00000
 Mulliken charges and spin densities with hydrogens summed into heavy atoms:
               1          2
     1  C    0.354879   0.044015
     2  C    0.223709   0.552371
     3  O   -0.569522   0.075407
     4  C    0.028047   0.002425
     8  C    0.037403   0.008691
    12  C    0.076791  -0.021358
    13  C   -0.006766   0.030965
    14  C   -0.010113   0.026335
    15  C    0.004961  -0.015400
    17  C   -0.000717  -0.015839
    19  C    0.016825   0.032733
    23  C    0.101604  -0.147120
    24  C   -0.020540   0.176091
    25  C   -0.028160   0.171914
    26  C    0.001267  -0.093996
    28  C   -0.005839  -0.094220
    30  C   -0.000338   0.191090
    34  O   -0.203492   0.075896
 Electronic spatial extent (au):  <R**2>=           4104.7225
 Charge=              0.0000 electrons
 Dipole moment (field-independent basis, Debye):
    X=             -0.2259    Y=              3.5190    Z=              0.0116  Tot=              3.5262
 Quadrupole moment (field-independent basis, Debye-Ang):
   XX=           -102.6463   YY=           -103.3802   ZZ=           -101.4066
   XY=             -2.5277   XZ=             -7.8616   YZ=             -0.3845
 Traceless Quadrupole moment (field-independent basis, Debye-Ang):
   XX=             -0.1686   YY=             -0.9025   ZZ=              1.0711
   XY=             -2.5277   XZ=             -7.8616   YZ=             -0.3845
 Octapole moment (field-independent basis, Debye-Ang**2):
  XXX=             -8.3875  YYY=             22.2264  ZZZ=             -0.5409  XYY=              4.7445
  XXY=             19.7597  XXZ=             -1.4755  XZZ=             -1.8448  YZZ=            -13.5258
  YYZ=              4.0754  XYZ=              0.7074
 Hexadecapole moment (field-independent basis, Debye-Ang**3):
 XXXX=          -2915.1275 YYYY=          -1616.8374 ZZZZ=           -744.1796 XXXY=             -7.4508
 XXXZ=           -146.8871 YYYX=            -30.2776 YYYZ=            -13.9352 ZZZX=             -0.0409
 ZZZY=              0.9086 XXYY=           -758.4138 XXZZ=           -645.8113 YYZZ=           -404.4167
 XXYZ=              5.1115 YYXZ=            -23.4911 ZZXY=              2.9654
 N-N= 1.313743426130D+03 E-N=-4.417657349872D+03  KE= 7.631677773251D+02
 Leave Link  601 at Sat May 25 04:49:46 2019, MaxMem=   104857600 cpu:               4.5 elap:               0.2
 (Enter /opt/software/gaussian/g16.b01/l9999.exe)
 Electronic transition elements 
                 1             2             3             4             5 
      1  -0.770333D+03 -0.770316D+03 -0.770307D+03 -0.770305D+03 -0.770302D+03
      2  -0.154593D+01  0.156723D+00 -0.402404D+00 -0.589448D+00  0.396965D-01
      3  -0.931313D-01  0.870737D-01  0.587161D-01 -0.255313D-01  0.157898D+00
      4  -0.540253D+00  0.102252D+00 -0.482995D-01 -0.621548D-01  0.405971D-01
      5   0.132435D+00 -0.138046D-01  0.438026D-01  0.672966D-01 -0.283103D-02
      6   0.844476D-02 -0.803983D-02 -0.786553D-02  0.404542D-02 -0.161396D-01
      7   0.471312D-01 -0.113242D-01  0.686686D-02  0.553028D-02 -0.628790D-02
      8  -0.218605D+00  0.119755D+00 -0.201870D+00 -0.128754D+00 -0.488672D-03
      9   0.605886D-01  0.418893D+00  0.402200D-01  0.133637D-02 -0.113583D+00
     10   0.387714D+00 -0.334795D+00  0.313585D+00  0.387300D+00 -0.682739D-01
     11   0.657959D-01 -0.539699D-01  0.102420D-01  0.136283D-01 -0.117894D+00
     12  -0.500459D-01  0.123388D-01 -0.139932D-01 -0.351632D-02  0.424000D-01
     13   0.864380D-02  0.233462D-01  0.489283D-02  0.714351D-02 -0.389583D-03
     14   0.177659D+00 -0.183704D-01  0.213226D+00  0.223540D+00 -0.532717D-02
     15  -0.104928D-01  0.319549D-02 -0.879296D-03  0.248726D-02  0.267482D-01
     16  -0.899708D-01  0.274849D-01  0.239737D-01  0.125444D-01  0.724896D-02
                 6             7             8             9            10 
      1  -0.770295D+03 -0.770286D+03 -0.770285D+03 -0.770278D+03 -0.770272D+03
      2  -0.209083D+00  0.265414D-01 -0.153989D+00 -0.326421D-01 -0.526628D+00
      3   0.103257D+00 -0.110261D+00  0.106113D+00  0.202804D-01  0.319818D-01
      4   0.119416D+00 -0.855168D-01  0.131796D+00 -0.116493D-01  0.180303D+00
      5   0.293936D-01 -0.491851D-02  0.199436D-01  0.612021D-02  0.783693D-01
      6  -0.185731D-01  0.189437D-01 -0.141822D-01 -0.128973D-02 -0.344263D-02
      7  -0.177299D-01  0.125025D-01 -0.182010D-01  0.174886D-02 -0.279664D-01
      8  -0.260448D+00  0.107203D+00 -0.390614D+00  0.110602D+00 -0.272639D+00
      9   0.964569D-01 -0.303228D+00  0.134197D+00  0.442860D+00  0.902082D-01
     10  -0.622770D+00  0.188317D+00 -0.709506D+00 -0.177836D+00  0.397178D+00
     11   0.136178D+00 -0.346396D+00  0.320690D-01 -0.942772D-01  0.101818D+00
     12  -0.493728D-01  0.863107D-01 -0.127461D-01  0.339423D-02 -0.126446D-01
     13  -0.276894D-01  0.751907D-01  0.193740D-01  0.637613D-01 -0.506372D-01
     14  -0.764850D-01  0.422220D-01 -0.154264D+00  0.101643D-01  0.395663D+00
     15  -0.573504D-01  0.101298D+00 -0.320113D-01  0.133017D-01 -0.968340D-02
     16  -0.518856D-01 -0.756739D-03 -0.803144D-01  0.971751D-02  0.105134D+00
                11            12            13            14            15 
      1  -0.770265D+03 -0.770264D+03 -0.770260D+03 -0.770254D+03 -0.770249D+03
      2  -0.526668D+00  0.217715D+00 -0.331806D+00 -0.141134D+00  0.316823D+00
      3  -0.846174D+00  0.197806D+00 -0.432637D+00  0.492509D+00  0.507175D-01
      4   0.134882D+00 -0.260946D-01  0.151783D+00  0.227796D-01  0.154909D+00
      5   0.809558D-01 -0.341607D-01  0.544459D-01  0.233452D-01 -0.540004D-01
      6   0.128105D+00 -0.308794D-01  0.700044D-01 -0.797326D-01 -0.992698D-02
      7  -0.203114D-01  0.427096D-02 -0.250444D-01 -0.482514D-02 -0.235948D-01
      8  -0.156388D+00  0.570532D-01 -0.162331D+00 -0.705818D-01 -0.442761D-01
      9   0.335312D+00 -0.132653D+00 -0.115065D+00 -0.947451D-01 -0.386814D+00
     10   0.496319D+00 -0.207899D+00 -0.576275D-01  0.120062D+00 -0.130767D+00
     11   0.816735D+00 -0.238035D+00  0.109780D-01 -0.377902D+00  0.274788D-01
     12  -0.102454D+00  0.446444D-01  0.470552D-01  0.326120D-01 -0.591216D-01
     13  -0.222115D+00  0.699868D-01 -0.435799D-01  0.989128D-01  0.114984D-01
     14   0.328821D+00 -0.109764D+00  0.124390D+00  0.117905D+00  0.610274D-01
     15  -0.112752D+00  0.273742D-01  0.475744D-01  0.472134D-01 -0.100921D-01
     16   0.106890D+00 -0.366715D-01  0.144023D-01  0.955246D-02  0.995251D-01
                16            17            18            19            20 
      1  -0.770249D+03 -0.770246D+03 -0.770244D+03 -0.770240D+03 -0.770235D+03
      2  -0.553468D-01  0.749511D-02  0.198726D+00 -0.103295D+00  0.103524D+00
      3   0.669154D-01 -0.630451D-02  0.580525D-01 -0.480152D+00  0.217264D+00
      4  -0.941588D-01 -0.617112D-02 -0.298366D+00  0.601904D-01 -0.170974D+00
      5   0.895310D-02 -0.289959D-02 -0.310641D-01  0.175109D-01 -0.167880D-01
      6  -0.124172D-01  0.134627D-02 -0.111694D-01  0.898540D-01 -0.399859D-01
      7   0.135955D-01  0.185328D-02  0.554113D-01 -0.115598D-01  0.323623D-01
      8   0.304071D-01  0.941721D-02 -0.556230D-01  0.390233D-01 -0.636601D-01
      9  -0.108411D-01  0.129631D-02 -0.330990D+00 -0.123696D+00 -0.123922D+00
     10   0.326349D-01  0.773941D-01 -0.294816D+00  0.765829D-01 -0.125093D+00
     11   0.183439D-02  0.194144D-01 -0.172032D+00 -0.157293D+00 -0.282227D+00
     12   0.324548D-01 -0.952451D-02 -0.598923D-01  0.160971D+00  0.166321D-03
     13  -0.371459D-01  0.326703D-02  0.110929D+00 -0.358774D-01  0.980864D-01
     14  -0.132003D+00  0.982763D-01 -0.251071D+00  0.995741D-01 -0.143992D+00
     15   0.283173D-03 -0.101518D-02  0.299941D-01  0.117123D+00  0.408865D-01
     16  -0.730821D-01  0.464257D-01 -0.183517D+00  0.372271D-01 -0.107200D+00
                21            22            23            24            25 
      1  -0.770234D+03 -0.770233D+03 -0.770231D+03 -0.770228D+03 -0.770221D+03
      2   0.333386D+00  0.544003D-01  0.183445D+00 -0.318501D-01 -0.103166D+00
      3  -0.105229D+00 -0.206917D+00 -0.135772D+00 -0.122629D+01  0.126363D+00
      4  -0.165365D+00  0.201998D+00 -0.282595D+00  0.605583D-01  0.886714D-01
      5  -0.601146D-01 -0.687072D-02 -0.383250D-01  0.475561D-02  0.211380D-01
      6   0.196570D-01  0.385639D-01  0.251126D-01  0.231309D+00 -0.258900D-01
      7   0.305443D-01 -0.387780D-01  0.531457D-01 -0.119553D-01 -0.182916D-01
      8   0.640779D-02 -0.163003D+00  0.237915D+00  0.192423D+00 -0.473989D-01
      9   0.170334D+00  0.248530D+00  0.384144D-01  0.453838D+00  0.396839D-01
     10   0.996566D-02 -0.160593D+00  0.812315D-01 -0.210071D+00 -0.755257D-01
     11   0.960466D-01  0.292082D+00  0.884138D-01  0.129759D+01  0.415241D-01
     12   0.840628D-01  0.515885D-01  0.112898D-01 -0.941288D-01 -0.486548D-01
     13  -0.975114D-01 -0.143860D+00 -0.156787D-01 -0.241167D+00  0.625148D-02
     14  -0.852583D-01 -0.548795D-01 -0.542480D-01 -0.201880D+00  0.298646D-02
     15  -0.108497D-02 -0.496895D-01 -0.594123D-03 -0.198348D+00 -0.382093D-01
     16  -0.883632D-02  0.247498D-01 -0.171054D-01 -0.546741D-02 -0.123706D-01
                26            27            28            29            30 
      1  -0.770217D+03 -0.770214D+03 -0.770212D+03 -0.770210D+03 -0.770206D+03
      2  -0.434497D+00 -0.534364D-01  0.559774D-01 -0.178493D+00 -0.489775D-01
      3   0.114188D+00  0.525691D-01 -0.362035D-01  0.694279D-01  0.466093D-01
      4   0.420479D+00  0.349947D-01 -0.283980D-01  0.919363D-01  0.577725D-02
      5   0.894347D-01  0.943562D-02 -0.116395D-01  0.381658D-01  0.112950D-01
      6  -0.210414D-01 -0.938675D-02  0.668970D-02 -0.129553D-01 -0.104393D-01
      7  -0.853074D-01 -0.853776D-02  0.442347D-02 -0.163756D-01 -0.820403D-03
      8  -0.228846D+00  0.110504D+00  0.177703D-01 -0.802228D-01 -0.879641D-01
      9  -0.542233D-01  0.167602D+00 -0.203684D-01  0.132441D-01 -0.714625D-01
     10   0.546260D+00  0.174248D-01 -0.624173D-01  0.667483D-01  0.719461D-01
     11  -0.540319D-02 -0.215187D-01  0.166514D-01 -0.760025D-01 -0.730013D-01
     12   0.481963D-01  0.977580D-01 -0.601956D-02  0.140617D-01 -0.422943D-02
     13  -0.654434D-01 -0.944717D-01  0.141697D-01 -0.111933D-01  0.370565D-01
     14   0.790688D+00 -0.688141D-02 -0.767849D-01  0.153774D+00  0.385856D-01
     15   0.140886D-01  0.914635D-02  0.765417D-02 -0.763172D-02  0.155480D-01
     16   0.251326D+00  0.131183D-01 -0.256988D-01  0.340116D-01 -0.128798D-01
                31            32            33            34            35 
      1  -0.770204D+03 -0.770203D+03 -0.770203D+03 -0.770201D+03 -0.770199D+03
      2  -0.303902D+00 -0.318032D-02 -0.659357D+00 -0.295175D+00  0.457580D+00
      3  -0.950744D-01 -0.791239D-01  0.298619D-01  0.893828D-02  0.932855D-01
      4   0.153636D+00  0.716527D-01  0.263065D+00  0.773680D-01 -0.107253D+00
      5   0.693324D-01  0.690440D-02  0.143206D+00  0.650121D-01 -0.987421D-01
      6   0.212965D-01  0.819973D-02 -0.534086D-02 -0.355270D-02 -0.216006D-01
      7  -0.349771D-01 -0.703549D-02 -0.628236D-01 -0.159692D-01  0.273573D-01
      8  -0.358145D+00 -0.684019D-01 -0.132703D+00 -0.144689D+00 -0.506113D-01
      9   0.178302D+00  0.258813D-01 -0.171656D+00 -0.244235D-01 -0.128960D-01
     10  -0.155124D-01  0.122651D-01 -0.453630D+00  0.173721D+00 -0.299557D+00
     11  -0.191041D-01  0.122147D+00 -0.287861D+00 -0.106546D-01 -0.678886D-01
     12  -0.381675D-01  0.584399D-02  0.859193D-01 -0.124931D-01 -0.531610D-01
     13   0.245848D-01  0.106519D+00  0.178966D-01  0.332443D-01  0.892931D-01
     14   0.166860D+00  0.188181D-02  0.188717D+00  0.321281D+00 -0.470730D+00
     15  -0.189163D-01  0.891647D-01  0.699822D-01  0.273285D-01 -0.101031D-01
     16   0.214725D-01 -0.266587D-01 -0.107568D+00  0.190347D-01 -0.685224D-01
                36 
      1  -0.770198D+03
      2  -0.316310D-01
      3  -0.275280D-01
      4  -0.606420D-02
      5   0.577236D-02
      6   0.504880D-02
      7   0.317848D-02
      8   0.273023D-01
      9  -0.963718D-01
     10   0.198773D+00
     11   0.358392D-01
     12  -0.316467D-01
     13   0.537178D-01
     14   0.257212D-01
     15   0.734627D-02
     16   0.267718D-01
 1\1\GINC-GRA677\SP\UB3LYP TD-FC\6-31G(d,p)\C16H17O2(2)\RZK\25-May-2019
 \0\\#p td=(50-50,nstates=36) ub3lyp/6-31g(d,p) scrf=(iefpcm,solvent=ac
 etonitrile) guess=(mix,always) empiricaldispersion=gd3\\Title Card Req
 uired\\0,2\C,0,-0.945554,-1.410729,-0.898479\C,0,0.744212,-1.250365,0.
 936998\O,0,-1.340918,-2.500556,-0.441433\C,0,0.05725,-1.413026,-2.0360
 34\H,0,-0.50802,-1.4059,-2.975889\H,0,0.727908,-0.554714,-2.040709\H,0
 ,0.64659,-2.328429,-1.987534\C,0,-0.243077,-1.185278,2.064314\H,0,-0.7
 09388,-0.20611,2.163137\H,0,-1.035163,-1.921846,1.906233\H,0,0.263651,
 -1.427325,3.008115\C,0,-1.665174,-0.147024,-0.564832\C,0,-2.835505,-0.
 226542,0.211456\C,0,-1.222451,1.115707,-0.994427\C,0,-3.539315,0.92302
 ,0.556053\H,0,-3.174872,-1.204891,0.532681\C,0,-1.926664,2.267634,-0.6
 45923\H,0,-0.318562,1.208953,-1.583845\C,0,-3.084577,2.175963,0.130003
 \H,0,-4.442247,0.846513,1.154416\H,0,-1.567672,3.237448,-0.976592\H,0,
 -3.630972,3.07458,0.400449\C,0,1.619807,-0.172576,0.574983\C,0,2.73931
 2,-0.40278,-0.269615\C,0,1.380251,1.159607,1.002769\C,0,3.563875,0.642
 95,-0.663107\H,0,2.938736,-1.412707,-0.607126\C,0,2.210794,2.198274,0.
 599923\H,0,0.533744,1.379899,1.641753\C,0,3.307604,1.952144,-0.234691\
 H,0,4.413884,0.440413,-1.308408\H,0,2.001748,3.209258,0.937281\H,0,3.9
 52955,2.767505,-0.546401\O,0,1.163706,-2.502604,0.595026\H,0,0.360659,
 -3.039247,0.437362\\Version=ES64L-G16RevB.01\State=2-A\HF=-770.4227611
 \S2=0.768492\S2-1=0.\S2A=0.750249\RMSD=7.687e-09\PG=C01 [X(C16H17O2)]\
 \@


 IT TAKES GREATER CHARACTER TO CARRY OFF GOOD FORTUNE THAN BAD.
                     FRENCH PROVERB.
 Job cpu time:       0 days 15 hours 30 minutes 33.6 seconds.
 Elapsed time:       0 days  0 hours 29 minutes  7.4 seconds.
 File lengths (MBytes):  RWF=   2178 Int=      0 D2E=      0 Chk=    178 Scr=      1
 Normal termination of Gaussian 16 at Sat May 25 04:49:47 2019.
