 Entering Gaussian System, Link 0=g16
 Initial command:
 /opt/software/gaussian/g16.b01/l1.exe "/localscratch/rzk.15153367.0/Gau-26103.inp" -scrdir="/localscratch/rzk.15153367.0/"
 Entering Link 1 = /opt/software/gaussian/g16.b01/l1.exe PID=     26108.
  
 Copyright (c) 1988-2017, Gaussian, Inc.  All Rights Reserved.
  
 This is part of the Gaussian(R) 16 program.  It is based on
 the Gaussian(R) 09 system (copyright 2009, Gaussian, Inc.),
 the Gaussian(R) 03 system (copyright 2003, Gaussian, Inc.),
 the Gaussian(R) 98 system (copyright 1998, Gaussian, Inc.),
 the Gaussian(R) 94 system (copyright 1995, Gaussian, Inc.),
 the Gaussian 92(TM) system (copyright 1992, Gaussian, Inc.),
 the Gaussian 90(TM) system (copyright 1990, Gaussian, Inc.),
 the Gaussian 88(TM) system (copyright 1988, Gaussian, Inc.),
 the Gaussian 86(TM) system (copyright 1986, Carnegie Mellon
 University), and the Gaussian 82(TM) system (copyright 1983,
 Carnegie Mellon University). Gaussian is a federally registered
 trademark of Gaussian, Inc.
  
 This software contains proprietary and confidential information,
 including trade secrets, belonging to Gaussian, Inc.
  
 This software is provided under written license and may be
 used, copied, transmitted, or stored only in accord with that
 written license.
  
 The following legend is applicable only to US Government
 contracts under FAR:
  
                    RESTRICTED RIGHTS LEGEND
  
 Use, reproduction and disclosure by the US Government is
 subject to restrictions as set forth in subparagraphs (a)
 and (c) of the Commercial Computer Software - Restricted
 Rights clause in FAR 52.227-19.
  
 Gaussian, Inc.
 340 Quinnipiac St., Bldg. 40, Wallingford CT 06492
  
  
 ---------------------------------------------------------------
 Warning -- This program may not be used in any manner that
 competes with the business of Gaussian, Inc. or will provide
 assistance to any competitor of Gaussian, Inc.  The licensee
 of this program is prohibited from giving any competitor of
 Gaussian, Inc. access to this program.  By using this program,
 the user acknowledges that Gaussian, Inc. is engaged in the
 business of creating and licensing software in the field of
 computational chemistry and represents and warrants to the
 licensee that it is not a competitor of Gaussian, Inc. and that
 it will not use this program in any manner prohibited above.
 ---------------------------------------------------------------
  

 Cite this work as:
 Gaussian 16, Revision B.01,
 M. J. Frisch, G. W. Trucks, H. B. Schlegel, G. E. Scuseria, 
 M. A. Robb, J. R. Cheeseman, G. Scalmani, V. Barone, 
 G. A. Petersson, H. Nakatsuji, X. Li, M. Caricato, A. V. Marenich, 
 J. Bloino, B. G. Janesko, R. Gomperts, B. Mennucci, H. P. Hratchian, 
 J. V. Ortiz, A. F. Izmaylov, J. L. Sonnenberg, D. Williams-Young, 
 F. Ding, F. Lipparini, F. Egidi, J. Goings, B. Peng, A. Petrone, 
 T. Henderson, D. Ranasinghe, V. G. Zakrzewski, J. Gao, N. Rega, 
 G. Zheng, W. Liang, M. Hada, M. Ehara, K. Toyota, R. Fukuda, 
 J. Hasegawa, M. Ishida, T. Nakajima, Y. Honda, O. Kitao, H. Nakai, 
 T. Vreven, K. Throssell, J. A. Montgomery, Jr., J. E. Peralta, 
 F. Ogliaro, M. J. Bearpark, J. J. Heyd, E. N. Brothers, K. N. Kudin, 
 V. N. Staroverov, T. A. Keith, R. Kobayashi, J. Normand, 
 K. Raghavachari, A. P. Rendell, J. C. Burant, S. S. Iyengar, 
 J. Tomasi, M. Cossi, J. M. Millam, M. Klene, C. Adamo, R. Cammi, 
 J. W. Ochterski, R. L. Martin, K. Morokuma, O. Farkas, 
 J. B. Foresman, and D. J. Fox, Gaussian, Inc., Wallingford CT, 2016.
 
 ******************************************
 Gaussian 16:  ES64L-G16RevB.01 20-Dec-2017
                25-May-2019 
 ******************************************
 %NProcShared=32
 Will use up to   32 processors via shared memory.
 %chk=AH-A_4.chk
 ----------------------------------------------------------------------
 #p td=(50-50,nstates=36) ub3lyp/6-31g(d,p) scrf=(iefpcm,solvent=aceton
 itrile) guess=(mix,always) empiricaldispersion=gd3
 ----------------------------------------------------------------------
 1/38=1,172=1/1;
 2/12=2,17=6,18=5,40=1/2;
 3/5=1,6=6,7=101,11=2,25=1,30=1,70=2201,72=2,74=-5,116=2,124=31/1,2,3,8;
 4/13=-1/1;
 5/5=2,38=5,53=2/2;
 8/6=1,10=2,108=36/1;
 9/41=36,42=1,48=2,70=2/14;
 6/7=2,8=2,9=2,10=2/1;
 99/5=1,9=1/99;
 Leave Link    1 at Sat May 25 04:19:04 2019, MaxMem=           0 cpu:               2.5 elap:               0.1
 (Enter /opt/software/gaussian/g16.b01/l101.exe)
 -------------------
 Title Card Required
 -------------------
 Symbolic Z-matrix:
 Charge =  0 Multiplicity = 2
 C                    -1.22576  -1.4468   -0.97949 
 C                     0.78609  -1.29336   1.10351 
 O                    -1.62869  -2.45005  -0.37945 
 C                    -0.25593  -1.5866   -2.13125 
 H                    -0.69889  -1.18274  -3.04778 
 H                     0.66732  -1.03265  -1.93985 
 H                    -0.01854  -2.64113  -2.27067 
 C                    -0.23589  -1.18488   2.18817 
 H                    -0.58883  -0.1638    2.33005 
 H                    -1.1054   -1.80315   1.93955 
 H                     0.16878  -1.54864   3.14284 
 C                    -1.7244   -0.09117  -0.61491 
 C                    -2.79168   0.01488   0.29412 
 C                    -1.14681   1.08135  -1.12993 
 C                    -3.26731   1.26297   0.6834 
 H                    -3.2327   -0.89614   0.68323 
 C                    -1.61929   2.3313   -0.73325 
 H                    -0.31372   1.0246   -1.82094 
 C                    -2.67922   2.42533   0.17207 
 H                    -4.09364   1.33426   1.38409 
 H                    -1.15632   3.23123  -1.12579 
 H                    -3.04629   3.40014   0.47897 
 C                     1.63824  -0.2539    0.64299 
 C                     2.64462  -0.51713  -0.33395 
 C                     1.50453   1.09059   1.09538 
 C                     3.44496   0.50284  -0.82978 
 H                     2.77528  -1.53314  -0.68747 
 C                     2.31263   2.09873   0.58924 
 H                     0.75494   1.33964   1.83753 
 C                     3.28907   1.82071  -0.37789 
 H                     4.20092   0.27227  -1.57547 
 H                     2.181     3.1156    0.94839 
 H                     3.91645   2.61497  -0.77004 
 O                     1.0466   -2.55305   0.64039 
 H                     0.20325  -3.03554   0.57519 
 
 ITRead=  0  0  0  0  0  0  0  0  0  0  0  0  0  0  0  0  0  0  0  0
 ITRead=  0  0  0  0  0  0  0  0  0  0  0  0  0  0  0
 MicOpt= -1 -1 -1 -1 -1 -1 -1 -1 -1 -1 -1 -1 -1 -1 -1 -1 -1 -1 -1 -1
 MicOpt= -1 -1 -1 -1 -1 -1 -1 -1 -1 -1 -1 -1 -1 -1 -1
 NAtoms=     35 NQM=       35 NQMF=       0 NMMI=      0 NMMIF=      0
                NMic=       0 NMicF=      0.
                    Isotopes and Nuclear Properties:
 (Nuclear quadrupole moments (NQMom) in fm**2, nuclear magnetic moments (NMagM)
  in nuclear magnetons)

  Atom         1           2           3           4           5           6           7           8           9          10
 IAtWgt=          12          12          16          12           1           1           1          12           1           1
 AtmWgt=  12.0000000  12.0000000  15.9949146  12.0000000   1.0078250   1.0078250   1.0078250  12.0000000   1.0078250   1.0078250
 NucSpn=           0           0           0           0           1           1           1           0           1           1
 AtZEff=  -0.0000000  -0.0000000  -0.0000000  -0.0000000  -0.0000000  -0.0000000  -0.0000000  -0.0000000  -0.0000000  -0.0000000
 NQMom=    0.0000000   0.0000000   0.0000000   0.0000000   0.0000000   0.0000000   0.0000000   0.0000000   0.0000000   0.0000000
 NMagM=    0.0000000   0.0000000   0.0000000   0.0000000   2.7928460   2.7928460   2.7928460   0.0000000   2.7928460   2.7928460
 AtZNuc=   6.0000000   6.0000000   8.0000000   6.0000000   1.0000000   1.0000000   1.0000000   6.0000000   1.0000000   1.0000000

  Atom        11          12          13          14          15          16          17          18          19          20
 IAtWgt=           1          12          12          12          12           1          12           1          12           1
 AtmWgt=   1.0078250  12.0000000  12.0000000  12.0000000  12.0000000   1.0078250  12.0000000   1.0078250  12.0000000   1.0078250
 NucSpn=           1           0           0           0           0           1           0           1           0           1
 AtZEff=  -0.0000000  -0.0000000  -0.0000000  -0.0000000  -0.0000000  -0.0000000  -0.0000000  -0.0000000  -0.0000000  -0.0000000
 NQMom=    0.0000000   0.0000000   0.0000000   0.0000000   0.0000000   0.0000000   0.0000000   0.0000000   0.0000000   0.0000000
 NMagM=    2.7928460   0.0000000   0.0000000   0.0000000   0.0000000   2.7928460   0.0000000   2.7928460   0.0000000   2.7928460
 AtZNuc=   1.0000000   6.0000000   6.0000000   6.0000000   6.0000000   1.0000000   6.0000000   1.0000000   6.0000000   1.0000000

  Atom        21          22          23          24          25          26          27          28          29          30
 IAtWgt=           1           1          12          12          12          12           1          12           1          12
 AtmWgt=   1.0078250   1.0078250  12.0000000  12.0000000  12.0000000  12.0000000   1.0078250  12.0000000   1.0078250  12.0000000
 NucSpn=           1           1           0           0           0           0           1           0           1           0
 AtZEff=  -0.0000000  -0.0000000  -0.0000000  -0.0000000  -0.0000000  -0.0000000  -0.0000000  -0.0000000  -0.0000000  -0.0000000
 NQMom=    0.0000000   0.0000000   0.0000000   0.0000000   0.0000000   0.0000000   0.0000000   0.0000000   0.0000000   0.0000000
 NMagM=    2.7928460   2.7928460   0.0000000   0.0000000   0.0000000   0.0000000   2.7928460   0.0000000   2.7928460   0.0000000
 AtZNuc=   1.0000000   1.0000000   6.0000000   6.0000000   6.0000000   6.0000000   1.0000000   6.0000000   1.0000000   6.0000000

  Atom        31          32          33          34          35
 IAtWgt=           1           1           1          16           1
 AtmWgt=   1.0078250   1.0078250   1.0078250  15.9949146   1.0078250
 NucSpn=           1           1           1           0           1
 AtZEff=  -0.0000000  -0.0000000  -0.0000000  -0.0000000  -0.0000000
 NQMom=    0.0000000   0.0000000   0.0000000   0.0000000   0.0000000
 NMagM=    2.7928460   2.7928460   2.7928460   0.0000000   2.7928460
 AtZNuc=   1.0000000   1.0000000   1.0000000   8.0000000   1.0000000
 Leave Link  101 at Sat May 25 04:19:05 2019, MaxMem=   104857600 cpu:               5.0 elap:               0.2
 (Enter /opt/software/gaussian/g16.b01/l202.exe)
                          Input orientation:                          
 ---------------------------------------------------------------------
 Center     Atomic      Atomic             Coordinates (Angstroms)
 Number     Number       Type             X           Y           Z
 ---------------------------------------------------------------------
      1          6           0       -1.225765   -1.446801   -0.979493
      2          6           0        0.786088   -1.293356    1.103510
      3          8           0       -1.628687   -2.450050   -0.379446
      4          6           0       -0.255934   -1.586603   -2.131248
      5          1           0       -0.698885   -1.182735   -3.047784
      6          1           0        0.667318   -1.032653   -1.939850
      7          1           0       -0.018538   -2.641133   -2.270674
      8          6           0       -0.235892   -1.184875    2.188174
      9          1           0       -0.588834   -0.163797    2.330045
     10          1           0       -1.105404   -1.803154    1.939550
     11          1           0        0.168777   -1.548643    3.142844
     12          6           0       -1.724395   -0.091174   -0.614911
     13          6           0       -2.791675    0.014878    0.294116
     14          6           0       -1.146805    1.081351   -1.129930
     15          6           0       -3.267315    1.262967    0.683403
     16          1           0       -3.232702   -0.896136    0.683230
     17          6           0       -1.619291    2.331295   -0.733251
     18          1           0       -0.313722    1.024599   -1.820935
     19          6           0       -2.679215    2.425329    0.172068
     20          1           0       -4.093637    1.334261    1.384086
     21          1           0       -1.156324    3.231230   -1.125791
     22          1           0       -3.046290    3.400138    0.478967
     23          6           0        1.638241   -0.253896    0.642987
     24          6           0        2.644621   -0.517131   -0.333946
     25          6           0        1.504525    1.090591    1.095380
     26          6           0        3.444960    0.502835   -0.829776
     27          1           0        2.775277   -1.533136   -0.687465
     28          6           0        2.312633    2.098726    0.589235
     29          1           0        0.754940    1.339638    1.837532
     30          6           0        3.289071    1.820705   -0.377886
     31          1           0        4.200924    0.272269   -1.575468
     32          1           0        2.180998    3.115600    0.948385
     33          1           0        3.916451    2.614967   -0.770039
     34          8           0        1.046598   -2.553052    0.640394
     35          1           0        0.203245   -3.035541    0.575187
 ---------------------------------------------------------------------
                    Distance matrix (angstroms):
                    1          2          3          4          5
     1  C    0.000000
     2  C    2.900000   0.000000
     3  O    1.236491   3.060758   0.000000
     4  C    1.512169   3.411079   2.387216   0.000000
     5  H    2.150619   4.410286   3.096877   1.095150   0.000000
     6  H    2.162768   3.056814   3.116972   1.093567   1.765376
     7  H    2.133301   3.721430   2.491152   1.089876   1.787092
     8  C    3.329049   1.494225   3.183272   4.338109   5.256389
     9  H    3.606220   2.161181   3.694535   4.694500   5.474613
    10  H    2.943176   2.129929   2.463746   4.164119   5.042190
    11  H    4.353020   2.145956   4.055852   5.291301   6.261837
    12  C    1.489724   3.271198   2.372530   2.586883   2.856930
    13  C    2.492119   3.894481   2.807507   3.857086   4.120964
    14  C    2.533854   3.789929   3.642284   2.985677   3.000814
    15  C    3.778358   4.810546   4.195384   5.011060   5.147820
    16  H    2.663771   4.060184   2.473215   4.154417   4.519163
    17  C    3.806509   4.722037   4.794427   4.377564   4.307275
    18  H    2.765441   3.890357   3.984998   2.630211   2.554571
    19  C    4.293251   5.167642   5.017678   5.222371   5.225637
    20  H    4.641713   5.549307   4.848405   5.967997   6.123813
    21  H    4.680833   5.405056   5.749530   5.003315   4.835948
    22  H    5.379055   6.091474   6.080392   6.282268   6.241074
    23  C    3.501142   1.420818   4.067097   3.613916   4.466172
    24  C    4.032481   2.474460   4.690353   3.575931   4.357405
    25  C    4.265904   2.489864   4.952602   4.547275   5.214291
    26  C    5.063513   3.746131   5.887633   4.444794   4.993211
    27  H    4.012614   2.687370   4.508936   3.357917   4.214699
    28  C    5.248993   3.755135   6.096205   5.251687   5.750229
    29  H    4.429793   2.733572   4.995839   5.033485   5.687028
    30  C    5.605557   4.261084   6.513347   5.220257   5.661519
    31  H    5.723578   4.614023   6.544147   4.860852   5.319105
    32  H    6.011510   4.626957   6.874103   6.126458   6.537490
    33  H    6.556235   5.346433   7.520340   6.075761   6.396248
    34  O    3.001909   1.367178   2.864932   3.211326   4.304316
    35  H    2.642573   1.911554   2.147114   3.104039   4.168051
                    6          7          8          9         10
     6  H    0.000000
     7  H    1.779621   0.000000
     8  C    4.228421   4.695663   0.000000
     9  H    4.534846   5.256334   1.089631   0.000000
    10  H    4.334277   4.428258   1.095506   1.762618   0.000000
    11  H    5.133086   5.525830   1.098853   1.775504   1.770940
    12  C    2.891736   3.486229   3.356949   3.157141   3.136765
    13  C    4.248830   4.617665   3.399837   3.004903   2.975937
    14  C    2.901039   4.053538   4.120116   3.719295   4.212338
    15  C    5.256678   5.875638   4.176816   3.452730   3.956370
    16  H    4.702057   4.701214   3.365872   3.199743   2.631809
    17  C    4.242712   5.445284   4.776188   4.083027   4.949910
    18  H    2.282294   3.704995   4.578295   4.326501   4.771184
    19  C    5.255199   6.222156   4.802924   3.966123   4.845714
    20  H    6.270369   6.765165   4.677050   3.927169   4.368232
    21  H    4.708403   6.090153   5.597459   4.877608   5.894398
    22  H    6.268269   7.295530   5.642878   4.708207   5.742350
    23  C    2.867089   4.115002   2.601288   2.795379   3.407178
    24  C    2.598926   3.918509   3.886429   4.204393   4.570047
    25  C    3.797592   5.251267   3.066104   2.734966   3.987244
    26  C    3.362333   4.894542   5.050253   5.167239   5.804530
    27  H    2.502487   3.397000   4.178244   4.722044   4.694018
    28  C    4.348433   6.006638   4.453495   4.070374   5.360130
    29  H    4.461396   5.772535   2.734568   2.075720   3.653550
    30  C    4.177915   5.867787   5.295615   5.129258   6.149331
    31  H    3.784437   5.174464   5.997800   6.195560   6.694763
    32  H    5.276470   6.952717   5.086504   4.509479   5.998082
    33  H    5.022993   6.735179   6.358599   6.134301   7.216695
    34  O    3.018795   3.101063   2.431525   3.352327   2.623217
    35  H    3.248436   2.881609   2.493899   3.457431   2.256729
                   11         12         13         14         15
    11  H    0.000000
    12  C    4.452981   0.000000
    13  C    4.395921   1.405939   0.000000
    14  C    5.186928   1.404874   2.422988   0.000000
    15  C    5.075503   2.428975   1.391224   2.796019   0.000000
    16  H    4.248003   2.146654   1.084371   3.398378   2.159380
    17  C    5.768468   2.427634   2.792088   1.393900   2.421614
    18  H    5.611905   2.165512   3.410752   1.083852   3.879722
    19  C    5.720928   2.804248   2.416157   2.418627   1.399432
    20  H    5.438064   3.411915   2.150328   3.881760   1.085747
    21  H    6.544030   3.409116   3.877555   2.149904   3.406395
    22  H    6.474823   3.890146   3.399851   3.401965   2.158274
    23  C    3.175686   3.593899   4.451753   3.561264   5.134879
    24  C    4.391115   4.398714   5.498255   4.190900   6.257374
    25  C    3.597484   3.840259   4.500724   3.461451   4.792692
    26  C    5.542892   5.207806   6.355852   4.637788   6.922582
    27  H    4.633071   4.725629   5.860956   4.734347   6.797822
    28  C    4.941694   4.747971   5.521184   3.994783   5.642976
    29  H    3.223289   3.769456   4.088472   3.534003   4.185263
    30  C    5.786560   5.370875   6.378720   4.559519   6.665103
    31  H    6.468106   6.013665   7.242792   5.426907   7.865022
    32  H    5.533520   5.289555   5.896611   4.419484   5.760779
    33  H    6.833108   6.258307   7.272678   5.302647   7.452979
    34  O    2.835783   3.913443   4.631038   4.599342   5.759661
    35  H    2.967308   3.715027   4.284111   4.656056   5.525728
                   16         17         18         19         20
    16  H    0.000000
    17  C    3.876316   0.000000
    18  H    4.298896   2.143600   0.000000
    19  C    3.405843   1.397098   3.395536   0.000000
    20  H    2.491401   3.405816   4.965461   2.158705   0.000000
    21  H    4.961759   1.085499   2.462199   2.157107   4.304159
    22  H    4.305165   2.155974   4.289483   1.085902   2.486770
    23  C    4.913265   4.380497   3.393467   5.102983   5.993821
    24  C    5.976723   5.143338   3.652377   6.103880   7.196069
    25  C    5.153472   3.826417   3.437335   4.487506   5.610895
    26  C    6.988382   5.385093   3.922031   6.496552   7.900816
    27  H    6.195191   5.852192   4.167575   6.794095   7.726271
    28  C    6.303077   4.154887   3.722957   5.019885   6.500499
    29  H    4.715123   3.637208   3.824352   3.968112   4.869737
    30  C    7.144278   4.947626   3.961855   6.023990   7.605626
    31  H    7.856569   6.230876   4.583479   7.417942   8.870543
    32  H    6.743329   4.229093   4.273763   4.969991   6.537128
    33  H    8.096309   5.543128   4.639829   6.665309   8.392972
    34  O    4.589076   5.731554   4.550626   6.235807   6.487395
    35  H    4.049007   5.816922   4.742720   6.188068   6.181641
                   21         22         23         24         25
    21  H    0.000000
    22  H    2.485106   0.000000
    23  C    4.804609   5.943374   0.000000
    24  C    5.396704   6.956457   1.427057   0.000000
    25  C    4.073825   5.140417   1.424845   2.434658   0.000000
    26  C    5.357572   7.227966   2.450695   1.388064   2.795885
    27  H    6.192641   7.719352   2.167812   1.083657   3.417205
    28  C    4.032064   5.515785   2.447963   2.793776   1.387645
    29  H    4.001541   4.532186   2.178648   3.425464   1.083832
    30  C    4.723397   6.585257   2.841019   2.425433   2.426558
    31  H    6.136592   8.156370   3.430122   2.141637   3.882480
    32  H    3.931068   5.256030   3.426566   3.880213   2.140067
    33  H    5.122439   7.117322   3.926482   3.408484   3.408944
    34  O    6.436629   7.226220   2.374061   2.765500   3.700384
    35  H    6.634318   7.210180   3.130712   3.623428   4.357625
                   26         27         28         29         30
    26  C    0.000000
    27  H    2.148000   0.000000
    28  C    2.417152   3.877425   0.000000
    29  H    3.879559   4.325529   2.135619   0.000000
    30  C    1.401887   3.407062   1.402159   3.400194   0.000000
    31  H    1.086600   2.465868   3.404046   4.966151   2.159475
    32  H    3.403821   4.963861   1.086439   2.445049   2.159531
    33  H    2.164942   4.303005   2.164801   4.291974   1.085468
    34  O    4.153551   2.406609   4.821255   4.083043   5.019495
    35  H    5.000274   3.235253   5.550713   4.586946   5.832135
                   31         32         33         34         35
    31  H    0.000000
    32  H    4.305167   0.000000
    33  H    2.493567   2.493073   0.000000
    34  O    4.779357   5.789243   6.077318   0.000000
    35  H    5.616793   6.472041   6.893894   0.973803   0.000000
 Stoichiometry    C16H17O2(2)
 Framework group  C1[X(C16H17O2)]
 Deg. of freedom    99
 Full point group                 C1      NOp   1
 Largest Abelian subgroup         C1      NOp   1
 Largest concise Abelian subgroup C1      NOp   1
                         Standard orientation:                         
 ---------------------------------------------------------------------
 Center     Atomic      Atomic             Coordinates (Angstroms)
 Number     Number       Type             X           Y           Z
 ---------------------------------------------------------------------
      1          6           0       -1.225765   -1.446801   -0.979493
      2          6           0        0.786088   -1.293356    1.103510
      3          8           0       -1.628687   -2.450050   -0.379446
      4          6           0       -0.255934   -1.586603   -2.131248
      5          1           0       -0.698885   -1.182735   -3.047784
      6          1           0        0.667318   -1.032653   -1.939850
      7          1           0       -0.018538   -2.641133   -2.270674
      8          6           0       -0.235892   -1.184875    2.188174
      9          1           0       -0.588834   -0.163797    2.330045
     10          1           0       -1.105404   -1.803154    1.939550
     11          1           0        0.168777   -1.548643    3.142844
     12          6           0       -1.724395   -0.091174   -0.614911
     13          6           0       -2.791675    0.014878    0.294116
     14          6           0       -1.146805    1.081351   -1.129930
     15          6           0       -3.267315    1.262967    0.683403
     16          1           0       -3.232702   -0.896136    0.683230
     17          6           0       -1.619291    2.331295   -0.733251
     18          1           0       -0.313722    1.024599   -1.820935
     19          6           0       -2.679215    2.425329    0.172068
     20          1           0       -4.093637    1.334261    1.384086
     21          1           0       -1.156324    3.231230   -1.125791
     22          1           0       -3.046290    3.400138    0.478967
     23          6           0        1.638241   -0.253896    0.642987
     24          6           0        2.644621   -0.517131   -0.333946
     25          6           0        1.504525    1.090591    1.095380
     26          6           0        3.444960    0.502835   -0.829776
     27          1           0        2.775277   -1.533136   -0.687465
     28          6           0        2.312633    2.098726    0.589235
     29          1           0        0.754940    1.339638    1.837532
     30          6           0        3.289071    1.820705   -0.377886
     31          1           0        4.200924    0.272269   -1.575468
     32          1           0        2.180998    3.115600    0.948385
     33          1           0        3.916451    2.614967   -0.770039
     34          8           0        1.046598   -2.553052    0.640394
     35          1           0        0.203245   -3.035541    0.575187
 ---------------------------------------------------------------------
 Rotational constants (GHZ):           0.5526110           0.3850343           0.2987542
 Leave Link  202 at Sat May 25 04:19:05 2019, MaxMem=   104857600 cpu:               2.0 elap:               0.1
 (Enter /opt/software/gaussian/g16.b01/l301.exe)
 Standard basis: 6-31G(d,p) (6D, 7F)
 Ernie: Thresh=  0.10000D-02 Tol=  0.10000D-05 Strict=F.
 There are   355 symmetry adapted cartesian basis functions of A   symmetry.
 There are   355 symmetry adapted basis functions of A   symmetry.
   355 basis functions,   623 primitive gaussians,   355 cartesian basis functions
    65 alpha electrons       64 beta electrons
       nuclear repulsion energy      1303.7002291709 Hartrees.
 IExCor=  402 DFT=T Ex+Corr=B3LYP ExCW=0 ScaHFX=  0.200000
 ScaDFX=  0.800000  0.720000  1.000000  0.810000 ScalE2=  1.000000  1.000000
 IRadAn=      5 IRanWt=     -1 IRanGd=            0 ICorTp=0 IEmpDi=131
 NAtoms=   35 NActive=   35 NUniq=   35 SFac= 1.00D+00 NAtFMM=   60 NAOKFM=F Big=F
 Integral buffers will be    131072 words long.
 Raffenetti 2 integral format.
 Two-electron integral symmetry is turned on.
 R6Disp:  Grimme-D3 Dispersion energy=       -0.0409587889 Hartrees.
 Nuclear repulsion after empirical dispersion term =     1303.6592703820 Hartrees.
 ------------------------------------------------------------------------------
 Polarizable Continuum Model (PCM)
 =================================
 Model                : PCM.
 Atomic radii         : UFF (Universal Force Field).
 Polarization charges : Total charges.
 Charge compensation  : None.
 Solution method      : On-the-fly selection.
 Cavity type          : Scaled VdW (van der Waals Surface) (Alpha=1.100).
 Cavity algorithm     : GePol (No added spheres)
                        Default sphere list used, NSphG=   35.
                        Lebedev-Laikov grids with approx.  5.0 points / Ang**2.
                        Smoothing algorithm: York/Karplus (Gamma=1.0000).
                        Polarization charges: spherical gaussians, with
                                              point-specific exponents (IZeta= 3).
                        Self-potential: point-specific (ISelfS= 7).
                        Self-field    : sphere-specific E.n sum rule (ISelfD= 2).
 Solvent              : Acetonitrile, Eps=  35.688000 Eps(inf)=   1.806874
 ------------------------------------------------------------------------------
 GePol: Number of generator spheres                  =      35
 GePol: Total number of spheres                      =      35
 GePol: Number of exposed spheres                    =      35 (100.00%)
 GePol: Number of points                             =    2420
 GePol: Average weight of points                     =       0.13
 GePol: Minimum weight of points                     =   0.24D-10
 GePol: Maximum weight of points                     =    0.20577
 GePol: Number of points with low weight             =     152
 GePol: Fraction of low-weight points (<1% of avg)   =       6.28%
 GePol: Cavity surface area                          =    316.192 Ang**2
 GePol: Cavity volume                                =    360.684 Ang**3
 Leave Link  301 at Sat May 25 04:19:05 2019, MaxMem=   104857600 cpu:               4.9 elap:               0.2
 (Enter /opt/software/gaussian/g16.b01/l302.exe)
 NPDir=0 NMtPBC=     1 NCelOv=     1 NCel=       1 NClECP=     1 NCelD=      1
         NCelK=      1 NCelE2=     1 NClLst=     1 CellRange=     0.0.
 One-electron integrals computed using PRISM.
 One-electron integral symmetry used in STVInt
 PrsmSu:  requested number of processors reduced to:  28 ShMem   1 Linda.
 NBasis=   355 RedAO= T EigKep=  4.56D-04  NBF=   355
 NBsUse=   355 1.00D-06 EigRej= -1.00D+00 NBFU=   355
 Precomputing XC quadrature grid using
 IXCGrd= 4 IRadAn=           5 IRanWt=          -1 IRanGd=           0 AccXCQ= 0.00D+00.
 Generated NRdTot=       0 NPtTot=           0 NUsed=           0 NTot=          32
 NSgBfM=   354   354   354   354   354 MxSgAt=    35 MxSgA2=    35.
 Leave Link  302 at Sat May 25 04:19:06 2019, MaxMem=   104857600 cpu:              15.1 elap:               0.5
 (Enter /opt/software/gaussian/g16.b01/l303.exe)
 DipDrv:  MaxL=1.
 Leave Link  303 at Sat May 25 04:19:06 2019, MaxMem=   104857600 cpu:               2.0 elap:               0.1
 (Enter /opt/software/gaussian/g16.b01/l308.exe)
 Leave Link  308 at Sat May 25 04:19:06 2019, MaxMem=   104857600 cpu:               2.4 elap:               0.1
 (Enter /opt/software/gaussian/g16.b01/l401.exe)
 ExpMin= 1.61D-01 ExpMax= 5.48D+03 ExpMxC= 8.25D+02 IAcc=3 IRadAn=         5 AccDes= 0.00D+00
 Harris functional with IExCor=  402 and IRadAn=       5 diagonalized for initial guess.
 HarFok:  IExCor=  402 AccDes= 0.00D+00 IRadAn=         5 IDoV= 1 UseB2=F ITyADJ=14
 ICtDFT=  3500011 ScaDFX=  1.000000  1.000000  1.000000  1.000000
 FoFCou: FMM=F IPFlag=           0 FMFlag=      100000 FMFlg1=           0
         NFxFlg=           0 DoJE=T BraDBF=F KetDBF=T FulRan=T
         wScrn=  0.000000 ICntrl=       500 IOpCl=  0 I1Cent=   200000004 NGrid=           0
         NMat0=    1 NMatS0=      1 NMatT0=    0 NMatD0=    1 NMtDS0=    0 NMtDT0=    0
 Petite list used in FoFCou.
 Harris En= -770.479541037808    
 JPrj=0 DoOrth=F DoCkMO=T.
 Mixing orbitals, IMix= 1 IMixAn=  0 NRI=1 NE=   65 Coef=  7.07106781D-01  7.07106781D-01
 Mixing orbitals, IMix= 1 IMixAn=  0 NRI=1 NE=   64 Coef= -7.07106781D-01  7.07106781D-01
 Initial guess <Sx>= 0.0000 <Sy>= 0.0000 <Sz>= 0.5000 <S**2>= 1.0000 S= 0.6180
 Leave Link  401 at Sat May 25 04:19:07 2019, MaxMem=   104857600 cpu:              30.1 elap:               1.0
 (Enter /opt/software/gaussian/g16.b01/l502.exe)
 Integral symmetry usage will be decided dynamically.
 UHF open shell SCF:
 Using DIIS extrapolation, IDIIS=  1040.
 NGot=   104857600 LenX=   104590331 LenY=   104463865
 Requested convergence on RMS density matrix=1.00D-08 within 128 cycles.
 Requested convergence on MAX density matrix=1.00D-06.
 Requested convergence on             energy=1.00D-06.
 No special actions if energy rises.
 Fock matrices will be formed incrementally for  20 cycles.

 Cycle   1  Pass 1  IDiag  1:
 FoFJK:  IHMeth= 1 ICntrl=       0 DoSepK=F KAlg= 0 I1Cent=           0 FoldK=F
 IRaf= 840000000 NMat=       1 IRICut=       1 DoRegI=T DoRafI=F ISym2E= 0 IDoP0=0 IntGTp=1.
 FoFCou: FMM=F IPFlag=           0 FMFlag=      100000 FMFlg1=           0
         NFxFlg=           0 DoJE=F BraDBF=F KetDBF=F FulRan=T
         wScrn=  0.000000 ICntrl=         0 IOpCl=  1 I1Cent=           0 NGrid=           0
         NMat0=    1 NMatS0=      1 NMatT0=    0 NMatD0=    1 NMtDS0=    0 NMtDT0=    0
 Symmetry not used in FoFCou.
 Inv3:  Mode=1 IEnd=    17569200.
 Iteration    1 A*A^-1 deviation from unit magnitude is 3.11D-15 for   1016.
 Iteration    1 A*A^-1 deviation from orthogonality  is 2.00D-15 for   2322    673.
 Iteration    1 A^-1*A deviation from unit magnitude is 2.89D-15 for    709.
 Iteration    1 A^-1*A deviation from orthogonality  is 5.00D-14 for   1973   1967.
 E= -769.869475465679    
 DIIS: error= 3.10D-02 at cycle   1 NSaved=   1.
 NSaved= 1 IEnMin= 1 EnMin= -769.869475465679     IErMin= 1 ErrMin= 3.10D-02
 ErrMax= 3.10D-02  0.00D+00 EMaxC= 1.00D-01 BMatC= 1.82D+00 BMatP= 1.82D+00
 IDIUse=3 WtCom= 6.90D-01 WtEn= 3.10D-01
 Coeff-Com:  0.100D+01
 Coeff-En:   0.100D+01
 Coeff:      0.100D+01
 Gap=     0.002 Goal=   None    Shift=    0.000
 Gap=    -0.008 Goal=   None    Shift=    0.000
 GapD=   -0.008 DampG=0.250 DampE=0.500 DampFc=0.2500 IDamp=-1.
 Damping current iteration by 2.50D-01
 RMSDP=4.60D-03 MaxDP=1.53D-01              OVMax= 6.15D-01

 Cycle   2  Pass 1  IDiag  1:
 RMSU=  1.13D-03    CP:  9.86D-01
 E= -770.053864531555     Delta-E=       -0.184389065876 Rises=F Damp=T
 DIIS: error= 1.72D-02 at cycle   2 NSaved=   2.
 NSaved= 2 IEnMin= 2 EnMin= -770.053864531555     IErMin= 2 ErrMin= 1.72D-02
 ErrMax= 1.72D-02  0.00D+00 EMaxC= 1.00D-01 BMatC= 4.84D-01 BMatP= 1.82D+00
 IDIUse=3 WtCom= 8.28D-01 WtEn= 1.72D-01
 Coeff-Com: -0.828D+00 0.183D+01
 Coeff-En:   0.000D+00 0.100D+01
 Coeff:     -0.686D+00 0.169D+01
 Gap=     0.061 Goal=   None    Shift=    0.000
 Gap=     0.148 Goal=   None    Shift=    0.000
 RMSDP=2.09D-03 MaxDP=4.90D-02 DE=-1.84D-01 OVMax= 2.20D-01

 Cycle   3  Pass 1  IDiag  1:
 RMSU=  1.48D-03    CP:  9.56D-01  2.24D+00
 E= -770.395096741029     Delta-E=       -0.341232209475 Rises=F Damp=F
 DIIS: error= 1.00D-02 at cycle   3 NSaved=   3.
 NSaved= 3 IEnMin= 3 EnMin= -770.395096741029     IErMin= 3 ErrMin= 1.00D-02
 ErrMax= 1.00D-02  0.00D+00 EMaxC= 1.00D-01 BMatC= 1.39D-01 BMatP= 4.84D-01
 IDIUse=3 WtCom= 9.00D-01 WtEn= 1.00D-01
 Coeff-Com: -0.433D+00 0.931D+00 0.502D+00
 Coeff-En:   0.000D+00 0.000D+00 0.100D+01
 Coeff:     -0.390D+00 0.838D+00 0.552D+00
 Gap=     0.086 Goal=   None    Shift=    0.000
 Gap=     0.152 Goal=   None    Shift=    0.000
 RMSDP=8.27D-04 MaxDP=3.96D-02 DE=-3.41D-01 OVMax= 8.98D-02

 Cycle   4  Pass 1  IDiag  1:
 RMSU=  7.16D-04    CP:  9.60D-01  2.27D+00  7.23D-01
 E= -770.420386457566     Delta-E=       -0.025289716537 Rises=F Damp=F
 DIIS: error= 5.62D-03 at cycle   4 NSaved=   4.
 NSaved= 4 IEnMin= 4 EnMin= -770.420386457566     IErMin= 4 ErrMin= 5.62D-03
 ErrMax= 5.62D-03  0.00D+00 EMaxC= 1.00D-01 BMatC= 4.07D-02 BMatP= 1.39D-01
 IDIUse=3 WtCom= 9.44D-01 WtEn= 5.62D-02
 Coeff-Com: -0.321D-01 0.939D-01 0.344D+00 0.594D+00
 Coeff-En:   0.000D+00 0.000D+00 0.229D+00 0.771D+00
 Coeff:     -0.303D-01 0.886D-01 0.338D+00 0.604D+00
 Gap=     0.091 Goal=   None    Shift=    0.000
 Gap=     0.162 Goal=   None    Shift=    0.000
 RMSDP=3.48D-04 MaxDP=1.89D-02 DE=-2.53D-02 OVMax= 3.14D-02

 Cycle   5  Pass 1  IDiag  1:
 RMSU=  1.98D-04    CP:  9.58D-01  2.25D+00  8.47D-01  6.96D-01
 E= -770.429535317745     Delta-E=       -0.009148860179 Rises=F Damp=F
 DIIS: error= 1.04D-03 at cycle   5 NSaved=   5.
 NSaved= 5 IEnMin= 5 EnMin= -770.429535317745     IErMin= 5 ErrMin= 1.04D-03
 ErrMax= 1.04D-03  0.00D+00 EMaxC= 1.00D-01 BMatC= 2.31D-03 BMatP= 4.07D-02
 IDIUse=3 WtCom= 9.90D-01 WtEn= 1.04D-02
 Coeff-Com:  0.873D-02-0.728D-02 0.134D+00 0.305D+00 0.560D+00
 Coeff-En:   0.000D+00 0.000D+00 0.000D+00 0.000D+00 0.100D+01
 Coeff:      0.864D-02-0.721D-02 0.133D+00 0.302D+00 0.564D+00
 Gap=     0.094 Goal=   None    Shift=    0.000
 Gap=     0.166 Goal=   None    Shift=    0.000
 RMSDP=9.51D-05 MaxDP=4.15D-03 DE=-9.15D-03 OVMax= 8.97D-03

 Cycle   6  Pass 1  IDiag  1:
 RMSU=  8.51D-05    CP:  9.58D-01  2.26D+00  8.52D-01  7.37D-01  8.58D-01
 E= -770.430151787815     Delta-E=       -0.000616470070 Rises=F Damp=F
 DIIS: error= 5.68D-04 at cycle   6 NSaved=   6.
 NSaved= 6 IEnMin= 6 EnMin= -770.430151787815     IErMin= 6 ErrMin= 5.68D-04
 ErrMax= 5.68D-04  0.00D+00 EMaxC= 1.00D-01 BMatC= 4.12D-04 BMatP= 2.31D-03
 IDIUse=3 WtCom= 9.94D-01 WtEn= 5.68D-03
 Coeff-Com:  0.999D-02-0.198D-01-0.667D-02 0.163D-01 0.280D+00 0.721D+00
 Coeff-En:   0.000D+00 0.000D+00 0.000D+00 0.000D+00 0.000D+00 0.100D+01
 Coeff:      0.994D-02-0.197D-01-0.664D-02 0.162D-01 0.278D+00 0.722D+00
 Gap=     0.096 Goal=   None    Shift=    0.000
 Gap=     0.166 Goal=   None    Shift=    0.000
 RMSDP=5.29D-05 MaxDP=3.65D-03 DE=-6.16D-04 OVMax= 8.08D-03

 Cycle   7  Pass 1  IDiag  1:
 RMSU=  3.89D-05    CP:  9.58D-01  2.26D+00  8.53D-01  7.58D-01  1.02D+00
                    CP:  9.40D-01
 E= -770.430357829548     Delta-E=       -0.000206041733 Rises=F Damp=F
 DIIS: error= 3.13D-04 at cycle   7 NSaved=   7.
 NSaved= 7 IEnMin= 7 EnMin= -770.430357829548     IErMin= 7 ErrMin= 3.13D-04
 ErrMax= 3.13D-04  0.00D+00 EMaxC= 1.00D-01 BMatC= 7.51D-05 BMatP= 4.12D-04
 IDIUse=3 WtCom= 9.97D-01 WtEn= 3.13D-03
 Coeff-Com: -0.138D-02 0.107D-02-0.302D-01-0.708D-01-0.835D-01 0.211D+00
 Coeff-Com:  0.974D+00
 Coeff-En:   0.000D+00 0.000D+00 0.000D+00 0.000D+00 0.000D+00 0.000D+00
 Coeff-En:   0.100D+01
 Coeff:     -0.137D-02 0.107D-02-0.301D-01-0.706D-01-0.833D-01 0.210D+00
 Coeff:      0.974D+00
 Gap=     0.096 Goal=   None    Shift=    0.000
 Gap=     0.167 Goal=   None    Shift=    0.000
 RMSDP=3.43D-05 MaxDP=1.88D-03 DE=-2.06D-04 OVMax= 6.54D-03

 Cycle   8  Pass 1  IDiag  1:
 RMSU=  2.05D-05    CP:  9.58D-01  2.26D+00  8.57D-01  7.62D-01  1.08D+00
                    CP:  1.20D+00  1.22D+00
 E= -770.430423784283     Delta-E=       -0.000065954735 Rises=F Damp=F
 DIIS: error= 1.84D-04 at cycle   8 NSaved=   8.
 NSaved= 8 IEnMin= 8 EnMin= -770.430423784283     IErMin= 8 ErrMin= 1.84D-04
 ErrMax= 1.84D-04  0.00D+00 EMaxC= 1.00D-01 BMatC= 2.79D-05 BMatP= 7.51D-05
 IDIUse=3 WtCom= 9.98D-01 WtEn= 1.84D-03
 Coeff-Com: -0.265D-02 0.451D-02-0.148D-01-0.426D-01-0.102D+00-0.336D-01
 Coeff-Com:  0.529D+00 0.663D+00
 Coeff-En:   0.000D+00 0.000D+00 0.000D+00 0.000D+00 0.000D+00 0.000D+00
 Coeff-En:   0.000D+00 0.100D+01
 Coeff:     -0.265D-02 0.450D-02-0.148D-01-0.425D-01-0.102D+00-0.335D-01
 Coeff:      0.528D+00 0.663D+00
 Gap=     0.096 Goal=   None    Shift=    0.000
 Gap=     0.167 Goal=   None    Shift=    0.000
 RMSDP=1.63D-05 MaxDP=1.03D-03 DE=-6.60D-05 OVMax= 3.03D-03

 Cycle   9  Pass 1  IDiag  1:
 RMSU=  1.11D-05    CP:  9.58D-01  2.26D+00  8.56D-01  7.64D-01  1.10D+00
                    CP:  1.25D+00  1.48D+00  1.04D+00
 E= -770.430441535925     Delta-E=       -0.000017751642 Rises=F Damp=F
 DIIS: error= 1.12D-04 at cycle   9 NSaved=   9.
 NSaved= 9 IEnMin= 9 EnMin= -770.430441535925     IErMin= 9 ErrMin= 1.12D-04
 ErrMax= 1.12D-04  0.00D+00 EMaxC= 1.00D-01 BMatC= 6.67D-06 BMatP= 2.79D-05
 IDIUse=3 WtCom= 9.99D-01 WtEn= 1.12D-03
 Coeff-Com: -0.784D-03 0.162D-02 0.156D-02-0.147D-03-0.222D-01-0.761D-01
 Coeff-Com: -0.199D-01 0.325D+00 0.791D+00
 Coeff-En:   0.000D+00 0.000D+00 0.000D+00 0.000D+00 0.000D+00 0.000D+00
 Coeff-En:   0.000D+00 0.000D+00 0.100D+01
 Coeff:     -0.784D-03 0.161D-02 0.155D-02-0.147D-03-0.222D-01-0.760D-01
 Coeff:     -0.199D-01 0.325D+00 0.791D+00
 Gap=     0.096 Goal=   None    Shift=    0.000
 Gap=     0.167 Goal=   None    Shift=    0.000
 RMSDP=9.94D-06 MaxDP=5.11D-04 DE=-1.78D-05 OVMax= 2.33D-03

 Cycle  10  Pass 1  IDiag  1:
 RMSU=  5.66D-06    CP:  9.58D-01  2.26D+00  8.55D-01  7.62D-01  1.11D+00
                    CP:  1.29D+00  1.58D+00  1.34D+00  1.15D+00
 E= -770.430447115831     Delta-E=       -0.000005579906 Rises=F Damp=F
 DIIS: error= 5.39D-05 at cycle  10 NSaved=  10.
 NSaved=10 IEnMin=10 EnMin= -770.430447115831     IErMin=10 ErrMin= 5.39D-05
 ErrMax= 5.39D-05  0.00D+00 EMaxC= 1.00D-01 BMatC= 2.17D-06 BMatP= 6.67D-06
 IDIUse=1 WtCom= 1.00D+00 WtEn= 0.00D+00
 Coeff-Com:  0.278D-03-0.321D-03 0.588D-02 0.142D-01 0.210D-01-0.368D-01
 Coeff-Com: -0.191D+00-0.185D-01 0.449D+00 0.757D+00
 Coeff:      0.278D-03-0.321D-03 0.588D-02 0.142D-01 0.210D-01-0.368D-01
 Coeff:     -0.191D+00-0.185D-01 0.449D+00 0.757D+00
 Gap=     0.096 Goal=   None    Shift=    0.000
 Gap=     0.167 Goal=   None    Shift=    0.000
 RMSDP=6.20D-06 MaxDP=3.42D-04 DE=-5.58D-06 OVMax= 1.15D-03

 Cycle  11  Pass 1  IDiag  1:
 RMSU=  2.54D-06    CP:  9.58D-01  2.26D+00  8.55D-01  7.62D-01  1.11D+00
                    CP:  1.30D+00  1.65D+00  1.51D+00  1.46D+00  1.02D+00
 E= -770.430449031354     Delta-E=       -0.000001915523 Rises=F Damp=F
 DIIS: error= 1.75D-05 at cycle  11 NSaved=  11.
 NSaved=11 IEnMin=11 EnMin= -770.430449031354     IErMin=11 ErrMin= 1.75D-05
 ErrMax= 1.75D-05  0.00D+00 EMaxC= 1.00D-01 BMatC= 3.06D-07 BMatP= 2.17D-06
 IDIUse=1 WtCom= 1.00D+00 WtEn= 0.00D+00
 Coeff-Com:  0.235D-03-0.436D-03 0.139D-02 0.440D-02 0.113D-01 0.399D-02
 Coeff-Com: -0.549D-01-0.750D-01-0.463D-01 0.241D+00 0.914D+00
 Coeff:      0.235D-03-0.436D-03 0.139D-02 0.440D-02 0.113D-01 0.399D-02
 Coeff:     -0.549D-01-0.750D-01-0.463D-01 0.241D+00 0.914D+00
 Gap=     0.096 Goal=   None    Shift=    0.000
 Gap=     0.167 Goal=   None    Shift=    0.000
 RMSDP=3.09D-06 MaxDP=1.51D-04 DE=-1.92D-06 OVMax= 5.93D-04

 Cycle  12  Pass 1  IDiag  1:
 RMSU=  1.28D-06    CP:  9.58D-01  2.26D+00  8.55D-01  7.62D-01  1.11D+00
                    CP:  1.30D+00  1.67D+00  1.58D+00  1.60D+00  1.28D+00
                    CP:  1.13D+00
 E= -770.430449367732     Delta-E=       -0.000000336378 Rises=F Damp=F
 DIIS: error= 9.77D-06 at cycle  12 NSaved=  12.
 NSaved=12 IEnMin=12 EnMin= -770.430449367732     IErMin=12 ErrMin= 9.77D-06
 ErrMax= 9.77D-06  0.00D+00 EMaxC= 1.00D-01 BMatC= 1.42D-07 BMatP= 3.06D-07
 IDIUse=1 WtCom= 1.00D+00 WtEn= 0.00D+00
 Coeff-Com:  0.887D-04-0.216D-03-0.512D-03-0.585D-03 0.195D-02 0.100D-01
 Coeff-Com:  0.107D-01-0.397D-01-0.128D+00-0.250D-01 0.537D+00 0.635D+00
 Coeff:      0.887D-04-0.216D-03-0.512D-03-0.585D-03 0.195D-02 0.100D-01
 Coeff:      0.107D-01-0.397D-01-0.128D+00-0.250D-01 0.537D+00 0.635D+00
 Gap=     0.096 Goal=   None    Shift=    0.000
 Gap=     0.167 Goal=   None    Shift=    0.000
 RMSDP=1.14D-06 MaxDP=5.26D-05 DE=-3.36D-07 OVMax= 1.89D-04

 Cycle  13  Pass 1  IDiag  1:
 RMSU=  5.25D-07    CP:  9.58D-01  2.26D+00  8.55D-01  7.62D-01  1.11D+00
                    CP:  1.31D+00  1.67D+00  1.61D+00  1.63D+00  1.34D+00
                    CP:  1.38D+00  8.73D-01
 E= -770.430449435990     Delta-E=       -0.000000068258 Rises=F Damp=F
 DIIS: error= 3.10D-06 at cycle  13 NSaved=  13.
 NSaved=13 IEnMin=13 EnMin= -770.430449435990     IErMin=13 ErrMin= 3.10D-06
 ErrMax= 3.10D-06  0.00D+00 EMaxC= 1.00D-01 BMatC= 1.76D-08 BMatP= 1.42D-07
 IDIUse=1 WtCom= 1.00D+00 WtEn= 0.00D+00
 Coeff-Com: -0.151D-05-0.133D-04-0.481D-03-0.109D-02-0.128D-02 0.372D-02
 Coeff-Com:  0.165D-01-0.462D-02-0.511D-01-0.581D-01 0.597D-01 0.284D+00
 Coeff-Com:  0.753D+00
 Coeff:     -0.151D-05-0.133D-04-0.481D-03-0.109D-02-0.128D-02 0.372D-02
 Coeff:      0.165D-01-0.462D-02-0.511D-01-0.581D-01 0.597D-01 0.284D+00
 Coeff:      0.753D+00
 Gap=     0.096 Goal=   None    Shift=    0.000
 Gap=     0.167 Goal=   None    Shift=    0.000
 RMSDP=4.56D-07 MaxDP=2.14D-05 DE=-6.83D-08 OVMax= 7.34D-05

 Cycle  14  Pass 1  IDiag  1:
 RMSU=  2.48D-07    CP:  9.58D-01  2.26D+00  8.55D-01  7.62D-01  1.11D+00
                    CP:  1.31D+00  1.68D+00  1.61D+00  1.64D+00  1.37D+00
                    CP:  1.45D+00  1.04D+00  9.76D-01
 E= -770.430449445805     Delta-E=       -0.000000009815 Rises=F Damp=F
 DIIS: error= 1.51D-06 at cycle  14 NSaved=  14.
 NSaved=14 IEnMin=14 EnMin= -770.430449445805     IErMin=14 ErrMin= 1.51D-06
 ErrMax= 1.51D-06  0.00D+00 EMaxC= 1.00D-01 BMatC= 3.79D-09 BMatP= 1.76D-08
 IDIUse=1 WtCom= 1.00D+00 WtEn= 0.00D+00
 Coeff-Com: -0.120D-04 0.251D-04-0.136D-03-0.395D-03-0.935D-03 0.348D-04
 Coeff-Com:  0.598D-02 0.398D-02-0.173D-02-0.203D-01-0.654D-01 0.191D-01
 Coeff-Com:  0.357D+00 0.703D+00
 Coeff:     -0.120D-04 0.251D-04-0.136D-03-0.395D-03-0.935D-03 0.348D-04
 Coeff:      0.598D-02 0.398D-02-0.173D-02-0.203D-01-0.654D-01 0.191D-01
 Coeff:      0.357D+00 0.703D+00
 Gap=     0.096 Goal=   None    Shift=    0.000
 Gap=     0.167 Goal=   None    Shift=    0.000
 RMSDP=1.71D-07 MaxDP=7.69D-06 DE=-9.81D-09 OVMax= 2.30D-05

 Cycle  15  Pass 1  IDiag  1:
 RMSU=  1.04D-07    CP:  9.58D-01  2.26D+00  8.55D-01  7.62D-01  1.11D+00
                    CP:  1.31D+00  1.68D+00  1.61D+00  1.64D+00  1.38D+00
                    CP:  1.48D+00  1.08D+00  1.16D+00  1.02D+00
 E= -770.430449447748     Delta-E=       -0.000000001942 Rises=F Damp=F
 DIIS: error= 8.62D-07 at cycle  15 NSaved=  15.
 NSaved=15 IEnMin=15 EnMin= -770.430449447748     IErMin=15 ErrMin= 8.62D-07
 ErrMax= 8.62D-07  0.00D+00 EMaxC= 1.00D-01 BMatC= 7.70D-10 BMatP= 3.79D-09
 IDIUse=1 WtCom= 1.00D+00 WtEn= 0.00D+00
 Coeff-Com: -0.263D-05 0.111D-04 0.575D-04 0.982D-04-0.100D-03-0.825D-03
 Coeff-Com: -0.130D-02 0.236D-02 0.111D-01 0.538D-02-0.430D-01-0.556D-01
 Coeff-Com: -0.506D-02 0.317D+00 0.770D+00
 Coeff:     -0.263D-05 0.111D-04 0.575D-04 0.982D-04-0.100D-03-0.825D-03
 Coeff:     -0.130D-02 0.236D-02 0.111D-01 0.538D-02-0.430D-01-0.556D-01
 Coeff:     -0.506D-02 0.317D+00 0.770D+00
 Gap=     0.096 Goal=   None    Shift=    0.000
 Gap=     0.167 Goal=   None    Shift=    0.000
 RMSDP=9.14D-08 MaxDP=4.97D-06 DE=-1.94D-09 OVMax= 1.40D-05

 Cycle  16  Pass 1  IDiag  1:
 RMSU=  5.71D-08    CP:  9.58D-01  2.26D+00  8.55D-01  7.62D-01  1.11D+00
                    CP:  1.31D+00  1.68D+00  1.61D+00  1.64D+00  1.38D+00
                    CP:  1.48D+00  1.11D+00  1.22D+00  1.21D+00  1.07D+00
 E= -770.430449448325     Delta-E=       -0.000000000578 Rises=F Damp=F
 DIIS: error= 4.62D-07 at cycle  16 NSaved=  16.
 NSaved=16 IEnMin=16 EnMin= -770.430449448325     IErMin=16 ErrMin= 4.62D-07
 ErrMax= 4.62D-07  0.00D+00 EMaxC= 1.00D-01 BMatC= 1.44D-10 BMatP= 7.70D-10
 IDIUse=1 WtCom= 1.00D+00 WtEn= 0.00D+00
 Coeff-Com:  0.315D-05-0.505D-05 0.417D-04 0.108D-03 0.169D-03-0.199D-03
 Coeff-Com: -0.165D-02-0.242D-03 0.343D-02 0.591D-02 0.229D-02-0.188D-01
 Coeff-Com: -0.815D-01-0.709D-01 0.219D+00 0.943D+00
 Coeff:      0.315D-05-0.505D-05 0.417D-04 0.108D-03 0.169D-03-0.199D-03
 Coeff:     -0.165D-02-0.242D-03 0.343D-02 0.591D-02 0.229D-02-0.188D-01
 Coeff:     -0.815D-01-0.709D-01 0.219D+00 0.943D+00
 Gap=     0.096 Goal=   None    Shift=    0.000
 Gap=     0.167 Goal=   None    Shift=    0.000
 RMSDP=5.73D-08 MaxDP=3.29D-06 DE=-5.78D-10 OVMax= 1.08D-05

 Cycle  17  Pass 1  IDiag  1:
 RMSU=  2.95D-08    CP:  9.58D-01  2.26D+00  8.55D-01  7.62D-01  1.11D+00
                    CP:  1.31D+00  1.68D+00  1.61D+00  1.64D+00  1.38D+00
                    CP:  1.48D+00  1.12D+00  1.26D+00  1.30D+00  1.36D+00
                    CP:  1.30D+00
 E= -770.430449448531     Delta-E=       -0.000000000206 Rises=F Damp=F
 DIIS: error= 2.84D-07 at cycle  17 NSaved=  17.
 NSaved=17 IEnMin=17 EnMin= -770.430449448531     IErMin=17 ErrMin= 2.84D-07
 ErrMax= 2.84D-07  0.00D+00 EMaxC= 1.00D-01 BMatC= 5.21D-11 BMatP= 1.44D-10
 IDIUse=1 WtCom= 1.00D+00 WtEn= 0.00D+00
 Coeff-Com:  0.382D-06-0.166D-05 0.278D-05 0.150D-04 0.811D-04 0.118D-03
 Coeff-Com: -0.285D-03-0.579D-03-0.138D-02 0.660D-03 0.109D-01 0.651D-02
 Coeff-Com: -0.284D-01-0.961D-01-0.954D-01 0.349D+00 0.855D+00
 Coeff:      0.382D-06-0.166D-05 0.278D-05 0.150D-04 0.811D-04 0.118D-03
 Coeff:     -0.285D-03-0.579D-03-0.138D-02 0.660D-03 0.109D-01 0.651D-02
 Coeff:     -0.284D-01-0.961D-01-0.954D-01 0.349D+00 0.855D+00
 Gap=     0.096 Goal=   None    Shift=    0.000
 Gap=     0.167 Goal=   None    Shift=    0.000
 RMSDP=3.29D-08 MaxDP=1.90D-06 DE=-2.06D-10 OVMax= 6.26D-06

 Cycle  18  Pass 1  IDiag  1:
 RMSU=  1.67D-08    CP:  9.58D-01  2.26D+00  8.55D-01  7.62D-01  1.11D+00
                    CP:  1.31D+00  1.68D+00  1.61D+00  1.64D+00  1.38D+00
                    CP:  1.48D+00  1.12D+00  1.27D+00  1.34D+00  1.48D+00
                    CP:  1.65D+00  1.29D+00
 E= -770.430449448598     Delta-E=       -0.000000000067 Rises=F Damp=F
 DIIS: error= 1.64D-07 at cycle  18 NSaved=  18.
 NSaved=18 IEnMin=18 EnMin= -770.430449448598     IErMin=18 ErrMin= 1.64D-07
 ErrMax= 1.64D-07  0.00D+00 EMaxC= 1.00D-01 BMatC= 2.63D-11 BMatP= 5.21D-11
 IDIUse=1 WtCom= 1.00D+00 WtEn= 0.00D+00
 Coeff-Com: -0.842D-06 0.572D-06-0.179D-04-0.427D-04-0.246D-04 0.172D-03
 Coeff-Com:  0.611D-03-0.188D-03-0.244D-02-0.265D-02 0.518D-02 0.125D-01
 Coeff-Com:  0.228D-01-0.217D-01-0.168D+00-0.261D+00 0.551D+00 0.864D+00
 Coeff:     -0.842D-06 0.572D-06-0.179D-04-0.427D-04-0.246D-04 0.172D-03
 Coeff:      0.611D-03-0.188D-03-0.244D-02-0.265D-02 0.518D-02 0.125D-01
 Coeff:      0.228D-01-0.217D-01-0.168D+00-0.261D+00 0.551D+00 0.864D+00
 Gap=     0.096 Goal=   None    Shift=    0.000
 Gap=     0.167 Goal=   None    Shift=    0.000
 RMSDP=2.79D-08 MaxDP=1.59D-06 DE=-6.68D-11 OVMax= 5.37D-06

 Cycle  19  Pass 1  IDiag  1:
 RMSU=  8.14D-09    CP:  9.58D-01  2.26D+00  8.55D-01  7.62D-01  1.11D+00
                    CP:  1.31D+00  1.68D+00  1.61D+00  1.64D+00  1.38D+00
                    CP:  1.48D+00  1.12D+00  1.27D+00  1.37D+00  1.60D+00
                    CP:  1.93D+00  1.82D+00  1.04D+00
 E= -770.430449448619     Delta-E=       -0.000000000021 Rises=F Damp=F
 DIIS: error= 6.30D-08 at cycle  19 NSaved=  19.
 NSaved=19 IEnMin=19 EnMin= -770.430449448619     IErMin=19 ErrMin= 6.30D-08
 ErrMax= 6.30D-08  0.00D+00 EMaxC= 1.00D-01 BMatC= 3.91D-12 BMatP= 2.63D-11
 IDIUse=1 WtCom= 1.00D+00 WtEn= 0.00D+00
 Coeff-Com: -0.370D-06 0.415D-06-0.847D-05-0.228D-04-0.308D-04 0.407D-04
 Coeff-Com:  0.312D-03 0.903D-04-0.635D-03-0.126D-02-0.332D-03 0.330D-02
 Coeff-Com:  0.153D-01 0.122D-01-0.479D-01-0.185D+00 0.380D-01 0.356D+00
 Coeff-Com:  0.810D+00
 Coeff:     -0.370D-06 0.415D-06-0.847D-05-0.228D-04-0.308D-04 0.407D-04
 Coeff:      0.312D-03 0.903D-04-0.635D-03-0.126D-02-0.332D-03 0.330D-02
 Coeff:      0.153D-01 0.122D-01-0.479D-01-0.185D+00 0.380D-01 0.356D+00
 Coeff:      0.810D+00
 Gap=     0.096 Goal=   None    Shift=    0.000
 Gap=     0.167 Goal=   None    Shift=    0.000
 RMSDP=1.05D-08 MaxDP=5.64D-07 DE=-2.14D-11 OVMax= 1.95D-06

 Cycle  20  Pass 1  IDiag  1:
 RMSU=  3.50D-09    CP:  9.58D-01  2.26D+00  8.55D-01  7.62D-01  1.11D+00
                    CP:  1.31D+00  1.68D+00  1.61D+00  1.64D+00  1.38D+00
                    CP:  1.48D+00  1.12D+00  1.28D+00  1.37D+00  1.63D+00
                    CP:  2.03D+00  2.01D+00  1.28D+00  9.86D-01
 E= -770.430449448636     Delta-E=       -0.000000000017 Rises=F Damp=F
 DIIS: error= 2.25D-08 at cycle  20 NSaved=  20.
 NSaved=20 IEnMin=20 EnMin= -770.430449448636     IErMin=20 ErrMin= 2.25D-08
 ErrMax= 2.25D-08  0.00D+00 EMaxC= 1.00D-01 BMatC= 1.07D-12 BMatP= 3.91D-12
 IDIUse=1 WtCom= 1.00D+00 WtEn= 0.00D+00
 Coeff-Com: -0.180D-06 0.478D-06-0.495D-06-0.308D-05-0.116D-04-0.127D-04
 Coeff-Com:  0.414D-04 0.821D-04 0.141D-03-0.149D-03-0.121D-02-0.671D-03
 Coeff-Com:  0.398D-02 0.115D-01 0.915D-02-0.455D-01-0.932D-01 0.698D-02
 Coeff-Com:  0.417D+00 0.692D+00
 Coeff:     -0.180D-06 0.478D-06-0.495D-06-0.308D-05-0.116D-04-0.127D-04
 Coeff:      0.414D-04 0.821D-04 0.141D-03-0.149D-03-0.121D-02-0.671D-03
 Coeff:      0.398D-02 0.115D-01 0.915D-02-0.455D-01-0.932D-01 0.698D-02
 Coeff:      0.417D+00 0.692D+00
 Gap=     0.096 Goal=   None    Shift=    0.000
 Gap=     0.167 Goal=   None    Shift=    0.000
 RMSDP=3.42D-09 MaxDP=1.84D-07 DE=-1.71D-11 OVMax= 5.63D-07

 Error on total polarization charges =  0.00973
 SCF Done:  E(UB3LYP) =  -770.430449449     A.U. after   20 cycles
            NFock= 20  Conv=0.34D-08     -V/T= 2.0096
 <Sx>= 0.0000 <Sy>= 0.0000 <Sz>= 0.5000 <S**2>= 0.7728 S= 0.5113
 <L.S>=  0.00000000000    
 KE= 7.631121301187D+02 PE=-4.397455641078D+03 EE= 1.560253791129D+03
 Annihilation of the first spin contaminant:
 S**2 before annihilation     0.7728,   after     0.7504
 Leave Link  502 at Sat May 25 04:19:56 2019, MaxMem=   104857600 cpu:            1518.4 elap:              48.3
 (Enter /opt/software/gaussian/g16.b01/l801.exe)
 DoSCS=F DFT=T ScalE2(SS,OS)=  1.000000  1.000000
 ExpMin= 1.61D-01 ExpMax= 5.48D+03 ExpMxC= 8.25D+02 IAcc=3 IRadAn=         5 AccDes= 0.00D+00
 HarFok:  IExCor=  205 AccDes= 0.00D+00 IRadAn=         5 IDoV=-2 UseB2=F ITyADJ=14
 ICtDFT= 12500011 ScaDFX=  1.000000  1.000000  1.000000  1.000000
 Largest valence mixing into a core orbital is  5.79D-05
 Largest core mixing into a valence orbital is  1.21D-05
 Largest valence mixing into a core orbital is  6.36D-05
 Largest core mixing into a valence orbital is  1.22D-05
 Range of M.O.s used for correlation:    19   355
 NBasis=   355 NAE=    65 NBE=    64 NFC=    18 NFV=     0
 NROrb=    337 NOA=    47 NOB=    46 NVA=   290 NVB=   291

 **** Warning!!: The smallest alpha delta epsilon is  0.96482849D-01

 Leave Link  801 at Sat May 25 04:19:56 2019, MaxMem=   104857600 cpu:               4.7 elap:               0.2
 (Enter /opt/software/gaussian/g16.b01/l914.exe)
 UHF ground state
 Ignoring spin specification with unrestricted ground state.
 Two-electron integrals replicated using symmetry.
 MDV=   104857600 DFT=T DoStab=F Mixed=T DoRPA=T DoScal=F NonHer=T
 NEqPCM:  Using non-equilibrium solvation (IEInf=1, Eps=  35.6880, EpsInf=   1.8069)
 Inv3:  Mode=1 IEnd=    17569200.
 Iteration    1 A*A^-1 deviation from unit magnitude is 3.77D-15 for    988.
 Iteration    1 A*A^-1 deviation from orthogonality  is 1.55D-15 for   2322    673.
 Iteration    1 A^-1*A deviation from unit magnitude is 3.77D-15 for    988.
 Iteration    1 A^-1*A deviation from orthogonality  is 1.67D-15 for   1458    435.
 Making orbital integer symmetry assigments:
 Orbital symmetries:
 Alpha Orbitals:
       Occupied  (A) (A) (A) (A) (A) (A) (A) (A) (A) (A) (A) (A)
                 (A) (A) (A) (A) (A) (A) (A) (A) (A) (A) (A) (A)
                 (A) (A) (A) (A) (A) (A) (A) (A) (A) (A) (A) (A)
                 (A) (A) (A) (A) (A) (A) (A) (A) (A) (A) (A) (A)
                 (A) (A) (A) (A) (A) (A) (A) (A) (A) (A) (A) (A)
                 (A) (A) (A) (A) (A)
       Virtual   (A) (A) (A) (A) (A) (A) (A) (A) (A) (A) (A) (A)
                 (A) (A) (A) (A) (A) (A) (A) (A) (A) (A) (A) (A)
                 (A) (A) (A) (A) (A) (A) (A) (A) (A) (A) (A) (A)
                 (A) (A) (A) (A) (A) (A) (A) (A) (A) (A) (A) (A)
                 (A) (A) (A) (A) (A) (A) (A) (A) (A) (A) (A) (A)
                 (A) (A) (A) (A) (A) (A) (A) (A) (A) (A) (A) (A)
                 (A) (A) (A) (A) (A) (A) (A) (A) (A) (A) (A) (A)
                 (A) (A) (A) (A) (A) (A) (A) (A) (A) (A) (A) (A)
                 (A) (A) (A) (A) (A) (A) (A) (A) (A) (A) (A) (A)
                 (A) (A) (A) (A) (A) (A) (A) (A) (A) (A) (A) (A)
                 (A) (A) (A) (A) (A) (A) (A) (A) (A) (A) (A) (A)
                 (A) (A) (A) (A) (A) (A) (A) (A) (A) (A) (A) (A)
                 (A) (A) (A) (A) (A) (A) (A) (A) (A) (A) (A) (A)
                 (A) (A) (A) (A) (A) (A) (A) (A) (A) (A) (A) (A)
                 (A) (A) (A) (A) (A) (A) (A) (A) (A) (A) (A) (A)
                 (A) (A) (A) (A) (A) (A) (A) (A) (A) (A) (A) (A)
                 (A) (A) (A) (A) (A) (A) (A) (A) (A) (A) (A) (A)
                 (A) (A) (A) (A) (A) (A) (A) (A) (A) (A) (A) (A)
                 (A) (A) (A) (A) (A) (A) (A) (A) (A) (A) (A) (A)
                 (A) (A) (A) (A) (A) (A) (A) (A) (A) (A) (A) (A)
                 (A) (A) (A) (A) (A) (A) (A) (A) (A) (A) (A) (A)
                 (A) (A) (A) (A) (A) (A) (A) (A) (A) (A) (A) (A)
                 (A) (A) (A) (A) (A) (A) (A) (A) (A) (A) (A) (A)
                 (A) (A) (A) (A) (A) (A) (A) (A) (A) (A) (A) (A)
                 (A) (A)
 Beta  Orbitals:
       Occupied  (A) (A) (A) (A) (A) (A) (A) (A) (A) (A) (A) (A)
                 (A) (A) (A) (A) (A) (A) (A) (A) (A) (A) (A) (A)
                 (A) (A) (A) (A) (A) (A) (A) (A) (A) (A) (A) (A)
                 (A) (A) (A) (A) (A) (A) (A) (A) (A) (A) (A) (A)
                 (A) (A) (A) (A) (A) (A) (A) (A) (A) (A) (A) (A)
                 (A) (A) (A) (A)
       Virtual   (A) (A) (A) (A) (A) (A) (A) (A) (A) (A) (A) (A)
                 (A) (A) (A) (A) (A) (A) (A) (A) (A) (A) (A) (A)
                 (A) (A) (A) (A) (A) (A) (A) (A) (A) (A) (A) (A)
                 (A) (A) (A) (A) (A) (A) (A) (A) (A) (A) (A) (A)
                 (A) (A) (A) (A) (A) (A) (A) (A) (A) (A) (A) (A)
                 (A) (A) (A) (A) (A) (A) (A) (A) (A) (A) (A) (A)
                 (A) (A) (A) (A) (A) (A) (A) (A) (A) (A) (A) (A)
                 (A) (A) (A) (A) (A) (A) (A) (A) (A) (A) (A) (A)
                 (A) (A) (A) (A) (A) (A) (A) (A) (A) (A) (A) (A)
                 (A) (A) (A) (A) (A) (A) (A) (A) (A) (A) (A) (A)
                 (A) (A) (A) (A) (A) (A) (A) (A) (A) (A) (A) (A)
                 (A) (A) (A) (A) (A) (A) (A) (A) (A) (A) (A) (A)
                 (A) (A) (A) (A) (A) (A) (A) (A) (A) (A) (A) (A)
                 (A) (A) (A) (A) (A) (A) (A) (A) (A) (A) (A) (A)
                 (A) (A) (A) (A) (A) (A) (A) (A) (A) (A) (A) (A)
                 (A) (A) (A) (A) (A) (A) (A) (A) (A) (A) (A) (A)
                 (A) (A) (A) (A) (A) (A) (A) (A) (A) (A) (A) (A)
                 (A) (A) (A) (A) (A) (A) (A) (A) (A) (A) (A) (A)
                 (A) (A) (A) (A) (A) (A) (A) (A) (A) (A) (A) (A)
                 (A) (A) (A) (A) (A) (A) (A) (A) (A) (A) (A) (A)
                 (A) (A) (A) (A) (A) (A) (A) (A) (A) (A) (A) (A)
                 (A) (A) (A) (A) (A) (A) (A) (A) (A) (A) (A) (A)
                 (A) (A) (A) (A) (A) (A) (A) (A) (A) (A) (A) (A)
                 (A) (A) (A) (A) (A) (A) (A) (A) (A) (A) (A) (A)
                 (A) (A) (A)
   144 initial guesses have been made.
 Convergence on wavefunction:    0.001000000000000
 Davidson Disk Diagonalization:  ConvIn= 1.00D-03 SkipCon=T Conv= 1.00D-03.
 Max sub-space:  2160 roots to seek:   144 dimension of matrix:        27016
 Iteration     1 Dimension   144 NMult     0 NNew    144
 CISAX will form     3 AO SS matrices at one time.
 NMat=     3 NSing=     3 JSym2X= 0.
 FoFJK:  IHMeth= 1 ICntrl=       0 DoSepK=F KAlg= 0 I1Cent=           0 FoldK=F
 IRaf= 840000000 NMat=       6 IRICut=       1 DoRegI=T DoRafI=F ISym2E= 0 IDoP0=0 IntGTp=1.
 NMat=     3 NSing=     3 JSym2X= 0.
 NMat=     3 NSing=     3 JSym2X= 0.
 NMat=     3 NSing=     3 JSym2X= 0.
 NMat=     3 NSing=     3 JSym2X= 0.
 NMat=     3 NSing=     3 JSym2X= 0.
 NMat=     3 NSing=     3 JSym2X= 0.
 NMat=     3 NSing=     3 JSym2X= 0.
 NMat=     3 NSing=     3 JSym2X= 0.
 NMat=     3 NSing=     3 JSym2X= 0.
 NMat=     3 NSing=     3 JSym2X= 0.
 NMat=     3 NSing=     3 JSym2X= 0.
 NMat=     3 NSing=     3 JSym2X= 0.
 NMat=     3 NSing=     3 JSym2X= 0.
 NMat=     3 NSing=     3 JSym2X= 0.
 NMat=     3 NSing=     3 JSym2X= 0.
 NMat=     3 NSing=     3 JSym2X= 0.
 NMat=     3 NSing=     3 JSym2X= 0.
 NMat=     3 NSing=     3 JSym2X= 0.
 NMat=     3 NSing=     3 JSym2X= 0.
 NMat=     3 NSing=     3 JSym2X= 0.
 NMat=     3 NSing=     3 JSym2X= 0.
 NMat=     3 NSing=     3 JSym2X= 0.
 NMat=     3 NSing=     3 JSym2X= 0.
 NMat=     3 NSing=     3 JSym2X= 0.
 NMat=     3 NSing=     3 JSym2X= 0.
 NMat=     3 NSing=     3 JSym2X= 0.
 NMat=     3 NSing=     3 JSym2X= 0.
 NMat=     3 NSing=     3 JSym2X= 0.
 NMat=     3 NSing=     3 JSym2X= 0.
 NMat=     3 NSing=     3 JSym2X= 0.
 NMat=     3 NSing=     3 JSym2X= 0.
 NMat=     3 NSing=     3 JSym2X= 0.
 NMat=     3 NSing=     3 JSym2X= 0.
 NMat=     3 NSing=     3 JSym2X= 0.
 NMat=     3 NSing=     3 JSym2X= 0.
 NMat=     3 NSing=     3 JSym2X= 0.
 NMat=     3 NSing=     3 JSym2X= 0.
 NMat=     3 NSing=     3 JSym2X= 0.
 NMat=     3 NSing=     3 JSym2X= 0.
 NMat=     3 NSing=     3 JSym2X= 0.
 NMat=     3 NSing=     3 JSym2X= 0.
 NMat=     3 NSing=     3 JSym2X= 0.
 NMat=     3 NSing=     3 JSym2X= 0.
 NMat=     3 NSing=     3 JSym2X= 0.
 NMat=     3 NSing=     3 JSym2X= 0.
 NMat=     3 NSing=     3 JSym2X= 0.
 NMat=     3 NSing=     3 JSym2X= 0.
 New state      2 was old state      3
 New state      3 was old state      2
 New state      4 was old state      6
 New state      6 was old state      9
 New state      7 was old state      4
 New state      8 was old state     14
 New state      9 was old state     10
 New state     10 was old state     11
 New state     11 was old state      8
 New state     12 was old state     31
 New state     13 was old state     16
 New state     14 was old state     29
 New state     16 was old state     17
 New state     17 was old state     18
 New state     18 was old state     13
 New state     21 was old state     24
 New state     23 was old state     35
 New state     24 was old state     23
 New state     25 was old state     33
 New state     26 was old state     44
 New state     27 was old state     63
 New state     28 was old state     27
 New state     29 was old state     26
 New state     30 was old state     21
 New state     31 was old state     37
 New state     32 was old state     25
 New state     33 was old state     36
 New state     34 was old state     81
 New state     35 was old state     51
 New state     36 was old state     46
 Excitation Energies [eV] at current iteration:
 Root      1 :     2.101383862750668
 Root      2 :     3.105194634859742
 Root      3 :     3.334561662394362
 Root      4 :     3.361383512070113
 Root      5 :     3.489511866837975
 Root      6 :     3.605841037959420
 Root      7 :     3.814704297136268
 Root      8 :     3.859372988295904
 Root      9 :     3.964498509408425
 Root     10 :     4.383468980999331
 Root     11 :     4.510799399406304
 Root     12 :     4.560108475056107
 Root     13 :     4.589124157153040
 Root     14 :     4.629616664309791
 Root     15 :     4.676880086408154
 Root     16 :     4.688301361575877
 Root     17 :     4.737844785395508
 Root     18 :     4.808637190645342
 Root     19 :     4.988356018825885
 Root     20 :     5.095594431990714
 Root     21 :     5.203684123622622
 Root     22 :     5.422804407682627
 Root     23 :     5.538752440141380
 Root     24 :     5.566902749024868
 Root     25 :     5.641239826004240
 Root     26 :     5.735566704636159
 Root     27 :     5.826529287691622
 Root     28 :     5.877933552905311
 Root     29 :     5.903599144820099
 Root     30 :     5.941708683854527
 Root     31 :     6.006585863765477
 Root     32 :     6.088579013584074
 Root     33 :     6.119556591539636
 Root     34 :     6.186581252744433
 Root     35 :     6.220786954639075
 Root     36 :     6.223815123056760
 Root     37 :     6.299562360174826
 Root     38 :     6.339619465372847
 Root     39 :     6.379109134732273
 Root     40 :     6.399151494942706
 Root     41 :     6.411157558408312
 Root     42 :     6.416395238470957
 Root     43 :     6.436764388708837
 Root     44 :     6.461024749015307
 Root     45 :     6.474070731303218
 Root     46 :     6.509785946746146
 Root     47 :     6.527208014712932
 Root     48 :     6.543835488237377
 Root     49 :     6.552574842374941
 Root     50 :     6.569819975399988
 Root     51 :     6.582673042727889
 Root     52 :     6.630357905965387
 Root     53 :     6.642583686652670
 Root     54 :     6.689831729730976
 Root     55 :     6.712095692139729
 Root     56 :     6.788153525661808
 Root     57 :     6.794791113416228
 Root     58 :     6.807955658304754
 Root     59 :     6.934255060345738
 Root     60 :     6.993622557640935
 Root     61 :     7.001974078739017
 Root     62 :     7.022914556999977
 Root     63 :     7.039854553752371
 Root     64 :     7.065723936125379
 Root     65 :     7.068537894371527
 Root     66 :     7.125214676950206
 Root     67 :     7.151431936945156
 Root     68 :     7.174231807866962
 Root     69 :     7.180002046992865
 Root     70 :     7.222813270696773
 Root     71 :     7.264802459633389
 Root     72 :     7.295759003904451
 Root     73 :     7.322231785847738
 Root     74 :     7.344933467490623
 Root     75 :     7.366059401001129
 Root     76 :     7.379676933278353
 Root     77 :     7.450706814990512
 Root     78 :     7.468962378533777
 Root     79 :     7.500141117250672
 Root     80 :     7.517800417810176
 Root     81 :     7.569213923902844
 Root     82 :     7.594834961640128
 Root     83 :     7.608861682543198
 Root     84 :     7.614820386379884
 Root     85 :     7.648968334593875
 Root     86 :     7.665380048523871
 Root     87 :     7.680353770404632
 Root     88 :     7.698764100736345
 Root     89 :     7.709494251875119
 Root     90 :     7.765388613767586
 Root     91 :     7.775640720171339
 Root     92 :     7.790678440988984
 Root     93 :     7.811691319856206
 Root     94 :     7.822470236431743
 Root     95 :     7.861075570845460
 Root     96 :     7.865079919152523
 Root     97 :     7.898383053256440
 Root     98 :     7.929469800338889
 Root     99 :     7.931033934268767
 Root    100 :     7.988458758425961
 Root    101 :     7.997900156373583
 Root    102 :     8.046752281757364
 Root    103 :     8.071166854217374
 Root    104 :     8.091064950567697
 Root    105 :     8.142677649580042
 Root    106 :     8.156271116506327
 Root    107 :     8.168595279574490
 Root    108 :     8.204388993994412
 Root    109 :     8.217308621709247
 Root    110 :     8.227361413654254
 Root    111 :     8.233505722976480
 Root    112 :     8.255189990860353
 Root    113 :     8.301127205032756
 Root    114 :     8.320035570515900
 Root    115 :     8.335919514981050
 Root    116 :     8.349826415683172
 Root    117 :     8.355618264395462
 Root    118 :     8.364718246536730
 Root    119 :     8.386550365077506
 Root    120 :     8.410709839027589
 Root    121 :     8.420563759636611
 Root    122 :     8.430198856429138
 Root    123 :     8.444482527364077
 Root    124 :     8.468628982787367
 Root    125 :     8.474499286185463
 Root    126 :     8.499681614421599
 Root    127 :     8.510453820290317
 Root    128 :     8.544362302358495
 Root    129 :     8.559543130377905
 Root    130 :     8.580162147741461
 Root    131 :     8.614784725688825
 Root    132 :     8.641801686818393
 Root    133 :     8.666429514171408
 Root    134 :     8.683584190458877
 Root    135 :     8.738027571803057
 Root    136 :     8.765647385718770
 Root    137 :     8.785777548099697
 Root    138 :     8.799125301255186
 Root    139 :     8.809519320750622
 Root    140 :     8.857068599926551
 Root    141 :     9.000519659081649
 Root    142 :     9.045366647566164
 Root    143 :     9.390193237173078
 Root    144 :     9.536888889858764
 Iteration     2 Dimension   216 NMult   144 NNew     72
 CISAX will form     3 AO SS matrices at one time.
 NMat=     3 NSing=     3 JSym2X= 0.
 NMat=     3 NSing=     3 JSym2X= 0.
 NMat=     3 NSing=     3 JSym2X= 0.
 NMat=     3 NSing=     3 JSym2X= 0.
 NMat=     3 NSing=     3 JSym2X= 0.
 NMat=     3 NSing=     3 JSym2X= 0.
 NMat=     3 NSing=     3 JSym2X= 0.
 NMat=     3 NSing=     3 JSym2X= 0.
 NMat=     3 NSing=     3 JSym2X= 0.
 NMat=     3 NSing=     3 JSym2X= 0.
 NMat=     3 NSing=     3 JSym2X= 0.
 NMat=     3 NSing=     3 JSym2X= 0.
 NMat=     3 NSing=     3 JSym2X= 0.
 NMat=     3 NSing=     3 JSym2X= 0.
 NMat=     3 NSing=     3 JSym2X= 0.
 NMat=     3 NSing=     3 JSym2X= 0.
 NMat=     3 NSing=     3 JSym2X= 0.
 NMat=     3 NSing=     3 JSym2X= 0.
 NMat=     3 NSing=     3 JSym2X= 0.
 NMat=     3 NSing=     3 JSym2X= 0.
 NMat=     3 NSing=     3 JSym2X= 0.
 NMat=     3 NSing=     3 JSym2X= 0.
 NMat=     3 NSing=     3 JSym2X= 0.
 NMat=     3 NSing=     3 JSym2X= 0.
 Root      1 not converged, maximum delta is    0.031114733251676
 Root      2 not converged, maximum delta is    0.054194185079001
 New state      3 was old state      4
 Root      3 not converged, maximum delta is    0.222429743934395
 New state      4 was old state      3
 Root      4 not converged, maximum delta is    0.287003037721239
 New state      5 was old state      6
 Root      5 not converged, maximum delta is    0.432331864475499
 New state      6 was old state      5
 Root      6 not converged, maximum delta is    0.381755162330685
 Root      7 not converged, maximum delta is    0.146679850450787
 Root      8 not converged, maximum delta is    0.028890359414571
 Root      9 not converged, maximum delta is    0.226177587554403
 Root     10 not converged, maximum delta is    0.399140596006961
 New state     11 was old state     13
 Root     11 not converged, maximum delta is    0.440619814605154
 Root     12 not converged, maximum delta is    0.306161364487000
 New state     13 was old state     11
 Root     13 not converged, maximum delta is    0.166970760865715
 Root     14 not converged, maximum delta is    0.317980012886408
 New state     15 was old state     16
 Root     15 not converged, maximum delta is    0.251250443893945
 New state     16 was old state     15
 Root     16 not converged, maximum delta is    0.206223864167773
 Root     17 not converged, maximum delta is    0.175800500414346
 Root     18 not converged, maximum delta is    0.125885915583269
 Root     19 not converged, maximum delta is    0.318009893597148
 Root     20 not converged, maximum delta is    0.449963556320967
 New state     21 was old state     24
 Root     21 not converged, maximum delta is    0.397580397734248
 New state     22 was old state     21
 Root     22 not converged, maximum delta is    0.047479500307962
 New state     23 was old state     22
 Root     23 not converged, maximum delta is    0.250324436623324
 New state     24 was old state     26
 Root     24 not converged, maximum delta is    0.351660799485841
 New state     25 was old state     27
 Root     25 not converged, maximum delta is    0.221727243437577
 New state     26 was old state     23
 Root     26 not converged, maximum delta is    0.204096319971268
 New state     27 was old state     25
 Root     27 not converged, maximum delta is    0.319647154474817
 Root     28 not converged, maximum delta is    0.053872079482905
 Root     29 not converged, maximum delta is    0.104692811504547
 New state     30 was old state     31
 Root     30 not converged, maximum delta is    0.138912853416676
 New state     31 was old state     30
 Root     31 not converged, maximum delta is    0.168883534712524
 Root     32 not converged, maximum delta is    0.219248494428805
 New state     33 was old state     34
 Root     33 not converged, maximum delta is    0.307401894374103
 New state     34 was old state     33
 Root     34 not converged, maximum delta is    0.141961757019567
 Root     35 not converged, maximum delta is    0.171798956659010
 Root     36 not converged, maximum delta is    0.077349327544632
 Excitation Energies [eV] at current iteration:
 Root      1 :     1.964137717346990   Change is   -0.137246145403677
 Root      2 :     3.023378058316858   Change is   -0.081816576542885
 Root      3 :     3.253624162077193   Change is   -0.107759349992920
 Root      4 :     3.287649063289553   Change is   -0.046912599104809
 Root      5 :     3.347002832908945   Change is   -0.258838205050476
 Root      6 :     3.401568005800311   Change is   -0.087943861037664
 Root      7 :     3.711229279437033   Change is   -0.103475017699235
 Root      8 :     3.809724873577923   Change is   -0.049648114717981
 Root      9 :     3.871761954475445   Change is   -0.092736554932980
 Root     10 :     4.241391748193710   Change is   -0.142077232805622
 Root     11 :     4.350110949286939   Change is   -0.239013207866101
 Root     12 :     4.412804325180191   Change is   -0.147304149875917
 Root     13 :     4.449601070741643   Change is   -0.061198328664662
 Root     14 :     4.501265314380136   Change is   -0.128351349929654
 Root     15 :     4.619462601616526   Change is   -0.068838759959351
 Root     16 :     4.641965956024459   Change is   -0.034914130383694
 Root     17 :     4.706057121236460   Change is   -0.031787664159047
 Root     18 :     4.751679459117707   Change is   -0.056957731527635
 Root     19 :     4.933224053781428   Change is   -0.055131965044457
 Root     20 :     5.009919363651283   Change is   -0.085675068339432
 Root     21 :     5.113661848782684   Change is   -0.453240900242184
 Root     22 :     5.163346815711880   Change is   -0.040337307910742
 Root     23 :     5.304246329984122   Change is   -0.118558077698505
 Root     24 :     5.338946346083462   Change is   -0.396620358552696
 Root     25 :     5.405610432292329   Change is   -0.420918855399294
 Root     26 :     5.488386788415998   Change is   -0.050365651725382
 Root     27 :     5.596711079343413   Change is   -0.044528746660828
 Root     28 :     5.861550412003161   Change is   -0.016383140902150
 Root     29 :     5.879874976966313   Change is   -0.023724167853786
 Root     30 :     5.910283553065588   Change is   -0.096302310699890
 Root     31 :     5.927680763404994   Change is   -0.014027920449533
 Root     32 :     6.035963580240564   Change is   -0.052615433343510
 Root     33 :     6.045302602383334   Change is   -0.141278650361099
 Root     34 :     6.097188498362362   Change is   -0.022368093177274
 Root     35 :     6.162741948915975   Change is   -0.058045005723101
 Root     36 :     6.209304316000506   Change is   -0.014510807056254
 Iteration     3 Dimension   288 NMult   216 NNew     72
 CISAX will form     3 AO SS matrices at one time.
 NMat=     3 NSing=     3 JSym2X= 0.
 NMat=     3 NSing=     3 JSym2X= 0.
 NMat=     3 NSing=     3 JSym2X= 0.
 NMat=     3 NSing=     3 JSym2X= 0.
 NMat=     3 NSing=     3 JSym2X= 0.
 NMat=     3 NSing=     3 JSym2X= 0.
 NMat=     3 NSing=     3 JSym2X= 0.
 NMat=     3 NSing=     3 JSym2X= 0.
 NMat=     3 NSing=     3 JSym2X= 0.
 NMat=     3 NSing=     3 JSym2X= 0.
 NMat=     3 NSing=     3 JSym2X= 0.
 NMat=     3 NSing=     3 JSym2X= 0.
 NMat=     3 NSing=     3 JSym2X= 0.
 NMat=     3 NSing=     3 JSym2X= 0.
 NMat=     3 NSing=     3 JSym2X= 0.
 NMat=     3 NSing=     3 JSym2X= 0.
 NMat=     3 NSing=     3 JSym2X= 0.
 NMat=     3 NSing=     3 JSym2X= 0.
 NMat=     3 NSing=     3 JSym2X= 0.
 NMat=     3 NSing=     3 JSym2X= 0.
 NMat=     3 NSing=     3 JSym2X= 0.
 NMat=     3 NSing=     3 JSym2X= 0.
 NMat=     3 NSing=     3 JSym2X= 0.
 NMat=     3 NSing=     3 JSym2X= 0.
 Root      1 not converged, maximum delta is    0.002932247967591
 Root      2 not converged, maximum delta is    0.005152980329682
 Root      3 not converged, maximum delta is    0.015327473505999
 Root      4 not converged, maximum delta is    0.019730572474095
 Root      5 not converged, maximum delta is    0.023339406478807
 Root      6 not converged, maximum delta is    0.022189595124304
 Root      7 not converged, maximum delta is    0.006787001807925
 Root      8 not converged, maximum delta is    0.001765568870145
 Root      9 not converged, maximum delta is    0.011156897378810
 Root     10 not converged, maximum delta is    0.013906617448476
 Root     11 not converged, maximum delta is    0.008128720363308
 Root     12 not converged, maximum delta is    0.010686259558299
 Root     13 not converged, maximum delta is    0.017979724283415
 Root     14 not converged, maximum delta is    0.016659804714791
 Root     15 not converged, maximum delta is    0.009721687764719
 Root     16 not converged, maximum delta is    0.006444931793209
 Root     17 not converged, maximum delta is    0.005543988253287
 Root     18 not converged, maximum delta is    0.011180033103070
 Root     19 not converged, maximum delta is    0.029107935829988
 Root     20 not converged, maximum delta is    0.029765194602466
 Root     21 not converged, maximum delta is    0.028050028278185
 Root     22 not converged, maximum delta is    0.007287809137508
 Root     23 not converged, maximum delta is    0.016830236177282
 Root     24 not converged, maximum delta is    0.022410674488846
 Root     25 not converged, maximum delta is    0.046871227584943
 Root     26 not converged, maximum delta is    0.010933599686041
 Root     27 not converged, maximum delta is    0.006625222843342
 Root     28 not converged, maximum delta is    0.003849092355511
 Root     29 not converged, maximum delta is    0.012434468958960
 Root     30 not converged, maximum delta is    0.031287978220817
 Root     31 not converged, maximum delta is    0.029578400437277
 Root     32 not converged, maximum delta is    0.101168170363240
 Root     33 not converged, maximum delta is    0.169583729897360
 Root     34 not converged, maximum delta is    0.018458539067404
 Root     35 not converged, maximum delta is    0.019830325551185
 Root     36 not converged, maximum delta is    0.011093156879193
 Excitation Energies [eV] at current iteration:
 Root      1 :     1.959414118340541   Change is   -0.004723599006449
 Root      2 :     3.018750992680780   Change is   -0.004627065636078
 Root      3 :     3.250048090530769   Change is   -0.003576071546424
 Root      4 :     3.283686573986845   Change is   -0.003962489302707
 Root      5 :     3.343294240877918   Change is   -0.003708592031027
 Root      6 :     3.397339680837422   Change is   -0.004228324962889
 Root      7 :     3.706757890966280   Change is   -0.004471388470753
 Root      8 :     3.808191849383029   Change is   -0.001533024194894
 Root      9 :     3.868235430359817   Change is   -0.003526524115628
 Root     10 :     4.233800061270508   Change is   -0.007591686923202
 Root     11 :     4.344537551973042   Change is   -0.005573397313896
 Root     12 :     4.408956130499406   Change is   -0.003848194680785
 Root     13 :     4.445981533546165   Change is   -0.003619537195478
 Root     14 :     4.495309390778343   Change is   -0.005955923601794
 Root     15 :     4.616087569327789   Change is   -0.003375032288738
 Root     16 :     4.640726220019492   Change is   -0.001239736004967
 Root     17 :     4.705131235225003   Change is   -0.000925886011457
 Root     18 :     4.749129903136851   Change is   -0.002549555980856
 Root     19 :     4.927827013703665   Change is   -0.005397040077764
 Root     20 :     5.006515242458535   Change is   -0.003404121192748
 Root     21 :     5.101698837478509   Change is   -0.011963011304174
 Root     22 :     5.161828911978374   Change is   -0.001517903733505
 Root     23 :     5.291488223200202   Change is   -0.012758106783921
 Root     24 :     5.329402971822261   Change is   -0.009543374261202
 Root     25 :     5.379352224225876   Change is   -0.026258208066453
 Root     26 :     5.484485940333277   Change is   -0.003900848082720
 Root     27 :     5.591322715055242   Change is   -0.005388364288171
 Root     28 :     5.860867560486652   Change is   -0.000682851516509
 Root     29 :     5.879138209302226   Change is   -0.000736767664087
 Root     30 :     5.902823120357611   Change is   -0.007460432707977
 Root     31 :     5.926221511067231   Change is   -0.001459252337763
 Root     32 :     6.028273936392567   Change is   -0.007689643847997
 Root     33 :     6.034526601230123   Change is   -0.010776001153211
 Root     34 :     6.093659141617048   Change is   -0.003529356745314
 Root     35 :     6.158849011922056   Change is   -0.003892936993918
 Root     36 :     6.207833463108743   Change is   -0.001470852891762
 Iteration     4 Dimension   360 NMult   288 NNew     72
 CISAX will form     3 AO SS matrices at one time.
 NMat=     3 NSing=     3 JSym2X= 0.
 NMat=     3 NSing=     3 JSym2X= 0.
 NMat=     3 NSing=     3 JSym2X= 0.
 NMat=     3 NSing=     3 JSym2X= 0.
 NMat=     3 NSing=     3 JSym2X= 0.
 NMat=     3 NSing=     3 JSym2X= 0.
 NMat=     3 NSing=     3 JSym2X= 0.
 NMat=     3 NSing=     3 JSym2X= 0.
 NMat=     3 NSing=     3 JSym2X= 0.
 NMat=     3 NSing=     3 JSym2X= 0.
 NMat=     3 NSing=     3 JSym2X= 0.
 NMat=     3 NSing=     3 JSym2X= 0.
[...]
     7  H    0.000002   0.000000  -0.000001   0.000000  -0.000000  -0.000000
     8  C    0.000404   0.000011  -0.000018  -0.000017   0.000057  -0.000001
     9  H    0.000178   0.000001   0.000000   0.000011   0.000021  -0.000001
    10  H    0.000126   0.000000   0.000000   0.000000  -0.000010  -0.000000
    11  H    0.000512  -0.000001  -0.000000   0.000003   0.000016  -0.000001
    12  C   -0.000745  -0.000001  -0.000000  -0.000012   0.000001   0.000013
    13  C    0.000172  -0.000000  -0.000000   0.000000  -0.000003  -0.000000
    14  C    0.002250   0.000022   0.000000   0.000056   0.000004  -0.000115
    15  C    0.000002   0.000000  -0.000000   0.000000  -0.000000  -0.000000
    16  H    0.000001  -0.000000   0.000000  -0.000000   0.000000  -0.000000
    17  C    0.000137   0.000000   0.000000  -0.000009  -0.000006  -0.000010
    18  H    0.000076  -0.000047   0.000000  -0.000038   0.000000  -0.000009
    19  C   -0.000185  -0.000000   0.000000  -0.000004   0.000005   0.000002
    20  H   -0.000000   0.000000   0.000000  -0.000000   0.000000   0.000000
    21  H   -0.000003   0.000000  -0.000000  -0.000017   0.000000   0.000000
    22  H    0.000000  -0.000000   0.000000   0.000000  -0.000000  -0.000000
    23  C   -0.015724   0.000378   0.001017   0.000609   0.000618   0.001386
    24  C    0.007379   0.003076   0.000646   0.000995  -0.000013  -0.011215
    25  C    0.238376   0.000707   0.000023   0.006486   0.001073  -0.010721
    26  C    0.000707  -0.117565   0.000502  -0.000183  -0.000016  -0.003062
    27  H    0.000023   0.000502  -0.011637  -0.000017   0.000002   0.000006
    28  C    0.006486  -0.000183  -0.000017  -0.115894   0.000325  -0.007176
    29  H    0.001073  -0.000016   0.000002   0.000325  -0.011379   0.000017
    30  C   -0.010721  -0.003062   0.000006  -0.007176   0.000017   0.274298
    31  H   -0.000005   0.000455   0.000042  -0.000000  -0.000000  -0.000540
    32  H   -0.000505  -0.000001  -0.000000   0.000505   0.000033  -0.000500
    33  H    0.000009   0.000098   0.000003   0.000103   0.000003   0.001410
    34  O    0.000324   0.000001   0.000096   0.000002  -0.000000  -0.000004
    35  H    0.000033   0.000001   0.000006  -0.000000  -0.000000  -0.000000
              31         32         33         34         35
     1  C   -0.000000  -0.000000  -0.000000  -0.003251  -0.001677
     2  C   -0.000003  -0.000003   0.000000  -0.078990  -0.010237
     3  O    0.000000   0.000000   0.000000   0.001586   0.002322
     4  C    0.000000  -0.000000  -0.000000  -0.000126   0.000056
     5  H    0.000000  -0.000000  -0.000000  -0.000015  -0.000003
     6  H   -0.000002   0.000000   0.000000   0.000820   0.000198
     7  H    0.000000   0.000000   0.000000   0.000136   0.000102
     8  C    0.000000   0.000000  -0.000000   0.000749   0.000694
     9  H   -0.000000  -0.000000   0.000000  -0.000002   0.000093
    10  H    0.000000   0.000000   0.000000  -0.000395   0.002983
    11  H   -0.000000  -0.000000  -0.000000   0.002587  -0.001219
    12  C   -0.000000  -0.000000  -0.000000  -0.000015   0.000015
    13  C    0.000000   0.000000   0.000000   0.000014   0.000028
    14  C   -0.000000   0.000000   0.000000   0.000035   0.000016
    15  C    0.000000   0.000000  -0.000000   0.000000   0.000000
    16  H    0.000000   0.000000   0.000000   0.000001   0.000003
    17  C    0.000000  -0.000000   0.000000   0.000000   0.000000
    18  H   -0.000000  -0.000000   0.000000   0.000002   0.000000
    19  C   -0.000000  -0.000000  -0.000000  -0.000000  -0.000000
    20  H    0.000000  -0.000000  -0.000000  -0.000000  -0.000000
    21  H   -0.000000   0.000000  -0.000000  -0.000000  -0.000000
    22  H    0.000000   0.000000   0.000000   0.000000   0.000000
    23  C   -0.000001  -0.000016  -0.000033  -0.001266  -0.000156
    24  C   -0.000492  -0.000007   0.000012   0.002312   0.000130
    25  C   -0.000005  -0.000505   0.000009   0.000324   0.000033
    26  C    0.000455  -0.000001   0.000098   0.000001   0.000001
    27  H    0.000042  -0.000000   0.000003   0.000096   0.000006
    28  C   -0.000000   0.000505   0.000103   0.000002  -0.000000
    29  H   -0.000000   0.000033   0.000003  -0.000000  -0.000000
    30  C   -0.000540  -0.000500   0.001410  -0.000004  -0.000000
    31  H    0.004611  -0.000000   0.000070   0.000000   0.000000
    32  H   -0.000000   0.004487   0.000072   0.000000   0.000000
    33  H    0.000070   0.000072  -0.013043   0.000000   0.000000
    34  O    0.000000   0.000000   0.000000   0.144774  -0.000994
    35  H    0.000000   0.000000   0.000000  -0.000994   0.015242
 Mulliken charges and spin densities:
               1          2
     1  C    0.390895   0.020220
     2  C    0.239601   0.588555
     3  O   -0.540432   0.018290
     4  C   -0.393321  -0.001477
     5  H    0.141385   0.000003
     6  H    0.147854   0.001981
     7  H    0.126694   0.000063
     8  C   -0.372063  -0.048750
     9  H    0.130942   0.003022
    10  H    0.129201   0.017477
    11  H    0.132912   0.034304
    12  C    0.062499  -0.010336
    13  C   -0.112357   0.020608
    14  C   -0.112745   0.015283
    15  C   -0.101526  -0.010145
    16  H    0.111245  -0.000951
    17  C   -0.105503  -0.010157
    18  H    0.110809  -0.000654
    19  C   -0.089423   0.022463
    20  H    0.108673   0.000352
    21  H    0.109354   0.000366
    22  H    0.110597  -0.001017
    23  C    0.099103  -0.158609
    24  C   -0.143233   0.219053
    25  C   -0.135775   0.212264
    26  C   -0.101123  -0.115775
    27  H    0.103844  -0.009630
    28  C   -0.108781  -0.114431
    29  H    0.094556  -0.009279
    30  C   -0.110384   0.243981
    31  H    0.097413   0.004134
    32  H    0.097630   0.004064
    33  H    0.095561  -0.011296
    34  O   -0.553960   0.068384
    35  H    0.339858   0.007635
 Sum of Mulliken charges =  -0.00000   1.00000
 Mulliken charges and spin densities with hydrogens summed into heavy atoms:
               1          2
     1  C    0.390895   0.020220
     2  C    0.239601   0.588555
     3  O   -0.540432   0.018290
     4  C    0.022611   0.000571
     8  C    0.020993   0.006054
    12  C    0.062499  -0.010336
    13  C   -0.001112   0.019657
    14  C   -0.001936   0.014629
    15  C    0.007147  -0.009792
    17  C    0.003851  -0.009791
    19  C    0.021174   0.021446
    23  C    0.099103  -0.158609
    24  C   -0.039390   0.209424
    25  C   -0.041219   0.202985
    26  C   -0.003709  -0.111641
    28  C   -0.011151  -0.110366
    30  C   -0.014824   0.232686
    34  O   -0.214102   0.076019
 Electronic spatial extent (au):  <R**2>=           4099.5394
 Charge=             -0.0000 electrons
 Dipole moment (field-independent basis, Debye):
    X=             -1.0933    Y=              3.0937    Z=             -0.3089  Tot=              3.2957
 Quadrupole moment (field-independent basis, Debye-Ang):
   XX=           -106.5977   YY=           -102.4977   ZZ=            -98.9931
   XY=             -2.9371   XZ=             -7.7388   YZ=              0.5050
 Traceless Quadrupole moment (field-independent basis, Debye-Ang):
   XX=             -3.9015   YY=              0.1985   ZZ=              3.7031
   XY=             -2.9371   XZ=             -7.7388   YZ=              0.5050
 Octapole moment (field-independent basis, Debye-Ang**2):
  XXX=            -14.6534  YYY=             19.7509  ZZZ=             -1.2580  XYY=              1.2533
  XXY=             17.9957  XXZ=             -1.7936  XZZ=             -4.6154  YZZ=            -13.8064
  YYZ=              3.7779  XYZ=             -1.8737
 Hexadecapole moment (field-independent basis, Debye-Ang**3):
 XXXX=          -2834.0817 YYYY=          -1663.1093 ZZZZ=           -847.9212 XXXY=            -10.9254
 XXXZ=           -140.2639 YYYX=            -29.6876 YYYZ=             -7.6103 ZZZX=             -3.5963
 ZZZY=             -0.8792 XXYY=           -759.0352 XXZZ=           -620.0053 YYZZ=           -424.1481
 XXYZ=             11.8457 YYXZ=            -27.3527 ZZXY=              4.1345
 N-N= 1.303659270382D+03 E-N=-4.397455642488D+03  KE= 7.631121301187D+02
 Leave Link  601 at Sat May 25 04:47:11 2019, MaxMem=   104857600 cpu:               4.3 elap:               0.2
 (Enter /opt/software/gaussian/g16.b01/l9999.exe)
 Electronic transition elements 
                 1             2             3             4             5 
      1  -0.770358D+03 -0.770320D+03 -0.770311D+03 -0.770310D+03 -0.770308D+03
      2  -0.124360D+01 -0.579439D-01 -0.150869D+00  0.112791D+00 -0.156174D+00
      3   0.133393D-01  0.993872D-01  0.595777D-01 -0.840500D-01  0.284750D-03
      4  -0.442001D+00  0.998242D-01  0.220849D-02  0.666086D-01 -0.395743D-01
      5   0.856481D-01  0.680705D-02  0.181892D-01 -0.999620D-02  0.182661D-01
      6  -0.797784D-03 -0.157201D-01 -0.702118D-02  0.104182D-01 -0.893244D-03
      7   0.314511D-01 -0.111010D-01 -0.309642D-03 -0.883677D-02  0.413860D-02
      8  -0.124286D+00 -0.354300D+00 -0.410802D-01  0.176254D+00 -0.229389D-01
      9   0.486170D-01  0.134323D+00  0.182874D+00 -0.130292D-01 -0.169437D+00
     10   0.303034D+00 -0.423664D+00 -0.234132D-01  0.185203D-01  0.310544D+00
     11   0.484400D-01  0.957748D-01 -0.224328D-02  0.681731D-01  0.468314D-01
     12  -0.471422D-01 -0.215456D-01 -0.126284D-01  0.982360D-02 -0.226926D-01
     13   0.147603D-01 -0.174635D-01  0.117545D-01 -0.694953D-01 -0.101471D-01
     14   0.101128D+00 -0.532957D-01  0.783380D-01 -0.202414D-01  0.944078D-01
     15  -0.926028D-02 -0.501857D-01  0.142022D-04 -0.799998D-04 -0.633579D-02
     16  -0.691433D-01 -0.197826D-01  0.274306D-02  0.417812D-01  0.524076D-02
                 6             7             8             9            10 
      1  -0.770306D+03 -0.770294D+03 -0.770291D+03 -0.770288D+03 -0.770275D+03
      2   0.498778D-01  0.179429D+00  0.412808D-01  0.762775D-01 -0.794050D+00
      3   0.270703D-01 -0.216366D+00 -0.351009D-01 -0.595500D-01 -0.367495D+00
      4  -0.195685D-01 -0.221276D+00 -0.388425D-01 -0.140248D+00  0.295465D+00
      5  -0.497774D-02 -0.261152D-01 -0.783810D-02 -0.109624D-01  0.119733D+00
      6  -0.666447D-02  0.326730D-01  0.394654D-02  0.117830D-01  0.541324D-01
      7   0.218844D-02  0.336037D-01  0.477802D-02  0.213181D-01 -0.449505D-01
      8   0.576378D-01  0.415954D+00 -0.133525D+00  0.208678D+00 -0.325505D+00
      9   0.477246D-01 -0.295118D+00 -0.673985D+00 -0.145117D+00  0.355741D+00
     10   0.431559D-02  0.895596D+00  0.295510D+00  0.201912D+00  0.823441D+00
     11   0.535022D-01 -0.901693D-01  0.279780D-01 -0.262325D+00  0.618411D+00
     12  -0.280904D-01  0.289914D-01  0.366761D-02  0.589274D-01 -0.130446D+00
     13  -0.180630D-02  0.242165D-02 -0.362513D-01  0.704619D-01 -0.169232D+00
     14   0.166540D-01  0.181180D+00 -0.590961D-01  0.776937D-01  0.566458D+00
     15  -0.274576D-01  0.850852D-01 -0.114242D-01  0.103675D+00 -0.956449D-01
     16  -0.761742D-02  0.828714D-01 -0.286687D-01  0.615216D-02  0.178989D+00
                11            12            13            14            15 
      1  -0.770271D+03 -0.770268D+03 -0.770267D+03 -0.770265D+03 -0.770261D+03
      2   0.886698D-03  0.388881D-01  0.302459D+00 -0.517377D+00 -0.106870D+00
      3   0.202923D+00  0.284167D+00  0.208945D+00 -0.290026D+00  0.631370D+00
      4  -0.183832D-01 -0.507108D-02 -0.820655D-01  0.400628D+00  0.141261D-01
      5  -0.603198D-03 -0.475392D-02 -0.515804D-01  0.793509D-01  0.182317D-01
      6  -0.311893D-01 -0.413654D-01 -0.331552D-01  0.493118D-01 -0.102680D+00
      7   0.204634D-02 -0.129185D-02  0.135178D-01 -0.668138D-01 -0.403231D-02
      8  -0.513764D-01 -0.426027D-01  0.246537D+00 -0.172068D+00 -0.135391D+00
      9  -0.730064D-01 -0.296523D+00  0.188366D+00  0.125601D+00 -0.143793D+00
     10  -0.427704D-01 -0.271569D+00  0.110641D+00  0.338698D+00  0.213408D+00
     11  -0.150758D+00 -0.467582D+00  0.184202D+00  0.228134D+00 -0.206332D+00
     12   0.135155D-01  0.730151D-01 -0.662663D-01 -0.190823D-01 -0.513671D-01
     13   0.483984D-01  0.110689D+00 -0.250565D-01 -0.102810D+00  0.789515D-01
     14   0.332670D-01 -0.486608D-01 -0.605713D-01  0.474584D+00  0.193088D+00
     15   0.202640D-01  0.120440D+00 -0.901599D-01 -0.156847D-02  0.187489D-01
     16  -0.225962D-01 -0.643185D-01  0.745022D-01  0.190667D+00  0.206285D-01
                16            17            18            19            20 
      1  -0.770260D+03 -0.770258D+03 -0.770256D+03 -0.770249D+03 -0.770246D+03
      2  -0.870114D-01  0.116481D+00  0.272480D-01  0.422284D+00  0.299309D+00
      3   0.104442D+00 -0.124041D+00 -0.351219D+00  0.672049D+00  0.271810D+00
      4   0.205958D-01  0.149096D-01 -0.643398D-01 -0.348596D+00 -0.316159D+00
      5   0.144433D-01 -0.185769D-01 -0.722267D-02 -0.757406D-01 -0.581031D-01
      6  -0.144908D-01  0.191347D-01  0.612255D-01 -0.118249D+00 -0.494844D-01
      7  -0.435193D-02 -0.184072D-02  0.114557D-01  0.620260D-01  0.578396D-01
      8  -0.369185D-02 -0.122636D-01  0.128059D+00  0.161818D+00  0.255011D+00
      9  -0.170623D+00 -0.964259D-01 -0.535737D-01 -0.254708D+00 -0.247941D-01
     10   0.102775D+00 -0.142579D+00  0.127227D+00 -0.139757D+00  0.548448D-01
     11  -0.293054D+00  0.144380D+00 -0.300009D-01 -0.584521D+00 -0.137421D+00
     12   0.472554D-01  0.140899D-04  0.755027D-01  0.269347D-01 -0.899072D-03
     13   0.637245D-01 -0.630463D-01 -0.474650D-01  0.186952D+00  0.559680D-01
     14   0.133441D+00 -0.178996D+00  0.608687D-01 -0.186700D+00 -0.820731D-01
     15   0.103488D+00 -0.532364D-01  0.709352D-01  0.100281D+00  0.963134D-02
     16   0.560311D-02 -0.236791D-01  0.299136D-01 -0.101380D+00 -0.185435D-01
                21            22            23            24            25 
      1  -0.770243D+03 -0.770241D+03 -0.770236D+03 -0.770235D+03 -0.770233D+03
      2   0.164204D+00 -0.355687D-01  0.183002D+00  0.480080D+00 -0.149372D-01
      3   0.121763D+01  0.117115D+00  0.313955D+00 -0.513629D+00  0.167501D+00
      4  -0.834936D-01  0.510079D-01 -0.356826D-01 -0.374778D+00  0.575841D-01
      5  -0.294256D-01  0.774902D-02 -0.312690D-01 -0.944064D-01  0.397137D-02
      6  -0.220391D+00 -0.210934D-01 -0.602984D-01  0.951433D-01 -0.306603D-01
      7   0.138470D-01 -0.971653D-02  0.110647D-01  0.733973D-01 -0.131837D-01
      8  -0.139095D+00 -0.703333D-01 -0.217561D+00  0.238068D+00 -0.887242D-01
      9  -0.397522D+00 -0.379565D-01 -0.532046D+00  0.936545D-01  0.907495D-01
     10  -0.788947D-02  0.102148D+00 -0.929109D-01 -0.840798D+00  0.172334D+00
     11  -0.106748D+01 -0.644381D-01 -0.301202D+00  0.541902D-01 -0.623711D-01
     12   0.722113D-01 -0.954840D-02 -0.125406D+00  0.956185D-01  0.331036D-01
     13   0.248096D+00  0.949868D-02  0.159714D+00  0.212027D-02 -0.337107D-01
     14   0.152933D-01  0.108317D+00  0.140038D+00 -0.887870D+00  0.154832D+00
     15   0.220065D+00  0.204088D-01  0.713216D-01 -0.550399D-01  0.180298D-01
     16  -0.912390D-01  0.283933D-01  0.414350D-02 -0.246057D+00  0.548248D-01
                26            27            28            29            30 
      1  -0.770229D+03 -0.770225D+03 -0.770215D+03 -0.770214D+03 -0.770214D+03
      2   0.414748D-01 -0.433412D-03  0.595223D-01  0.100404D+00  0.231520D-01
      3  -0.118035D+00  0.325648D-01 -0.408864D-01 -0.137493D+00  0.806649D-01
      4  -0.603822D-01  0.513724D-02 -0.290211D-01 -0.487308D-01  0.840452D-02
      5  -0.868916D-02  0.753485D-02 -0.133288D-01 -0.224638D-01 -0.712476D-02
      6   0.244143D-01 -0.159413D-01  0.881062D-02  0.276095D-01 -0.154616D-01
      7   0.129361D-01  0.107088D-01  0.592562D-02  0.790307D-02 -0.204291D-02
      8   0.171908D-01 -0.131785D+00  0.203732D-01  0.190868D-02  0.186117D+00
      9  -0.457417D-01 -0.406773D-02 -0.579341D-02 -0.450131D-01  0.171211D+00
     10   0.140141D+00  0.138099D+00 -0.975477D-01 -0.332958D+00 -0.208107D-01
     11  -0.375889D-01  0.186761D-01 -0.999482D-03 -0.171277D-01 -0.354139D-01
     12   0.399602D-01 -0.914277D-02  0.291710D-01  0.863545D-01  0.122998D+00
     13  -0.147138D-01  0.168276D+00 -0.636294D-02 -0.176256D-01 -0.100694D+00
     14   0.745456D-01 -0.784640D-02 -0.954523D-01 -0.248747D+00 -0.752334D-01
     15   0.502936D-01  0.845183D-01 -0.703402D-03  0.105129D-01  0.139319D-01
     16   0.386778D-01 -0.851032D-01 -0.162322D-01 -0.749647D-01  0.206210D-01
                31            32            33            34            35 
      1  -0.770213D+03 -0.770209D+03 -0.770209D+03 -0.770207D+03 -0.770204D+03
      2  -0.242055D+00  0.507580D+00  0.208315D+00 -0.593878D-01 -0.601075D-01
      3   0.314805D-01 -0.931432D-01 -0.107353D+00 -0.335314D-01 -0.873757D-01
      4   0.112365D+00 -0.283058D+00 -0.961638D-01  0.344342D-01 -0.534251D-01
      5   0.537361D-01 -0.112993D+00 -0.453042D-01  0.119256D-01  0.129792D-01
      6  -0.887872D-02  0.183698D-01  0.224778D-01  0.917557D-02  0.184758D-01
      7  -0.272448D-01  0.664084D-01  0.221208D-01 -0.777824D-02  0.135519D-01
      8  -0.103697D+00  0.328486D+00  0.852714D-01 -0.573801D-01  0.285509D-01
      9  -0.552101D-01  0.218776D-01  0.335516D+00 -0.145537D+00 -0.165174D+00
     10   0.421114D-01  0.259270D+00  0.233541D+00 -0.334155D+00  0.450164D+00
     11  -0.806019D-01  0.331729D+00  0.274528D+00 -0.253796D+00 -0.129764D+00
     12  -0.675255D-02 -0.452183D-01 -0.154143D-01  0.111487D+00  0.267901D-01
     13   0.258603D-02 -0.590797D-01 -0.546253D-01  0.375491D-01  0.124221D-01
     14   0.201082D+00 -0.228046D+00 -0.600282D-01 -0.155034D+00  0.301971D+00
     15   0.486695D-01 -0.984242D-01 -0.951877D-01  0.769279D-01  0.112184D+00
     16  -0.242912D-01  0.103556D+00  0.992113D-01 -0.997431D-01  0.626814D-01
                36 
      1  -0.770202D+03
      2   0.713968D-01
      3   0.550999D-01
      4   0.343666D-01
      5  -0.114306D-01
      6  -0.138349D-01
      7  -0.317593D-02
      8   0.790028D-01
      9   0.484417D-01
     10  -0.120057D+00
     11  -0.943957D-01
     12   0.310893D-01
     13   0.137056D-01
     14  -0.104681D+00
     15  -0.246658D-01
     16  -0.503437D-01
 1\1\GINC-GRA756\SP\UB3LYP TD-FC\6-31G(d,p)\C16H17O2(2)\RZK\25-May-2019
 \0\\#p td=(50-50,nstates=36) ub3lyp/6-31g(d,p) scrf=(iefpcm,solvent=ac
 etonitrile) guess=(mix,always) empiricaldispersion=gd3\\Title Card Req
 uired\\0,2\C,0,-1.225765,-1.446801,-0.979493\C,0,0.786088,-1.293356,1.
 10351\O,0,-1.628687,-2.45005,-0.379446\C,0,-0.255934,-1.586603,-2.1312
 48\H,0,-0.698885,-1.182735,-3.047784\H,0,0.667318,-1.032653,-1.93985\H
 ,0,-0.018538,-2.641133,-2.270674\C,0,-0.235892,-1.184875,2.188174\H,0,
 -0.588834,-0.163797,2.330045\H,0,-1.105404,-1.803154,1.93955\H,0,0.168
 777,-1.548643,3.142844\C,0,-1.724395,-0.091174,-0.614911\C,0,-2.791675
 ,0.014878,0.294116\C,0,-1.146805,1.081351,-1.12993\C,0,-3.267315,1.262
 967,0.683403\H,0,-3.232702,-0.896136,0.68323\C,0,-1.619291,2.331295,-0
 .733251\H,0,-0.313722,1.024599,-1.820935\C,0,-2.679215,2.425329,0.1720
 68\H,0,-4.093637,1.334261,1.384086\H,0,-1.156324,3.23123,-1.125791\H,0
 ,-3.04629,3.400138,0.478967\C,0,1.638241,-0.253896,0.642987\C,0,2.6446
 21,-0.517131,-0.333946\C,0,1.504525,1.090591,1.09538\C,0,3.44496,0.502
 835,-0.829776\H,0,2.775277,-1.533136,-0.687465\C,0,2.312633,2.098726,0
 .589235\H,0,0.75494,1.339638,1.837532\C,0,3.289071,1.820705,-0.377886\
 H,0,4.200924,0.272269,-1.575468\H,0,2.180998,3.1156,0.948385\H,0,3.916
 451,2.614967,-0.770039\O,0,1.046598,-2.553052,0.640394\H,0,0.203245,-3
 .035541,0.575187\\Version=ES64L-G16RevB.01\State=2-A\HF=-770.4304494\S
 2=0.772779\S2-1=0.\S2A=0.750365\RMSD=3.421e-09\PG=C01 [X(C16H17O2)]\\@


 You can't act like a skunk without someone's getting wind of it.
 -- Lorene Workman
 Job cpu time:       0 days 14 hours 57 minutes 38.9 seconds.
 Elapsed time:       0 days  0 hours 28 minutes  5.8 seconds.
 File lengths (MBytes):  RWF=   2185 Int=      0 D2E=      0 Chk=    178 Scr=      1
 Normal termination of Gaussian 16 at Sat May 25 04:47:12 2019.
