 Entering Gaussian System, Link 0=g16
 Initial command:
 /opt/software/gaussian/g16.b01/l1.exe "/localscratch/rzk.15153368.0/Gau-29689.inp" -scrdir="/localscratch/rzk.15153368.0/"
 Entering Link 1 = /opt/software/gaussian/g16.b01/l1.exe PID=     29693.
  
 Copyright (c) 1988-2017, Gaussian, Inc.  All Rights Reserved.
  
 This is part of the Gaussian(R) 16 program.  It is based on
 the Gaussian(R) 09 system (copyright 2009, Gaussian, Inc.),
 the Gaussian(R) 03 system (copyright 2003, Gaussian, Inc.),
 the Gaussian(R) 98 system (copyright 1998, Gaussian, Inc.),
 the Gaussian(R) 94 system (copyright 1995, Gaussian, Inc.),
 the Gaussian 92(TM) system (copyright 1992, Gaussian, Inc.),
 the Gaussian 90(TM) system (copyright 1990, Gaussian, Inc.),
 the Gaussian 88(TM) system (copyright 1988, Gaussian, Inc.),
 the Gaussian 86(TM) system (copyright 1986, Carnegie Mellon
 University), and the Gaussian 82(TM) system (copyright 1983,
 Carnegie Mellon University). Gaussian is a federally registered
 trademark of Gaussian, Inc.
  
 This software contains proprietary and confidential information,
 including trade secrets, belonging to Gaussian, Inc.
  
 This software is provided under written license and may be
 used, copied, transmitted, or stored only in accord with that
 written license.
  
 The following legend is applicable only to US Government
 contracts under FAR:
  
                    RESTRICTED RIGHTS LEGEND
  
 Use, reproduction and disclosure by the US Government is
 subject to restrictions as set forth in subparagraphs (a)
 and (c) of the Commercial Computer Software - Restricted
 Rights clause in FAR 52.227-19.
  
 Gaussian, Inc.
 340 Quinnipiac St., Bldg. 40, Wallingford CT 06492
  
  
 ---------------------------------------------------------------
 Warning -- This program may not be used in any manner that
 competes with the business of Gaussian, Inc. or will provide
 assistance to any competitor of Gaussian, Inc.  The licensee
 of this program is prohibited from giving any competitor of
 Gaussian, Inc. access to this program.  By using this program,
 the user acknowledges that Gaussian, Inc. is engaged in the
 business of creating and licensing software in the field of
 computational chemistry and represents and warrants to the
 licensee that it is not a competitor of Gaussian, Inc. and that
 it will not use this program in any manner prohibited above.
 ---------------------------------------------------------------
  

 Cite this work as:
 Gaussian 16, Revision B.01,
 M. J. Frisch, G. W. Trucks, H. B. Schlegel, G. E. Scuseria, 
 M. A. Robb, J. R. Cheeseman, G. Scalmani, V. Barone, 
 G. A. Petersson, H. Nakatsuji, X. Li, M. Caricato, A. V. Marenich, 
 J. Bloino, B. G. Janesko, R. Gomperts, B. Mennucci, H. P. Hratchian, 
 J. V. Ortiz, A. F. Izmaylov, J. L. Sonnenberg, D. Williams-Young, 
 F. Ding, F. Lipparini, F. Egidi, J. Goings, B. Peng, A. Petrone, 
 T. Henderson, D. Ranasinghe, V. G. Zakrzewski, J. Gao, N. Rega, 
 G. Zheng, W. Liang, M. Hada, M. Ehara, K. Toyota, R. Fukuda, 
 J. Hasegawa, M. Ishida, T. Nakajima, Y. Honda, O. Kitao, H. Nakai, 
 T. Vreven, K. Throssell, J. A. Montgomery, Jr., J. E. Peralta, 
 F. Ogliaro, M. J. Bearpark, J. J. Heyd, E. N. Brothers, K. N. Kudin, 
 V. N. Staroverov, T. A. Keith, R. Kobayashi, J. Normand, 
 K. Raghavachari, A. P. Rendell, J. C. Burant, S. S. Iyengar, 
 J. Tomasi, M. Cossi, J. M. Millam, M. Klene, C. Adamo, R. Cammi, 
 J. W. Ochterski, R. L. Martin, K. Morokuma, O. Farkas, 
 J. B. Foresman, and D. J. Fox, Gaussian, Inc., Wallingford CT, 2016.
 
 ******************************************
 Gaussian 16:  ES64L-G16RevB.01 20-Dec-2017
                25-May-2019 
 ******************************************
 %NProcShared=32
 Will use up to   32 processors via shared memory.
 %chk=AH-A_5.chk
 ----------------------------------------------------------------------
 #p td=(50-50,nstates=36) ub3lyp/6-31g(d,p) scrf=(iefpcm,solvent=aceton
 itrile) guess=(mix,always) empiricaldispersion=gd3
 ----------------------------------------------------------------------
 1/38=1,172=1/1;
 2/12=2,17=6,18=5,40=1/2;
 3/5=1,6=6,7=101,11=2,25=1,30=1,70=2201,72=2,74=-5,116=2,124=31/1,2,3,8;
 4/13=-1/1;
 5/5=2,38=5,53=2/2;
 8/6=1,10=2,108=36/1;
 9/41=36,42=1,48=2,70=2/14;
 6/7=2,8=2,9=2,10=2/1;
 99/5=1,9=1/99;
 Leave Link    1 at Sat May 25 04:19:29 2019, MaxMem=           0 cpu:               2.5 elap:               0.1
 (Enter /opt/software/gaussian/g16.b01/l101.exe)
 -------------------
 Title Card Required
 -------------------
 Symbolic Z-matrix:
 Charge =  0 Multiplicity = 2
 C                    -1.15221  -1.44678  -0.96331 
 C                     0.77654  -1.28787   1.06023 
 O                    -1.55386  -2.47019  -0.39413 
 C                    -0.16904  -1.55214  -2.10839 
 H                    -0.64997  -1.21869  -3.03473 
 H                     0.71098  -0.9244   -1.94993 
 H                     0.14462  -2.59049  -2.21354 
 C                    -0.23819  -1.20271   2.15493 
 H                    -0.62996  -0.19449   2.28577 
 H                    -1.08377  -1.86005   1.92791 
 H                     0.19572  -1.53363   3.10866 
 C                    -1.70368  -0.11022  -0.60473 
 C                    -2.79367  -0.04441   0.2811 
 C                    -1.1615    1.08398  -1.10871 
 C                    -3.32457   1.18453   0.65968 
 H                    -3.20831  -0.97166   0.66061 
 C                    -1.69072   2.3149   -0.72426 
 H                    -0.31365   1.05949  -1.78326 
 C                    -2.77153   2.36872   0.15939 
 H                    -4.1675    1.2239    1.34293 
 H                    -1.25555   3.23176  -1.10949 
 H                    -3.18228   3.32876   0.45737 
 C                     1.62791  -0.23238   0.62856 
 C                     2.66634  -0.47633  -0.31779 
 C                     1.45799   1.10699   1.08101 
 C                     3.46644   0.55766  -0.78448 
 H                     2.82182  -1.4886   -0.67184 
 C                     2.26582   2.1301    0.60436 
 H                     0.68116   1.34106   1.79945 
 C                     3.27601   1.8707   -0.33218 
 H                     4.24878   0.34209  -1.50699 
 H                     2.10718   3.14328   0.96284 
 H                     3.90315   2.67611  -0.70133 
 O                     1.08317  -2.54346   0.61724 
 H                     0.2514   -3.04379   0.52817 
 
 ITRead=  0  0  0  0  0  0  0  0  0  0  0  0  0  0  0  0  0  0  0  0
 ITRead=  0  0  0  0  0  0  0  0  0  0  0  0  0  0  0
 MicOpt= -1 -1 -1 -1 -1 -1 -1 -1 -1 -1 -1 -1 -1 -1 -1 -1 -1 -1 -1 -1
 MicOpt= -1 -1 -1 -1 -1 -1 -1 -1 -1 -1 -1 -1 -1 -1 -1
 NAtoms=     35 NQM=       35 NQMF=       0 NMMI=      0 NMMIF=      0
                NMic=       0 NMicF=      0.
                    Isotopes and Nuclear Properties:
 (Nuclear quadrupole moments (NQMom) in fm**2, nuclear magnetic moments (NMagM)
  in nuclear magnetons)

  Atom         1           2           3           4           5           6           7           8           9          10
 IAtWgt=          12          12          16          12           1           1           1          12           1           1
 AtmWgt=  12.0000000  12.0000000  15.9949146  12.0000000   1.0078250   1.0078250   1.0078250  12.0000000   1.0078250   1.0078250
 NucSpn=           0           0           0           0           1           1           1           0           1           1
 AtZEff=  -0.0000000  -0.0000000  -0.0000000  -0.0000000  -0.0000000  -0.0000000  -0.0000000  -0.0000000  -0.0000000  -0.0000000
 NQMom=    0.0000000   0.0000000   0.0000000   0.0000000   0.0000000   0.0000000   0.0000000   0.0000000   0.0000000   0.0000000
 NMagM=    0.0000000   0.0000000   0.0000000   0.0000000   2.7928460   2.7928460   2.7928460   0.0000000   2.7928460   2.7928460
 AtZNuc=   6.0000000   6.0000000   8.0000000   6.0000000   1.0000000   1.0000000   1.0000000   6.0000000   1.0000000   1.0000000

  Atom        11          12          13          14          15          16          17          18          19          20
 IAtWgt=           1          12          12          12          12           1          12           1          12           1
 AtmWgt=   1.0078250  12.0000000  12.0000000  12.0000000  12.0000000   1.0078250  12.0000000   1.0078250  12.0000000   1.0078250
 NucSpn=           1           0           0           0           0           1           0           1           0           1
 AtZEff=  -0.0000000  -0.0000000  -0.0000000  -0.0000000  -0.0000000  -0.0000000  -0.0000000  -0.0000000  -0.0000000  -0.0000000
 NQMom=    0.0000000   0.0000000   0.0000000   0.0000000   0.0000000   0.0000000   0.0000000   0.0000000   0.0000000   0.0000000
 NMagM=    2.7928460   0.0000000   0.0000000   0.0000000   0.0000000   2.7928460   0.0000000   2.7928460   0.0000000   2.7928460
 AtZNuc=   1.0000000   6.0000000   6.0000000   6.0000000   6.0000000   1.0000000   6.0000000   1.0000000   6.0000000   1.0000000

  Atom        21          22          23          24          25          26          27          28          29          30
 IAtWgt=           1           1          12          12          12          12           1          12           1          12
 AtmWgt=   1.0078250   1.0078250  12.0000000  12.0000000  12.0000000  12.0000000   1.0078250  12.0000000   1.0078250  12.0000000
 NucSpn=           1           1           0           0           0           0           1           0           1           0
 AtZEff=  -0.0000000  -0.0000000  -0.0000000  -0.0000000  -0.0000000  -0.0000000  -0.0000000  -0.0000000  -0.0000000  -0.0000000
 NQMom=    0.0000000   0.0000000   0.0000000   0.0000000   0.0000000   0.0000000   0.0000000   0.0000000   0.0000000   0.0000000
 NMagM=    2.7928460   2.7928460   0.0000000   0.0000000   0.0000000   0.0000000   2.7928460   0.0000000   2.7928460   0.0000000
 AtZNuc=   1.0000000   1.0000000   6.0000000   6.0000000   6.0000000   6.0000000   1.0000000   6.0000000   1.0000000   6.0000000

  Atom        31          32          33          34          35
 IAtWgt=           1           1           1          16           1
 AtmWgt=   1.0078250   1.0078250   1.0078250  15.9949146   1.0078250
 NucSpn=           1           1           1           0           1
 AtZEff=  -0.0000000  -0.0000000  -0.0000000  -0.0000000  -0.0000000
 NQMom=    0.0000000   0.0000000   0.0000000   0.0000000   0.0000000
 NMagM=    2.7928460   2.7928460   2.7928460   0.0000000   2.7928460
 AtZNuc=   1.0000000   1.0000000   1.0000000   8.0000000   1.0000000
 Leave Link  101 at Sat May 25 04:19:30 2019, MaxMem=   104857600 cpu:               3.9 elap:               0.2
 (Enter /opt/software/gaussian/g16.b01/l202.exe)
                          Input orientation:                          
 ---------------------------------------------------------------------
 Center     Atomic      Atomic             Coordinates (Angstroms)
 Number     Number       Type             X           Y           Z
 ---------------------------------------------------------------------
      1          6           0       -1.152207   -1.446780   -0.963305
      2          6           0        0.776542   -1.287874    1.060226
      3          8           0       -1.553859   -2.470187   -0.394128
      4          6           0       -0.169035   -1.552137   -2.108386
      5          1           0       -0.649967   -1.218691   -3.034729
      6          1           0        0.710980   -0.924404   -1.949928
      7          1           0        0.144617   -2.590486   -2.213538
      8          6           0       -0.238191   -1.202705    2.154933
      9          1           0       -0.629958   -0.194486    2.285773
     10          1           0       -1.083772   -1.860046    1.927906
     11          1           0        0.195722   -1.533629    3.108662
     12          6           0       -1.703678   -0.110221   -0.604732
     13          6           0       -2.793672   -0.044407    0.281101
     14          6           0       -1.161497    1.083981   -1.108706
     15          6           0       -3.324573    1.184530    0.659680
     16          1           0       -3.208313   -0.971656    0.660611
     17          6           0       -1.690719    2.314901   -0.724259
     18          1           0       -0.313650    1.059491   -1.783261
     19          6           0       -2.771531    2.368721    0.159385
     20          1           0       -4.167504    1.223902    1.342931
     21          1           0       -1.255553    3.231760   -1.109494
     22          1           0       -3.182277    3.328758    0.457372
     23          6           0        1.627910   -0.232383    0.628562
     24          6           0        2.666340   -0.476331   -0.317788
     25          6           0        1.457988    1.106988    1.081006
     26          6           0        3.466437    0.557662   -0.784481
     27          1           0        2.821823   -1.488600   -0.671840
     28          6           0        2.265818    2.130105    0.604356
     29          1           0        0.681164    1.341063    1.799449
     30          6           0        3.276007    1.870700   -0.332178
     31          1           0        4.248777    0.342091   -1.506994
     32          1           0        2.107185    3.143284    0.962839
     33          1           0        3.903154    2.676112   -0.701332
     34          8           0        1.083175   -2.543460    0.617242
     35          1           0        0.251399   -3.043795    0.528165
 ---------------------------------------------------------------------
                    Distance matrix (angstroms):
                    1          2          3          4          5
     1  C    0.000000
     2  C    2.800000   0.000000
     3  O    1.238002   2.990615   0.000000
     4  C    1.512924   3.317236   2.387307   0.000000
     5  H    2.143611   4.336862   3.058764   1.095716   0.000000
     6  H    2.172042   3.032727   3.152690   1.092513   1.765099
     7  H    2.133752   3.579617   2.491896   1.089772   1.785368
     8  C    3.258590   1.495099   3.136113   4.278174   5.205997
     9  H    3.521007   2.162338   3.635145   4.622153   5.418223
    10  H    2.921399   2.130966   2.446446   4.150085   5.022675
    11  H    4.290148   2.143324   4.025880   5.229816   6.209318
    12  C    1.489659   3.210988   2.374077   2.587514   2.871219
    13  C    2.491908   3.860010   2.806685   3.856374   4.119362
    14  C    2.534951   3.753126   3.646461   2.988889   3.045246
    15  C    3.778498   4.805451   4.195580   5.010884   5.155351
    16  H    2.662784   4.017307   2.468864   4.152290   4.501300
    17  C    3.807543   4.717176   4.798415   4.380104   4.348300
    18  H    2.767110   3.845004   3.990794   2.635758   2.620953
    19  C    4.294263   5.174072   5.020372   5.223878   5.250993
    20  H    4.641474   5.552705   4.847144   5.967054   6.123988
    21  H    4.681964   5.409638   5.754384   5.006394   4.886694
    22  H    5.380081   6.111381   6.083137   6.283779   6.267907
    23  C    3.426055   1.423103   4.022103   3.530106   4.425068
    24  C    3.992463   2.475654   4.668123   3.521782   4.350949
    25  C    4.184980   2.490013   4.903409   4.459862   5.176054
    26  C    5.038019   3.747597   5.875680   4.406885   5.016356
    27  H    3.984923   2.687660   4.493020   3.318574   4.208256
    28  C    5.189852   3.756107   6.062144   5.181350   5.741008
    29  H    4.331989   2.732555   4.932822   4.936053   5.629700
    30  C    5.568938   4.261772   6.494208   5.170981   5.679911
    31  H    5.715443   4.615606   6.543544   4.844258   5.363554
    32  H    5.949988   4.627662   6.837811   6.054798   6.527577
    33  H    6.528671   5.347146   7.507180   6.036606   6.430019
    34  O    2.949198   1.366292   2.825276   3.159082   4.253902
    35  H    2.597123   1.908435   2.106800   3.058302   4.103374
                    6          7          8          9         10
     6  H    0.000000
     7  H    1.779350   0.000000
     8  C    4.222353   4.599567   0.000000
     9  H    4.502450   5.156024   1.089544   0.000000
    10  H    4.374261   4.381100   1.094827   1.762982   0.000000
    11  H    5.121131   5.426359   1.098813   1.775443   1.771394
    12  C    2.881496   3.486569   3.310125   3.084638   3.140132
    13  C    4.246701   4.619446   3.373927   2.953454   2.988690
    14  C    2.871835   4.053183   4.090570   3.665992   4.230171
    15  C    5.248175   5.877194   4.178567   3.436104   3.987359
    16  H    4.709353   4.703561   3.332868   3.145323   2.628488
    17  C    4.214679   5.445111   4.772121   4.059868   4.983226
    18  H    2.239081   3.703712   4.542312   4.269607   4.784302
    19  C    5.236579   6.223216   4.811975   3.959532   4.884533
    20  H    6.265600   6.767009   4.689058   3.926195   4.400265
    21  H    4.674107   6.089166   5.599642   4.863987   5.931424
    22  H    6.248354   7.296536   5.664231   4.719177   5.787044
    23  C    2.822811   3.979741   2.598782   2.801027   3.419181
    24  C    2.586133   3.797711   3.883075   4.209934   4.584883
    25  C    3.724397   5.123502   3.060233   2.739492   3.997634
    26  C    3.338762   4.794531   5.046119   5.174228   5.822951
    27  H    2.531301   3.280003   4.175652   4.726203   4.706413
    28  C    4.274566   5.892707   4.447693   4.076322   5.375206
    29  H    4.380760   5.643494   2.728065   2.076888   3.657677
    30  C    4.124207   5.766047   5.289719   5.135681   6.167181
    31  H    3.783676   5.093461   5.994079   6.202826   6.714464
    32  H    5.194197   6.842307   5.080305   4.514733   6.012227
    33  H    4.971185   6.644578   6.352496   6.141029   7.235956
    34  O    3.057815   2.982686   2.430664   3.352089   2.623081
    35  H    3.293020   2.780976   2.505132   3.461869   2.267866
                   11         12         13         14         15
    11  H    0.000000
    12  C    4.407165   0.000000
    13  C    4.375998   1.406100   0.000000
    14  C    5.145884   1.405015   2.422564   0.000000
    15  C    5.077241   2.429489   1.391210   2.795746   0.000000
    16  H    4.230393   2.146413   1.084318   3.397879   2.159318
    17  C    5.749881   2.428100   2.791700   1.393930   2.421261
    18  H    5.560094   2.165487   3.410380   1.083729   3.879337
    19  C    5.721115   2.805234   2.416297   2.418847   1.399449
    20  H    5.455229   3.412289   2.150234   3.881518   1.085778
    21  H    6.527478   3.409463   3.877220   2.149838   3.406167
    22  H    6.487143   3.891130   3.400048   3.402231   2.158446
    23  C    3.145680   3.554633   4.439195   3.540015   5.151281
    24  C    4.354583   4.394705   5.509715   4.208617   6.293246
    25  C    3.560556   3.784104   4.476848   3.414245   4.801710
    26  C    5.497967   5.216174   6.378630   4.669037   6.971110
    27  H    4.603328   4.731236   5.876017   4.761918   6.833502
    28  C    4.896917   4.715703   5.516469   3.971831   5.670066
    29  H    3.195864   3.684262   4.037251   3.452370   4.167674
    30  C    5.737333   5.366153   6.394118   4.573113   6.709863
    31  H    6.422605   6.037415   7.276177   5.475409   7.922109
    32  H    5.489241   5.250262   5.885961   4.383641   5.782095
    33  H    6.781078   6.261753   7.294784   5.324615   7.504479
    34  O    2.830990   3.896206   4.624738   4.601715   5.773037
    35  H    2.990429   3.702923   4.281335   4.659845   5.539278
                   16         17         18         19         20
    16  H    0.000000
    17  C    3.875876   0.000000
    18  H    4.298505   2.143329   0.000000
    19  C    3.405896   1.397096   3.395458   0.000000
    20  H    2.491201   3.405586   4.965108   2.158734   0.000000
    21  H    4.961376   1.085544   2.461686   2.157100   4.304107
    22  H    4.305293   2.156132   4.289409   1.085900   2.487027
    23  C    4.892505   4.396826   3.354919   5.132344   6.018132
    24  C    5.976132   5.190391   3.658784   6.155685   7.235344
    25  C    5.125608   3.825231   3.368231   4.508901   5.632800
    26  C    6.998528   5.448649   3.941884   6.563769   7.952786
    27  H    6.197193   5.901898   4.190372   6.845105   7.763225
    28  C    6.292074   4.177745   3.674314   5.062590   6.538679
    29  H    4.666225   3.597679   3.728907   3.958155   4.871521
    30  C    7.149197   5.001941   3.955925   6.087888   7.657036
    31  H    7.876080   6.307318   4.626740   7.494583   8.929359
    32  H    6.728937   4.237522   4.212327   5.004733   6.572687
    33  H    8.107655   5.605570   4.643864   6.736968   8.451239
    34  O    4.570483   5.753067   4.549153   6.260824   6.503020
    35  H    4.034961   5.835753   4.743303   6.210429   6.197079
                   21         22         23         24         25
    21  H    0.000000
    22  H    2.485305   0.000000
    23  C    4.830682   5.987398   0.000000
    24  C    5.455088   7.020391   1.425982   0.000000
    25  C    4.083657   5.182397   1.423901   2.433853   0.000000
    26  C    5.436324   7.309348   2.449703   1.388200   2.795652
    27  H    6.252866   7.780185   2.166692   1.083613   3.416078
    28  C    4.068289   5.580333   2.447215   2.793613   1.388003
    29  H    3.973356   4.547338   2.177851   3.424403   1.083701
    30  C    4.794970   6.667740   2.839402   2.424965   2.426013
    31  H    6.229434   8.246180   3.429222   2.141993   3.882179
    32  H    3.951000   5.316795   3.425868   3.879984   2.140542
    33  H    5.204575   7.209152   3.924882   3.408036   3.408477
    34  O    6.465635   7.259654   2.374435   2.766535   3.698829
    35  H    6.658485   7.239100   3.131916   3.624838   4.357808
                   26         27         28         29         30
    26  C    0.000000
    27  H    2.148349   0.000000
    28  C    2.417216   3.877221   0.000000
    29  H    3.879195   4.323966   2.135875   0.000000
    30  C    1.401753   3.406839   1.401738   3.399641   0.000000
    31  H    1.086532   2.466801   3.403956   4.965720   2.159426
    32  H    3.403841   4.963591   1.086373   2.445701   2.159325
    33  H    2.164594   4.302903   2.164212   4.291559   1.085484
    34  O    4.154723   2.407771   4.820894   4.080287   5.019434
    35  H    5.002999   3.235077   5.552741   4.585612   5.834441
                   31         32         33         34         35
    31  H    0.000000
    32  H    4.305017   0.000000
    33  H    2.493231   2.492633   0.000000
    34  O    4.781194   5.788531   6.077405   0.000000
    35  H    5.620065   6.474012   6.896689   0.974742   0.000000
 Stoichiometry    C16H17O2(2)
 Framework group  C1[X(C16H17O2)]
 Deg. of freedom    99
 Full point group                 C1      NOp   1
 Largest Abelian subgroup         C1      NOp   1
 Largest concise Abelian subgroup C1      NOp   1
                         Standard orientation:                         
 ---------------------------------------------------------------------
 Center     Atomic      Atomic             Coordinates (Angstroms)
 Number     Number       Type             X           Y           Z
 ---------------------------------------------------------------------
      1          6           0       -1.152207   -1.446780   -0.963305
      2          6           0        0.776542   -1.287874    1.060226
      3          8           0       -1.553859   -2.470187   -0.394128
      4          6           0       -0.169035   -1.552137   -2.108386
      5          1           0       -0.649967   -1.218691   -3.034729
      6          1           0        0.710980   -0.924404   -1.949928
      7          1           0        0.144617   -2.590486   -2.213538
      8          6           0       -0.238191   -1.202705    2.154933
      9          1           0       -0.629958   -0.194486    2.285773
     10          1           0       -1.083772   -1.860046    1.927906
     11          1           0        0.195722   -1.533629    3.108662
     12          6           0       -1.703678   -0.110221   -0.604732
     13          6           0       -2.793672   -0.044407    0.281101
     14          6           0       -1.161497    1.083981   -1.108706
     15          6           0       -3.324573    1.184530    0.659680
     16          1           0       -3.208313   -0.971656    0.660611
     17          6           0       -1.690719    2.314901   -0.724259
     18          1           0       -0.313650    1.059491   -1.783261
     19          6           0       -2.771531    2.368721    0.159385
     20          1           0       -4.167504    1.223902    1.342931
     21          1           0       -1.255553    3.231760   -1.109494
     22          1           0       -3.182277    3.328758    0.457372
     23          6           0        1.627910   -0.232383    0.628562
     24          6           0        2.666340   -0.476331   -0.317788
     25          6           0        1.457988    1.106988    1.081006
     26          6           0        3.466437    0.557662   -0.784481
     27          1           0        2.821823   -1.488600   -0.671840
     28          6           0        2.265818    2.130105    0.604356
     29          1           0        0.681164    1.341063    1.799449
     30          6           0        3.276007    1.870700   -0.332178
     31          1           0        4.248777    0.342091   -1.506994
     32          1           0        2.107185    3.143284    0.962839
     33          1           0        3.903154    2.676112   -0.701332
     34          8           0        1.083175   -2.543460    0.617242
     35          1           0        0.251399   -3.043795    0.528165
 ---------------------------------------------------------------------
 Rotational constants (GHZ):           0.5599106           0.3857337           0.2979481
 Leave Link  202 at Sat May 25 04:19:30 2019, MaxMem=   104857600 cpu:               1.3 elap:               0.1
 (Enter /opt/software/gaussian/g16.b01/l301.exe)
 Standard basis: 6-31G(d,p) (6D, 7F)
 Ernie: Thresh=  0.10000D-02 Tol=  0.10000D-05 Strict=F.
 There are   355 symmetry adapted cartesian basis functions of A   symmetry.
 There are   355 symmetry adapted basis functions of A   symmetry.
   355 basis functions,   623 primitive gaussians,   355 cartesian basis functions
    65 alpha electrons       64 beta electrons
       nuclear repulsion energy      1306.7843474783 Hartrees.
 IExCor=  402 DFT=T Ex+Corr=B3LYP ExCW=0 ScaHFX=  0.200000
 ScaDFX=  0.800000  0.720000  1.000000  0.810000 ScalE2=  1.000000  1.000000
 IRadAn=      5 IRanWt=     -1 IRanGd=            0 ICorTp=0 IEmpDi=131
 NAtoms=   35 NActive=   35 NUniq=   35 SFac= 1.00D+00 NAtFMM=   60 NAOKFM=F Big=F
 Integral buffers will be    131072 words long.
 Raffenetti 2 integral format.
 Two-electron integral symmetry is turned on.
 R6Disp:  Grimme-D3 Dispersion energy=       -0.0414294651 Hartrees.
 Nuclear repulsion after empirical dispersion term =     1306.7429180132 Hartrees.
 ------------------------------------------------------------------------------
 Polarizable Continuum Model (PCM)
 =================================
 Model                : PCM.
 Atomic radii         : UFF (Universal Force Field).
 Polarization charges : Total charges.
 Charge compensation  : None.
 Solution method      : On-the-fly selection.
 Cavity type          : Scaled VdW (van der Waals Surface) (Alpha=1.100).
 Cavity algorithm     : GePol (No added spheres)
                        Default sphere list used, NSphG=   35.
                        Lebedev-Laikov grids with approx.  5.0 points / Ang**2.
                        Smoothing algorithm: York/Karplus (Gamma=1.0000).
                        Polarization charges: spherical gaussians, with
                                              point-specific exponents (IZeta= 3).
                        Self-potential: point-specific (ISelfS= 7).
                        Self-field    : sphere-specific E.n sum rule (ISelfD= 2).
 Solvent              : Acetonitrile, Eps=  35.688000 Eps(inf)=   1.806874
 ------------------------------------------------------------------------------
 GePol: Number of generator spheres                  =      35
 GePol: Total number of spheres                      =      35
 GePol: Number of exposed spheres                    =      35 (100.00%)
 GePol: Number of points                             =    2438
 GePol: Average weight of points                     =       0.13
 GePol: Minimum weight of points                     =   0.15D-11
 GePol: Maximum weight of points                     =    0.20577
 GePol: Number of points with low weight             =     170
 GePol: Fraction of low-weight points (<1% of avg)   =       6.97%
 GePol: Cavity surface area                          =    314.813 Ang**2
 GePol: Cavity volume                                =    359.326 Ang**3
 Leave Link  301 at Sat May 25 04:19:30 2019, MaxMem=   104857600 cpu:               3.4 elap:               0.2
 (Enter /opt/software/gaussian/g16.b01/l302.exe)
 NPDir=0 NMtPBC=     1 NCelOv=     1 NCel=       1 NClECP=     1 NCelD=      1
         NCelK=      1 NCelE2=     1 NClLst=     1 CellRange=     0.0.
 One-electron integrals computed using PRISM.
 One-electron integral symmetry used in STVInt
 PrsmSu:  requested number of processors reduced to:  28 ShMem   1 Linda.
 NBasis=   355 RedAO= T EigKep=  4.55D-04  NBF=   355
 NBsUse=   355 1.00D-06 EigRej= -1.00D+00 NBFU=   355
 Precomputing XC quadrature grid using
 IXCGrd= 4 IRadAn=           5 IRanWt=          -1 IRanGd=           0 AccXCQ= 0.00D+00.
 Generated NRdTot=       0 NPtTot=           0 NUsed=           0 NTot=          32
 NSgBfM=   354   354   354   354   354 MxSgAt=    35 MxSgA2=    35.
 Leave Link  302 at Sat May 25 04:19:31 2019, MaxMem=   104857600 cpu:              15.6 elap:               0.5
 (Enter /opt/software/gaussian/g16.b01/l303.exe)
 DipDrv:  MaxL=1.
 Leave Link  303 at Sat May 25 04:19:31 2019, MaxMem=   104857600 cpu:               2.3 elap:               0.1
 (Enter /opt/software/gaussian/g16.b01/l308.exe)
 Leave Link  308 at Sat May 25 04:19:31 2019, MaxMem=   104857600 cpu:               2.8 elap:               0.1
 (Enter /opt/software/gaussian/g16.b01/l401.exe)
 ExpMin= 1.61D-01 ExpMax= 5.48D+03 ExpMxC= 8.25D+02 IAcc=3 IRadAn=         5 AccDes= 0.00D+00
 Harris functional with IExCor=  402 and IRadAn=       5 diagonalized for initial guess.
 HarFok:  IExCor=  402 AccDes= 0.00D+00 IRadAn=         5 IDoV= 1 UseB2=F ITyADJ=14
 ICtDFT=  3500011 ScaDFX=  1.000000  1.000000  1.000000  1.000000
 FoFCou: FMM=F IPFlag=           0 FMFlag=      100000 FMFlg1=           0
         NFxFlg=           0 DoJE=T BraDBF=F KetDBF=T FulRan=T
         wScrn=  0.000000 ICntrl=       500 IOpCl=  0 I1Cent=   200000004 NGrid=           0
         NMat0=    1 NMatS0=      1 NMatT0=    0 NMatD0=    1 NMtDS0=    0 NMtDT0=    0
 Petite list used in FoFCou.
 Harris En= -770.478233592664    
 JPrj=0 DoOrth=F DoCkMO=T.
 Mixing orbitals, IMix= 1 IMixAn=  0 NRI=1 NE=   65 Coef=  7.07106781D-01  7.07106781D-01
 Mixing orbitals, IMix= 1 IMixAn=  0 NRI=1 NE=   64 Coef= -7.07106781D-01  7.07106781D-01
 Initial guess <Sx>= 0.0000 <Sy>= 0.0000 <Sz>= 0.5000 <S**2>= 1.0000 S= 0.6180
 Leave Link  401 at Sat May 25 04:19:32 2019, MaxMem=   104857600 cpu:              28.7 elap:               1.0
 (Enter /opt/software/gaussian/g16.b01/l502.exe)
 Integral symmetry usage will be decided dynamically.
 UHF open shell SCF:
 Using DIIS extrapolation, IDIIS=  1040.
 NGot=   104857600 LenX=   104590331 LenY=   104463865
 Requested convergence on RMS density matrix=1.00D-08 within 128 cycles.
 Requested convergence on MAX density matrix=1.00D-06.
 Requested convergence on             energy=1.00D-06.
 No special actions if energy rises.
 Fock matrices will be formed incrementally for  20 cycles.

 Cycle   1  Pass 1  IDiag  1:
 FoFJK:  IHMeth= 1 ICntrl=       0 DoSepK=F KAlg= 0 I1Cent=           0 FoldK=F
 IRaf= 840000000 NMat=       1 IRICut=       1 DoRegI=T DoRafI=F ISym2E= 0 IDoP0=0 IntGTp=1.
 FoFCou: FMM=F IPFlag=           0 FMFlag=      100000 FMFlg1=           0
         NFxFlg=           0 DoJE=F BraDBF=F KetDBF=F FulRan=T
         wScrn=  0.000000 ICntrl=         0 IOpCl=  1 I1Cent=           0 NGrid=           0
         NMat0=    1 NMatS0=      1 NMatT0=    0 NMatD0=    1 NMtDS0=    0 NMtDT0=    0
 Symmetry not used in FoFCou.
 Inv3:  Mode=1 IEnd=    17831532.
 Iteration    1 A*A^-1 deviation from unit magnitude is 2.89D-15 for   1201.
 Iteration    1 A*A^-1 deviation from orthogonality  is 2.21D-15 for   2197   2108.
 Iteration    1 A^-1*A deviation from unit magnitude is 2.89D-15 for    475.
 Iteration    1 A^-1*A deviation from orthogonality  is 2.25D-14 for   2010   1990.
 E= -769.870245805139    
 DIIS: error= 3.05D-02 at cycle   1 NSaved=   1.
 NSaved= 1 IEnMin= 1 EnMin= -769.870245805139     IErMin= 1 ErrMin= 3.05D-02
 ErrMax= 3.05D-02  0.00D+00 EMaxC= 1.00D-01 BMatC= 1.82D+00 BMatP= 1.82D+00
 IDIUse=3 WtCom= 6.95D-01 WtEn= 3.05D-01
 Coeff-Com:  0.100D+01
 Coeff-En:   0.100D+01
 Coeff:      0.100D+01
 Gap=     0.002 Goal=   None    Shift=    0.000
 Gap=    -0.007 Goal=   None    Shift=    0.000
 GapD=   -0.007 DampG=0.250 DampE=0.500 DampFc=0.2500 IDamp=-1.
 Damping current iteration by 2.50D-01
 RMSDP=4.58D-03 MaxDP=1.51D-01              OVMax= 6.11D-01

 Cycle   2  Pass 1  IDiag  1:
 RMSU=  1.12D-03    CP:  9.86D-01
 E= -770.054227600719     Delta-E=       -0.183981795580 Rises=F Damp=T
 DIIS: error= 1.71D-02 at cycle   2 NSaved=   2.
 NSaved= 2 IEnMin= 2 EnMin= -770.054227600719     IErMin= 2 ErrMin= 1.71D-02
 ErrMax= 1.71D-02  0.00D+00 EMaxC= 1.00D-01 BMatC= 4.84D-01 BMatP= 1.82D+00
 IDIUse=3 WtCom= 8.29D-01 WtEn= 1.71D-01
 Coeff-Com: -0.830D+00 0.183D+01
 Coeff-En:   0.000D+00 0.100D+01
 Coeff:     -0.688D+00 0.169D+01
 Gap=     0.066 Goal=   None    Shift=    0.000
 Gap=     0.143 Goal=   None    Shift=    0.000
 RMSDP=2.08D-03 MaxDP=4.84D-02 DE=-1.84D-01 OVMax= 2.09D-01

 Cycle   3  Pass 1  IDiag  1:
 RMSU=  1.47D-03    CP:  9.56D-01  2.25D+00
 E= -770.393956354450     Delta-E=       -0.339728753732 Rises=F Damp=F
 DIIS: error= 9.20D-03 at cycle   3 NSaved=   3.
 NSaved= 3 IEnMin= 3 EnMin= -770.393956354450     IErMin= 3 ErrMin= 9.20D-03
 ErrMax= 9.20D-03  0.00D+00 EMaxC= 1.00D-01 BMatC= 1.40D-01 BMatP= 4.84D-01
 IDIUse=3 WtCom= 9.08D-01 WtEn= 9.20D-02
 Coeff-Com: -0.437D+00 0.937D+00 0.500D+00
 Coeff-En:   0.000D+00 0.000D+00 0.100D+01
 Coeff:     -0.396D+00 0.851D+00 0.546D+00
 Gap=     0.089 Goal=   None    Shift=    0.000
 Gap=     0.149 Goal=   None    Shift=    0.000
 RMSDP=8.29D-04 MaxDP=3.92D-02 DE=-3.40D-01 OVMax= 8.94D-02

 Cycle   4  Pass 1  IDiag  1:
 RMSU=  7.20D-04    CP:  9.60D-01  2.28D+00  7.22D-01
 E= -770.419663457413     Delta-E=       -0.025707102962 Rises=F Damp=F
 DIIS: error= 5.05D-03 at cycle   4 NSaved=   4.
 NSaved= 4 IEnMin= 4 EnMin= -770.419663457413     IErMin= 4 ErrMin= 5.05D-03
 ErrMax= 5.05D-03  0.00D+00 EMaxC= 1.00D-01 BMatC= 3.95D-02 BMatP= 1.40D-01
 IDIUse=3 WtCom= 9.49D-01 WtEn= 5.05D-02
 Coeff-Com: -0.338D-01 0.959D-01 0.340D+00 0.598D+00
 Coeff-En:   0.000D+00 0.000D+00 0.223D+00 0.777D+00
 Coeff:     -0.321D-01 0.910D-01 0.334D+00 0.607D+00
 Gap=     0.094 Goal=   None    Shift=    0.000
 Gap=     0.159 Goal=   None    Shift=    0.000
 RMSDP=3.46D-04 MaxDP=1.84D-02 DE=-2.57D-02 OVMax= 3.34D-02

 Cycle   5  Pass 1  IDiag  1:
 RMSU=  1.99D-04    CP:  9.58D-01  2.26D+00  8.46D-01  7.01D-01
 E= -770.428575831663     Delta-E=       -0.008912374250 Rises=F Damp=F
 DIIS: error= 9.94D-04 at cycle   5 NSaved=   5.
 NSaved= 5 IEnMin= 5 EnMin= -770.428575831663     IErMin= 5 ErrMin= 9.94D-04
 ErrMax= 9.94D-04  0.00D+00 EMaxC= 1.00D-01 BMatC= 2.16D-03 BMatP= 3.95D-02
 IDIUse=3 WtCom= 9.90D-01 WtEn= 9.94D-03
 Coeff-Com:  0.846D-02-0.733D-02 0.130D+00 0.302D+00 0.568D+00
 Coeff-En:   0.000D+00 0.000D+00 0.000D+00 0.000D+00 0.100D+01
 Coeff:      0.838D-02-0.726D-02 0.128D+00 0.299D+00 0.572D+00
 Gap=     0.097 Goal=   None    Shift=    0.000
 Gap=     0.163 Goal=   None    Shift=    0.000
 RMSDP=9.35D-05 MaxDP=4.08D-03 DE=-8.91D-03 OVMax= 9.05D-03

 Cycle   6  Pass 1  IDiag  1:
 RMSU=  8.39D-05    CP:  9.58D-01  2.26D+00  8.51D-01  7.44D-01  8.72D-01
 E= -770.429163063012     Delta-E=       -0.000587231349 Rises=F Damp=F
 DIIS: error= 5.50D-04 at cycle   6 NSaved=   6.
 NSaved= 6 IEnMin= 6 EnMin= -770.429163063012     IErMin= 6 ErrMin= 5.50D-04
 ErrMax= 5.50D-04  0.00D+00 EMaxC= 1.00D-01 BMatC= 3.98D-04 BMatP= 2.16D-03
 IDIUse=3 WtCom= 9.95D-01 WtEn= 5.50D-03
 Coeff-Com:  0.101D-01-0.200D-01-0.595D-02 0.180D-01 0.284D+00 0.714D+00
 Coeff-En:   0.000D+00 0.000D+00 0.000D+00 0.000D+00 0.000D+00 0.100D+01
 Coeff:      0.100D-01-0.199D-01-0.592D-02 0.179D-01 0.282D+00 0.715D+00
 Gap=     0.099 Goal=   None    Shift=    0.000
 Gap=     0.164 Goal=   None    Shift=    0.000
 RMSDP=5.20D-05 MaxDP=3.52D-03 DE=-5.87D-04 OVMax= 8.64D-03

 Cycle   7  Pass 1  IDiag  1:
 RMSU=  3.81D-05    CP:  9.58D-01  2.27D+00  8.52D-01  7.64D-01  1.03D+00
                    CP:  9.40D-01
 E= -770.429358521714     Delta-E=       -0.000195458702 Rises=F Damp=F
 DIIS: error= 3.02D-04 at cycle   7 NSaved=   7.
 NSaved= 7 IEnMin= 7 EnMin= -770.429358521714     IErMin= 7 ErrMin= 3.02D-04
 ErrMax= 3.02D-04  0.00D+00 EMaxC= 1.00D-01 BMatC= 7.13D-05 BMatP= 3.98D-04
 IDIUse=3 WtCom= 9.97D-01 WtEn= 3.02D-03
 Coeff-Com: -0.124D-02 0.981D-03-0.287D-01-0.686D-01-0.803D-01 0.212D+00
 Coeff-Com:  0.966D+00
 Coeff-En:   0.000D+00 0.000D+00 0.000D+00 0.000D+00 0.000D+00 0.000D+00
 Coeff-En:   0.100D+01
 Coeff:     -0.124D-02 0.978D-03-0.287D-01-0.684D-01-0.800D-01 0.211D+00
 Coeff:      0.966D+00
 Gap=     0.099 Goal=   None    Shift=    0.000
 Gap=     0.165 Goal=   None    Shift=    0.000
 RMSDP=3.32D-05 MaxDP=1.82D-03 DE=-1.95D-04 OVMax= 5.95D-03

 Cycle   8  Pass 1  IDiag  1:
 RMSU=  2.01D-05    CP:  9.58D-01  2.27D+00  8.56D-01  7.70D-01  1.10D+00
                    CP:  1.19D+00  1.20D+00
 E= -770.429419859659     Delta-E=       -0.000061337945 Rises=F Damp=F
 DIIS: error= 1.57D-04 at cycle   8 NSaved=   8.
 NSaved= 8 IEnMin= 8 EnMin= -770.429419859659     IErMin= 8 ErrMin= 1.57D-04
 ErrMax= 1.57D-04  0.00D+00 EMaxC= 1.00D-01 BMatC= 2.49D-05 BMatP= 7.13D-05
 IDIUse=3 WtCom= 9.98D-01 WtEn= 1.57D-03
 Coeff-Com: -0.248D-02 0.423D-02-0.139D-01-0.408D-01-0.990D-01-0.343D-01
 Coeff-Com:  0.509D+00 0.677D+00
 Coeff-En:   0.000D+00 0.000D+00 0.000D+00 0.000D+00 0.000D+00 0.000D+00
 Coeff-En:   0.000D+00 0.100D+01
 Coeff:     -0.248D-02 0.423D-02-0.138D-01-0.408D-01-0.988D-01-0.342D-01
 Coeff:      0.508D+00 0.678D+00
 Gap=     0.099 Goal=   None    Shift=    0.000
 Gap=     0.165 Goal=   None    Shift=    0.000
 RMSDP=1.58D-05 MaxDP=1.02D-03 DE=-6.13D-05 OVMax= 2.73D-03

 Cycle   9  Pass 1  IDiag  1:
 RMSU=  1.08D-05    CP:  9.58D-01  2.27D+00  8.55D-01  7.71D-01  1.12D+00
                    CP:  1.24D+00  1.45D+00  1.05D+00
 E= -770.429436271095     Delta-E=       -0.000016411436 Rises=F Damp=F
 DIIS: error= 1.04D-04 at cycle   9 NSaved=   9.
 NSaved= 9 IEnMin= 9 EnMin= -770.429436271095     IErMin= 9 ErrMin= 1.04D-04
 ErrMax= 1.04D-04  0.00D+00 EMaxC= 1.00D-01 BMatC= 5.91D-06 BMatP= 2.49D-05
 IDIUse=3 WtCom= 9.99D-01 WtEn= 1.04D-03
 Coeff-Com: -0.724D-03 0.148D-02 0.174D-02 0.494D-03-0.195D-01-0.740D-01
 Coeff-Com: -0.304D-01 0.317D+00 0.804D+00
 Coeff-En:   0.000D+00 0.000D+00 0.000D+00 0.000D+00 0.000D+00 0.000D+00
 Coeff-En:   0.000D+00 0.000D+00 0.100D+01
 Coeff:     -0.724D-03 0.148D-02 0.173D-02 0.493D-03-0.195D-01-0.739D-01
 Coeff:     -0.304D-01 0.316D+00 0.804D+00
 Gap=     0.099 Goal=   None    Shift=    0.000
 Gap=     0.165 Goal=   None    Shift=    0.000
 RMSDP=9.48D-06 MaxDP=5.08D-04 DE=-1.64D-05 OVMax= 2.17D-03

 Cycle  10  Pass 1  IDiag  1:
 RMSU=  5.44D-06    CP:  9.58D-01  2.26D+00  8.55D-01  7.69D-01  1.12D+00
                    CP:  1.27D+00  1.55D+00  1.34D+00  1.18D+00
 E= -770.429441350977     Delta-E=       -0.000005079882 Rises=F Damp=F
 DIIS: error= 5.59D-05 at cycle  10 NSaved=  10.
 NSaved=10 IEnMin=10 EnMin= -770.429441350977     IErMin=10 ErrMin= 5.59D-05
 ErrMax= 5.59D-05  0.00D+00 EMaxC= 1.00D-01 BMatC= 2.11D-06 BMatP= 5.91D-06
 IDIUse=1 WtCom= 1.00D+00 WtEn= 0.00D+00
 Coeff-Com:  0.252D-03-0.277D-03 0.583D-02 0.142D-01 0.218D-01-0.366D-01
 Coeff-Com: -0.194D+00-0.238D-01 0.470D+00 0.742D+00
 Coeff:      0.252D-03-0.277D-03 0.583D-02 0.142D-01 0.218D-01-0.366D-01
 Coeff:     -0.194D+00-0.238D-01 0.470D+00 0.742D+00
 Gap=     0.099 Goal=   None    Shift=    0.000
 Gap=     0.165 Goal=   None    Shift=    0.000
 RMSDP=5.99D-06 MaxDP=3.44D-04 DE=-5.08D-06 OVMax= 1.10D-03

 Cycle  11  Pass 1  IDiag  1:
 RMSU=  2.50D-06    CP:  9.58D-01  2.26D+00  8.55D-01  7.69D-01  1.12D+00
                    CP:  1.28D+00  1.61D+00  1.51D+00  1.49D+00  1.02D+00
 E= -770.429443177104     Delta-E=       -0.000001826127 Rises=F Damp=F
 DIIS: error= 1.81D-05 at cycle  11 NSaved=  11.
 NSaved=11 IEnMin=11 EnMin= -770.429443177104     IErMin=11 ErrMin= 1.81D-05
 ErrMax= 1.81D-05  0.00D+00 EMaxC= 1.00D-01 BMatC= 3.07D-07 BMatP= 2.11D-06
 IDIUse=1 WtCom= 1.00D+00 WtEn= 0.00D+00
 Coeff-Com:  0.242D-03-0.448D-03 0.137D-02 0.437D-02 0.112D-01 0.379D-02
 Coeff-Com: -0.564D-01-0.771D-01-0.434D-01 0.252D+00 0.904D+00
 Coeff:      0.242D-03-0.448D-03 0.137D-02 0.437D-02 0.112D-01 0.379D-02
 Coeff:     -0.564D-01-0.771D-01-0.434D-01 0.252D+00 0.904D+00
 Gap=     0.099 Goal=   None    Shift=    0.000
 Gap=     0.165 Goal=   None    Shift=    0.000
 RMSDP=3.09D-06 MaxDP=1.70D-04 DE=-1.83D-06 OVMax= 6.01D-04

 Cycle  12  Pass 1  IDiag  1:
 RMSU=  1.26D-06    CP:  9.58D-01  2.26D+00  8.55D-01  7.69D-01  1.12D+00
                    CP:  1.29D+00  1.63D+00  1.58D+00  1.64D+00  1.27D+00
                    CP:  1.12D+00
 E= -770.429443516430     Delta-E=       -0.000000339326 Rises=F Damp=F
 DIIS: error= 1.02D-05 at cycle  12 NSaved=  12.
 NSaved=12 IEnMin=12 EnMin= -770.429443516430     IErMin=12 ErrMin= 1.02D-05
 ErrMax= 1.02D-05  0.00D+00 EMaxC= 1.00D-01 BMatC= 1.32D-07 BMatP= 3.07D-07
 IDIUse=1 WtCom= 1.00D+00 WtEn= 0.00D+00
 Coeff-Com:  0.970D-04-0.226D-03-0.500D-03-0.606D-03 0.167D-02 0.991D-02
 Coeff-Com:  0.104D-01-0.393D-01-0.130D+00-0.176D-01 0.521D+00 0.645D+00
 Coeff:      0.970D-04-0.226D-03-0.500D-03-0.606D-03 0.167D-02 0.991D-02
 Coeff:      0.104D-01-0.393D-01-0.130D+00-0.176D-01 0.521D+00 0.645D+00
 Gap=     0.099 Goal=   None    Shift=    0.000
 Gap=     0.165 Goal=   None    Shift=    0.000
 RMSDP=1.15D-06 MaxDP=5.74D-05 DE=-3.39D-07 OVMax= 1.99D-04

 Cycle  13  Pass 1  IDiag  1:
 RMSU=  5.20D-07    CP:  9.58D-01  2.26D+00  8.55D-01  7.69D-01  1.12D+00
                    CP:  1.29D+00  1.64D+00  1.61D+00  1.68D+00  1.34D+00
                    CP:  1.37D+00  8.78D-01
 E= -770.429443583604     Delta-E=       -0.000000067174 Rises=F Damp=F
 DIIS: error= 2.85D-06 at cycle  13 NSaved=  13.
 NSaved=13 IEnMin=13 EnMin= -770.429443583604     IErMin=13 ErrMin= 2.85D-06
 ErrMax= 2.85D-06  0.00D+00 EMaxC= 1.00D-01 BMatC= 1.88D-08 BMatP= 1.32D-07
 IDIUse=1 WtCom= 1.00D+00 WtEn= 0.00D+00
 Coeff-Com: -0.700D-07-0.137D-04-0.487D-03-0.113D-02-0.150D-02 0.385D-02
 Coeff-Com:  0.172D-01-0.396D-02-0.536D-01-0.585D-01 0.533D-01 0.299D+00
 Coeff-Com:  0.746D+00
 Coeff:     -0.700D-07-0.137D-04-0.487D-03-0.113D-02-0.150D-02 0.385D-02
 Coeff:      0.172D-01-0.396D-02-0.536D-01-0.585D-01 0.533D-01 0.299D+00
 Coeff:      0.746D+00
 Gap=     0.099 Goal=   None    Shift=    0.000
 Gap=     0.165 Goal=   None    Shift=    0.000
 RMSDP=4.68D-07 MaxDP=2.28D-05 DE=-6.72D-08 OVMax= 7.53D-05

 Cycle  14  Pass 1  IDiag  1:
 RMSU=  2.53D-07    CP:  9.58D-01  2.26D+00  8.55D-01  7.69D-01  1.12D+00
                    CP:  1.29D+00  1.64D+00  1.61D+00  1.69D+00  1.37D+00
                    CP:  1.44D+00  1.05D+00  9.62D-01
 E= -770.429443593880     Delta-E=       -0.000000010276 Rises=F Damp=F
 DIIS: error= 1.51D-06 at cycle  14 NSaved=  14.
 NSaved=14 IEnMin=14 EnMin= -770.429443593880     IErMin=14 ErrMin= 1.51D-06
 ErrMax= 1.51D-06  0.00D+00 EMaxC= 1.00D-01 BMatC= 4.26D-09 BMatP= 1.88D-08
 IDIUse=1 WtCom= 1.00D+00 WtEn= 0.00D+00
 Coeff-Com: -0.137D-04 0.279D-04-0.152D-03-0.442D-03-0.107D-02 0.914D-04
 Coeff-Com:  0.668D-02 0.459D-02-0.195D-02-0.229D-01-0.716D-01 0.246D-01
 Coeff-Com:  0.369D+00 0.693D+00
 Coeff:     -0.137D-04 0.279D-04-0.152D-03-0.442D-03-0.107D-02 0.914D-04
 Coeff:      0.668D-02 0.459D-02-0.195D-02-0.229D-01-0.716D-01 0.246D-01
 Coeff:      0.369D+00 0.693D+00
 Gap=     0.099 Goal=   None    Shift=    0.000
 Gap=     0.165 Goal=   None    Shift=    0.000
 RMSDP=1.76D-07 MaxDP=8.13D-06 DE=-1.03D-08 OVMax= 2.26D-05

 Cycle  15  Pass 1  IDiag  1:
 RMSU=  1.07D-07    CP:  9.58D-01  2.26D+00  8.55D-01  7.69D-01  1.12D+00
                    CP:  1.29D+00  1.64D+00  1.61D+00  1.69D+00  1.38D+00
                    CP:  1.47D+00  1.10D+00  1.15D+00  1.00D+00
 E= -770.429443595928     Delta-E=       -0.000000002049 Rises=F Damp=F
 DIIS: error= 8.35D-07 at cycle  15 NSaved=  15.
 NSaved=15 IEnMin=15 EnMin= -770.429443595928     IErMin=15 ErrMin= 8.35D-07
 ErrMax= 8.35D-07  0.00D+00 EMaxC= 1.00D-01 BMatC= 8.30D-10 BMatP= 4.26D-09
 IDIUse=1 WtCom= 1.00D+00 WtEn= 0.00D+00
 Coeff-Com: -0.436D-05 0.139D-04 0.527D-04 0.888D-04-0.122D-03-0.843D-03
 Coeff-Com: -0.113D-02 0.251D-02 0.119D-01 0.432D-02-0.461D-01-0.573D-01
 Coeff-Com:  0.357D-02 0.321D+00 0.762D+00
 Coeff:     -0.436D-05 0.139D-04 0.527D-04 0.888D-04-0.122D-03-0.843D-03
 Coeff:     -0.113D-02 0.251D-02 0.119D-01 0.432D-02-0.461D-01-0.573D-01
 Coeff:      0.357D-02 0.321D+00 0.762D+00
 Gap=     0.099 Goal=   None    Shift=    0.000
 Gap=     0.165 Goal=   None    Shift=    0.000
 RMSDP=9.18D-08 MaxDP=4.93D-06 DE=-2.05D-09 OVMax= 1.41D-05

 Cycle  16  Pass 1  IDiag  1:
 RMSU=  5.67D-08    CP:  9.58D-01  2.26D+00  8.55D-01  7.69D-01  1.12D+00
                    CP:  1.29D+00  1.64D+00  1.61D+00  1.69D+00  1.38D+00
                    CP:  1.47D+00  1.12D+00  1.21D+00  1.18D+00  1.02D+00
 E= -770.429443596500     Delta-E=       -0.000000000572 Rises=F Damp=F
 DIIS: error= 4.23D-07 at cycle  16 NSaved=  16.
 NSaved=16 IEnMin=16 EnMin= -770.429443596500     IErMin=16 ErrMin= 4.23D-07
 ErrMax= 4.23D-07  0.00D+00 EMaxC= 1.00D-01 BMatC= 1.33D-10 BMatP= 8.30D-10
 IDIUse=1 WtCom= 1.00D+00 WtEn= 0.00D+00
 Coeff-Com:  0.272D-05-0.440D-05 0.406D-04 0.108D-03 0.177D-03-0.209D-03
 Coeff-Com: -0.163D-02-0.298D-03 0.355D-02 0.574D-02 0.201D-02-0.192D-01
 Coeff-Com: -0.755D-01-0.582D-01 0.208D+00 0.935D+00
 Coeff:      0.272D-05-0.440D-05 0.406D-04 0.108D-03 0.177D-03-0.209D-03
 Coeff:     -0.163D-02-0.298D-03 0.355D-02 0.574D-02 0.201D-02-0.192D-01
 Coeff:     -0.755D-01-0.582D-01 0.208D+00 0.935D+00
 Gap=     0.099 Goal=   None    Shift=    0.000
 Gap=     0.165 Goal=   None    Shift=    0.000
 RMSDP=5.33D-08 MaxDP=3.14D-06 DE=-5.72D-10 OVMax= 1.03D-05

 Cycle  17  Pass 1  IDiag  1:
 RMSU=  2.82D-08    CP:  9.58D-01  2.26D+00  8.55D-01  7.69D-01  1.12D+00
                    CP:  1.29D+00  1.64D+00  1.61D+00  1.69D+00  1.38D+00
                    CP:  1.48D+00  1.13D+00  1.25D+00  1.27D+00  1.28D+00
                    CP:  1.26D+00
 E= -770.429443596677     Delta-E=       -0.000000000177 Rises=F Damp=F
 DIIS: error= 2.68D-07 at cycle  17 NSaved=  17.
 NSaved=17 IEnMin=17 EnMin= -770.429443596677     IErMin=17 ErrMin= 2.68D-07
 ErrMax= 2.68D-07  0.00D+00 EMaxC= 1.00D-01 BMatC= 4.58D-11 BMatP= 1.33D-10
 IDIUse=1 WtCom= 1.00D+00 WtEn= 0.00D+00
 Coeff-Com:  0.534D-06-0.176D-05 0.372D-05 0.167D-04 0.826D-04 0.102D-03
 Coeff-Com: -0.307D-03-0.556D-03-0.133D-02 0.840D-03 0.104D-01 0.555D-02
 Coeff-Com: -0.269D-01-0.842D-01-0.844D-01 0.324D+00 0.857D+00
 Coeff:      0.534D-06-0.176D-05 0.372D-05 0.167D-04 0.826D-04 0.102D-03
 Coeff:     -0.307D-03-0.556D-03-0.133D-02 0.840D-03 0.104D-01 0.555D-02
 Coeff:     -0.269D-01-0.842D-01-0.844D-01 0.324D+00 0.857D+00
 Gap=     0.099 Goal=   None    Shift=    0.000
 Gap=     0.165 Goal=   None    Shift=    0.000
 RMSDP=3.01D-08 MaxDP=1.81D-06 DE=-1.77D-10 OVMax= 5.49D-06

 Cycle  18  Pass 1  IDiag  1:
 RMSU=  1.64D-08    CP:  9.58D-01  2.26D+00  8.55D-01  7.69D-01  1.12D+00
                    CP:  1.29D+00  1.64D+00  1.61D+00  1.69D+00  1.38D+00
                    CP:  1.48D+00  1.13D+00  1.26D+00  1.31D+00  1.39D+00
                    CP:  1.58D+00  1.28D+00
 E= -770.429443596728     Delta-E=       -0.000000000052 Rises=F Damp=F
 DIIS: error= 1.59D-07 at cycle  18 NSaved=  18.
 NSaved=18 IEnMin=18 EnMin= -770.429443596728     IErMin=18 ErrMin= 1.59D-07
 ErrMax= 1.59D-07  0.00D+00 EMaxC= 1.00D-01 BMatC= 2.52D-11 BMatP= 4.58D-11
 IDIUse=1 WtCom= 1.00D+00 WtEn= 0.00D+00
 Coeff-Com: -0.496D-06 0.761D-07-0.167D-04-0.412D-04-0.264D-04 0.167D-03
 Coeff-Com:  0.577D-03-0.147D-03-0.248D-02-0.241D-02 0.517D-02 0.120D-01
 Coeff-Com:  0.205D-01-0.213D-01-0.155D+00-0.268D+00 0.566D+00 0.844D+00
 Coeff:     -0.496D-06 0.761D-07-0.167D-04-0.412D-04-0.264D-04 0.167D-03
 Coeff:      0.577D-03-0.147D-03-0.248D-02-0.241D-02 0.517D-02 0.120D-01
 Coeff:      0.205D-01-0.213D-01-0.155D+00-0.268D+00 0.566D+00 0.844D+00
 Gap=     0.099 Goal=   None    Shift=    0.000
 Gap=     0.165 Goal=   None    Shift=    0.000
 RMSDP=2.55D-08 MaxDP=1.51D-06 DE=-5.16D-11 OVMax= 5.21D-06

 Cycle  19  Pass 1  IDiag  1:
 RMSU=  8.06D-09    CP:  9.58D-01  2.26D+00  8.55D-01  7.69D-01  1.12D+00
                    CP:  1.29D+00  1.64D+00  1.61D+00  1.69D+00  1.38D+00
                    CP:  1.48D+00  1.13D+00  1.26D+00  1.33D+00  1.48D+00
                    CP:  1.83D+00  1.82D+00  1.05D+00
 E= -770.429443596770     Delta-E=       -0.000000000042 Rises=F Damp=F
 DIIS: error= 6.19D-08 at cycle  19 NSaved=  19.
 NSaved=19 IEnMin=19 EnMin= -770.429443596770     IErMin=19 ErrMin= 6.19D-08
 ErrMax= 6.19D-08  0.00D+00 EMaxC= 1.00D-01 BMatC= 3.74D-12 BMatP= 2.52D-11
 IDIUse=1 WtCom= 1.00D+00 WtEn= 0.00D+00
 Coeff-Com: -0.219D-06 0.210D-06-0.784D-05-0.219D-04-0.320D-04 0.395D-04
 Coeff-Com:  0.298D-03 0.113D-03-0.629D-03-0.119D-02-0.470D-03 0.309D-02
 Coeff-Com:  0.145D-01 0.120D-01-0.413D-01-0.186D+00 0.273D-01 0.333D+00
 Coeff-Com:  0.840D+00
 Coeff:     -0.219D-06 0.210D-06-0.784D-05-0.219D-04-0.320D-04 0.395D-04
 Coeff:      0.298D-03 0.113D-03-0.629D-03-0.119D-02-0.470D-03 0.309D-02
 Coeff:      0.145D-01 0.120D-01-0.413D-01-0.186D+00 0.273D-01 0.333D+00
 Coeff:      0.840D+00
 Gap=     0.099 Goal=   None    Shift=    0.000
 Gap=     0.165 Goal=   None    Shift=    0.000
 RMSDP=1.05D-08 MaxDP=5.84D-07 DE=-4.21D-11 OVMax= 1.90D-06

 Cycle  20  Pass 1  IDiag  1:
 RMSU=  3.57D-09    CP:  9.58D-01  2.26D+00  8.55D-01  7.69D-01  1.12D+00
                    CP:  1.29D+00  1.64D+00  1.61D+00  1.69D+00  1.38D+00
                    CP:  1.48D+00  1.13D+00  1.26D+00  1.33D+00  1.51D+00
                    CP:  1.93D+00  2.02D+00  1.30D+00  1.04D+00
 E= -770.429443596766     Delta-E=        0.000000000005 Rises=F Damp=F
 DIIS: error= 2.33D-08 at cycle  20 NSaved=  20.
 NSaved=20 IEnMin=19 EnMin= -770.429443596770     IErMin=20 ErrMin= 2.33D-08
 ErrMax= 2.33D-08  0.00D+00 EMaxC= 1.00D-01 BMatC= 1.18D-12 BMatP= 3.74D-12
 IDIUse=1 WtCom= 1.00D+00 WtEn= 0.00D+00
 Coeff-Com: -0.164D-06 0.475D-06-0.239D-06-0.263D-05-0.121D-04-0.141D-04
 Coeff-Com:  0.354D-04 0.903D-04 0.185D-03-0.132D-03-0.136D-02-0.848D-03
 Coeff-Com:  0.375D-02 0.115D-01 0.118D-01-0.425D-01-0.111D+00-0.113D-01
 Coeff-Com:  0.446D+00 0.694D+00
 Coeff:     -0.164D-06 0.475D-06-0.239D-06-0.263D-05-0.121D-04-0.141D-04
 Coeff:      0.354D-04 0.903D-04 0.185D-03-0.132D-03-0.136D-02-0.848D-03
 Coeff:      0.375D-02 0.115D-01 0.118D-01-0.425D-01-0.111D+00-0.113D-01
 Coeff:      0.446D+00 0.694D+00
 Gap=     0.099 Goal=   None    Shift=    0.000
 Gap=     0.165 Goal=   None    Shift=    0.000
 RMSDP=3.78D-09 MaxDP=2.15D-07 DE= 4.55D-12 OVMax= 6.74D-07

 Error on total polarization charges =  0.00972
 SCF Done:  E(UB3LYP) =  -770.429443597     A.U. after   20 cycles
            NFock= 20  Conv=0.38D-08     -V/T= 2.0096
 <Sx>= 0.0000 <Sy>= 0.0000 <Sz>= 0.5000 <S**2>= 0.7719 S= 0.5109
 <L.S>=  0.00000000000    
 KE= 7.631269019141D+02 PE=-4.403633352332D+03 EE= 1.563334088807D+03
 Annihilation of the first spin contaminant:
 S**2 before annihilation     0.7719,   after     0.7503
 Leave Link  502 at Sat May 25 04:20:21 2019, MaxMem=   104857600 cpu:            1528.3 elap:              48.7
 (Enter /opt/software/gaussian/g16.b01/l801.exe)
 DoSCS=F DFT=T ScalE2(SS,OS)=  1.000000  1.000000
 ExpMin= 1.61D-01 ExpMax= 5.48D+03 ExpMxC= 8.25D+02 IAcc=3 IRadAn=         5 AccDes= 0.00D+00
 HarFok:  IExCor=  205 AccDes= 0.00D+00 IRadAn=         5 IDoV=-2 UseB2=F ITyADJ=14
 ICtDFT= 12500011 ScaDFX=  1.000000  1.000000  1.000000  1.000000
 Largest valence mixing into a core orbital is  5.80D-05
 Largest core mixing into a valence orbital is  1.21D-05
 Largest valence mixing into a core orbital is  6.37D-05
 Largest core mixing into a valence orbital is  1.22D-05
 Range of M.O.s used for correlation:    19   355
 NBasis=   355 NAE=    65 NBE=    64 NFC=    18 NFV=     0
 NROrb=    337 NOA=    47 NOB=    46 NVA=   290 NVB=   291

 **** Warning!!: The smallest alpha delta epsilon is  0.99442977D-01

 Leave Link  801 at Sat May 25 04:20:22 2019, MaxMem=   104857600 cpu:               6.4 elap:               0.3
 (Enter /opt/software/gaussian/g16.b01/l914.exe)
 UHF ground state
 Ignoring spin specification with unrestricted ground state.
 Two-electron integrals replicated using symmetry.
 MDV=   104857600 DFT=T DoStab=F Mixed=T DoRPA=T DoScal=F NonHer=T
 NEqPCM:  Using non-equilibrium solvation (IEInf=1, Eps=  35.6880, EpsInf=   1.8069)
 Inv3:  Mode=1 IEnd=    17831532.
 Iteration    1 A*A^-1 deviation from unit magnitude is 3.22D-15 for    857.
 Iteration    1 A*A^-1 deviation from orthogonality  is 2.70D-15 for   1990   1663.
 Iteration    1 A^-1*A deviation from unit magnitude is 3.00D-15 for    857.
 Iteration    1 A^-1*A deviation from orthogonality  is 2.24D-15 for   1917   1730.
 Making orbital integer symmetry assigments:
 Orbital symmetries:
 Alpha Orbitals:
       Occupied  (A) (A) (A) (A) (A) (A) (A) (A) (A) (A) (A) (A)
                 (A) (A) (A) (A) (A) (A) (A) (A) (A) (A) (A) (A)
                 (A) (A) (A) (A) (A) (A) (A) (A) (A) (A) (A) (A)
                 (A) (A) (A) (A) (A) (A) (A) (A) (A) (A) (A) (A)
                 (A) (A) (A) (A) (A) (A) (A) (A) (A) (A) (A) (A)
                 (A) (A) (A) (A) (A)
       Virtual   (A) (A) (A) (A) (A) (A) (A) (A) (A) (A) (A) (A)
                 (A) (A) (A) (A) (A) (A) (A) (A) (A) (A) (A) (A)
                 (A) (A) (A) (A) (A) (A) (A) (A) (A) (A) (A) (A)
                 (A) (A) (A) (A) (A) (A) (A) (A) (A) (A) (A) (A)
                 (A) (A) (A) (A) (A) (A) (A) (A) (A) (A) (A) (A)
                 (A) (A) (A) (A) (A) (A) (A) (A) (A) (A) (A) (A)
                 (A) (A) (A) (A) (A) (A) (A) (A) (A) (A) (A) (A)
                 (A) (A) (A) (A) (A) (A) (A) (A) (A) (A) (A) (A)
                 (A) (A) (A) (A) (A) (A) (A) (A) (A) (A) (A) (A)
                 (A) (A) (A) (A) (A) (A) (A) (A) (A) (A) (A) (A)
                 (A) (A) (A) (A) (A) (A) (A) (A) (A) (A) (A) (A)
                 (A) (A) (A) (A) (A) (A) (A) (A) (A) (A) (A) (A)
                 (A) (A) (A) (A) (A) (A) (A) (A) (A) (A) (A) (A)
                 (A) (A) (A) (A) (A) (A) (A) (A) (A) (A) (A) (A)
                 (A) (A) (A) (A) (A) (A) (A) (A) (A) (A) (A) (A)
                 (A) (A) (A) (A) (A) (A) (A) (A) (A) (A) (A) (A)
                 (A) (A) (A) (A) (A) (A) (A) (A) (A) (A) (A) (A)
                 (A) (A) (A) (A) (A) (A) (A) (A) (A) (A) (A) (A)
                 (A) (A) (A) (A) (A) (A) (A) (A) (A) (A) (A) (A)
                 (A) (A) (A) (A) (A) (A) (A) (A) (A) (A) (A) (A)
                 (A) (A) (A) (A) (A) (A) (A) (A) (A) (A) (A) (A)
                 (A) (A) (A) (A) (A) (A) (A) (A) (A) (A) (A) (A)
                 (A) (A) (A) (A) (A) (A) (A) (A) (A) (A) (A) (A)
                 (A) (A) (A) (A) (A) (A) (A) (A) (A) (A) (A) (A)
                 (A) (A)
 Beta  Orbitals:
       Occupied  (A) (A) (A) (A) (A) (A) (A) (A) (A) (A) (A) (A)
                 (A) (A) (A) (A) (A) (A) (A) (A) (A) (A) (A) (A)
                 (A) (A) (A) (A) (A) (A) (A) (A) (A) (A) (A) (A)
                 (A) (A) (A) (A) (A) (A) (A) (A) (A) (A) (A) (A)
                 (A) (A) (A) (A) (A) (A) (A) (A) (A) (A) (A) (A)
                 (A) (A) (A) (A)
       Virtual   (A) (A) (A) (A) (A) (A) (A) (A) (A) (A) (A) (A)
                 (A) (A) (A) (A) (A) (A) (A) (A) (A) (A) (A) (A)
                 (A) (A) (A) (A) (A) (A) (A) (A) (A) (A) (A) (A)
                 (A) (A) (A) (A) (A) (A) (A) (A) (A) (A) (A) (A)
                 (A) (A) (A) (A) (A) (A) (A) (A) (A) (A) (A) (A)
                 (A) (A) (A) (A) (A) (A) (A) (A) (A) (A) (A) (A)
                 (A) (A) (A) (A) (A) (A) (A) (A) (A) (A) (A) (A)
                 (A) (A) (A) (A) (A) (A) (A) (A) (A) (A) (A) (A)
                 (A) (A) (A) (A) (A) (A) (A) (A) (A) (A) (A) (A)
                 (A) (A) (A) (A) (A) (A) (A) (A) (A) (A) (A) (A)
                 (A) (A) (A) (A) (A) (A) (A) (A) (A) (A) (A) (A)
                 (A) (A) (A) (A) (A) (A) (A) (A) (A) (A) (A) (A)
                 (A) (A) (A) (A) (A) (A) (A) (A) (A) (A) (A) (A)
                 (A) (A) (A) (A) (A) (A) (A) (A) (A) (A) (A) (A)
                 (A) (A) (A) (A) (A) (A) (A) (A) (A) (A) (A) (A)
                 (A) (A) (A) (A) (A) (A) (A) (A) (A) (A) (A) (A)
                 (A) (A) (A) (A) (A) (A) (A) (A) (A) (A) (A) (A)
                 (A) (A) (A) (A) (A) (A) (A) (A) (A) (A) (A) (A)
                 (A) (A) (A) (A) (A) (A) (A) (A) (A) (A) (A) (A)
                 (A) (A) (A) (A) (A) (A) (A) (A) (A) (A) (A) (A)
                 (A) (A) (A) (A) (A) (A) (A) (A) (A) (A) (A) (A)
                 (A) (A) (A) (A) (A) (A) (A) (A) (A) (A) (A) (A)
                 (A) (A) (A) (A) (A) (A) (A) (A) (A) (A) (A) (A)
                 (A) (A) (A) (A) (A) (A) (A) (A) (A) (A) (A) (A)
                 (A) (A) (A)
   144 initial guesses have been made.
 Convergence on wavefunction:    0.001000000000000
 Davidson Disk Diagonalization:  ConvIn= 1.00D-03 SkipCon=T Conv= 1.00D-03.
 Max sub-space:  2160 roots to seek:   144 dimension of matrix:        27016
 Iteration     1 Dimension   144 NMult     0 NNew    144
 CISAX will form     3 AO SS matrices at one time.
 NMat=     3 NSing=     3 JSym2X= 0.
 FoFJK:  IHMeth= 1 ICntrl=       0 DoSepK=F KAlg= 0 I1Cent=           0 FoldK=F
 IRaf= 840000000 NMat=       6 IRICut=       1 DoRegI=T DoRafI=F ISym2E= 0 IDoP0=0 IntGTp=1.
 NMat=     3 NSing=     3 JSym2X= 0.
 NMat=     3 NSing=     3 JSym2X= 0.
 NMat=     3 NSing=     3 JSym2X= 0.
 NMat=     3 NSing=     3 JSym2X= 0.
 NMat=     3 NSing=     3 JSym2X= 0.
 NMat=     3 NSing=     3 JSym2X= 0.
 NMat=     3 NSing=     3 JSym2X= 0.
 NMat=     3 NSing=     3 JSym2X= 0.
 NMat=     3 NSing=     3 JSym2X= 0.
 NMat=     3 NSing=     3 JSym2X= 0.
 NMat=     3 NSing=     3 JSym2X= 0.
 NMat=     3 NSing=     3 JSym2X= 0.
 NMat=     3 NSing=     3 JSym2X= 0.
 NMat=     3 NSing=     3 JSym2X= 0.
 NMat=     3 NSing=     3 JSym2X= 0.
 NMat=     3 NSing=     3 JSym2X= 0.
 NMat=     3 NSing=     3 JSym2X= 0.
 NMat=     3 NSing=     3 JSym2X= 0.
 NMat=     3 NSing=     3 JSym2X= 0.
 NMat=     3 NSing=     3 JSym2X= 0.
 NMat=     3 NSing=     3 JSym2X= 0.
 NMat=     3 NSing=     3 JSym2X= 0.
 NMat=     3 NSing=     3 JSym2X= 0.
 NMat=     3 NSing=     3 JSym2X= 0.
 NMat=     3 NSing=     3 JSym2X= 0.
 NMat=     3 NSing=     3 JSym2X= 0.
 NMat=     3 NSing=     3 JSym2X= 0.
 NMat=     3 NSing=     3 JSym2X= 0.
 NMat=     3 NSing=     3 JSym2X= 0.
 NMat=     3 NSing=     3 JSym2X= 0.
 NMat=     3 NSing=     3 JSym2X= 0.
 NMat=     3 NSing=     3 JSym2X= 0.
 NMat=     3 NSing=     3 JSym2X= 0.
 NMat=     3 NSing=     3 JSym2X= 0.
 NMat=     3 NSing=     3 JSym2X= 0.
 NMat=     3 NSing=     3 JSym2X= 0.
 NMat=     3 NSing=     3 JSym2X= 0.
 NMat=     3 NSing=     3 JSym2X= 0.
 NMat=     3 NSing=     3 JSym2X= 0.
 NMat=     3 NSing=     3 JSym2X= 0.
 NMat=     3 NSing=     3 JSym2X= 0.
 NMat=     3 NSing=     3 JSym2X= 0.
 NMat=     3 NSing=     3 JSym2X= 0.
 NMat=     3 NSing=     3 JSym2X= 0.
 NMat=     3 NSing=     3 JSym2X= 0.
 NMat=     3 NSing=     3 JSym2X= 0.
 NMat=     3 NSing=     3 JSym2X= 0.
 New state      2 was old state      3
 New state      3 was old state      6
 New state      4 was old state      2
 New state      6 was old state      9
 New state      7 was old state      4
 New state      8 was old state     12
 New state      9 was old state      7
 New state     10 was old state      8
 New state     11 was old state     10
 New state     12 was old state     11
 New state     13 was old state     30
 New state     14 was old state     20
 New state     15 was old state     17
 New state     16 was old state     15
 New state     17 was old state     18
 New state     18 was old state     14
 New state     20 was old state     26
 New state     21 was old state     24
 New state     22 was old state     21
 New state     23 was old state     34
 New state     24 was old state     16
 New state     26 was old state     41
 New state     27 was old state     62
 New state     28 was old state     27
 New state     29 was old state     28
 New state     30 was old state     35
 New state     31 was old state     22
 New state     32 was old state     23
 New state     33 was old state     38
 New state     34 was old state     72
 New state     35 was old state     51
 New state     36 was old state     43
 Excitation Energies [eV] at current iteration:
 Root      1 :     2.208397780302457
 Root      2 :     3.133270226970692
 Root      3 :     3.314972237775267
 Root      4 :     3.377722823696691
 Root      5 :     3.476131187880377
 Root      6 :     3.589239747060344
 Root      7 :     3.781917445244495
 Root      8 :     3.867923610167232
 Root      9 :     3.942111464860516
 Root     10 :     4.377687485212494
 Root     11 :     4.498070000214375
 Root     12 :     4.549917362800631
 Root     13 :     4.591133490518406
 Root     14 :     4.663675053539452
 Root     15 :     4.689620384458792
 Root     16 :     4.702723287328235
 Root     17 :     4.734051957831516
 Root     18 :     4.857552551361964
 Root     19 :     5.014369514689014
 Root     20 :     5.128128939076370
 Root     21 :     5.204049028350195
 Root     22 :     5.337343017503253
 Root     23 :     5.541778089850398
 Root     24 :     5.605408123923872
 Root     25 :     5.699754406881031
 Root     26 :     5.737468427521970
 Root     27 :     5.828327716206442
 Root     28 :     5.865493634444607
 Root     29 :     5.900037608367426
 Root     30 :     5.960116425020602
 Root     31 :     5.966594186958566
 Root     32 :     6.101315087652551
 Root     33 :     6.149739598504895
 Root     34 :     6.174188797023128
 Root     35 :     6.208627492896233
 Root     36 :     6.238350144960698
 Root     37 :     6.270110742215938
 Root     38 :     6.320254856081800
 Root     39 :     6.341567815849333
 Root     40 :     6.375057628941661
 Root     41 :     6.403589348993342
 Root     42 :     6.419880814559390
 Root     43 :     6.443586078637939
 Root     44 :     6.451698025830154
 Root     45 :     6.477615624416708
 Root     46 :     6.490624177259897
 Root     47 :     6.497699173356716
 Root     48 :     6.521212271886067
 Root     49 :     6.543196239230740
 Root     50 :     6.560165402440992
 Root     51 :     6.582463833492080
 Root     52 :     6.619852669863256
 Root     53 :     6.640776191991790
 Root     54 :     6.677585927405201
 Root     55 :     6.684477274060399
 Root     56 :     6.764883421237728
 Root     57 :     6.780672918353679
 Root     58 :     6.844448851843410
 Root     59 :     6.954233015832508
 Root     60 :     6.987453515175290
 Root     61 :     7.003952965507172
 Root     62 :     7.040212991637601
 Root     63 :     7.054552182458062
 Root     64 :     7.059308532048600
 Root     65 :     7.079821176195003
 Root     66 :     7.108379106957422
 Root     67 :     7.152291705731108
 Root     68 :     7.166630837463241
 Root     69 :     7.184414098007508
 Root     70 :     7.234025748990171
 Root     71 :     7.281119241872205
 Root     72 :     7.291515751562161
 Root     73 :     7.323272168458521
 Root     74 :     7.347992375950005
 Root     75 :     7.394992374894620
 Root     76 :     7.410635684299360
 Root     77 :     7.425122256981743
 Root     78 :     7.454888781579837
 Root     79 :     7.477069125909573
 Root     80 :     7.542225834724308
 Root     81 :     7.565191478016144
 Root     82 :     7.583187548944315
 Root     83 :     7.592296356941018
 Root     84 :     7.599955950327212
 Root     85 :     7.653128236707093
 Root     86 :     7.658364511271887
 Root     87 :     7.688072364165700
 Root     88 :     7.699171578715601
 Root     89 :     7.737448349966818
 Root     90 :     7.747247651716838
 Root     91 :     7.789917674035894
 Root     92 :     7.807720188734249
 Root     93 :     7.824322006267100
 Root     94 :     7.867921554251083
 Root     95 :     7.881676747675175
 Root     96 :     7.889406751384901
 Root     97 :     7.895890535277577
 Root     98 :     7.912155719292254
 Root     99 :     7.961437204457030
 Root    100 :     7.983114107485682
 Root    101 :     8.020162816805099
 Root    102 :     8.027573420467462
 Root    103 :     8.055069562381643
 Root    104 :     8.076521464739677
 Root    105 :     8.150811602827236
 Root    106 :     8.169531564385817
 Root    107 :     8.192666413662632
 Root    108 :     8.206398335398465
 Root    109 :     8.216328631134042
 Root    110 :     8.239551625165133
 Root    111 :     8.249116373399332
 Root    112 :     8.269479524160907
 Root    113 :     8.287341196880195
 Root    114 :     8.307792065589918
 Root    115 :     8.327627666221156
 Root    116 :     8.346382987447104
 Root    117 :     8.368519765637332
 Root    118 :     8.380962414979370
 Root    119 :     8.396626575177363
 Root    120 :     8.413431064143175
 Root    121 :     8.439370783310171
 Root    122 :     8.443238747675631
 Root    123 :     8.450242137836099
 Root    124 :     8.464495928046226
 Root    125 :     8.477728754791952
 Root    126 :     8.485501317662301
 Root    127 :     8.532254457399175
 Root    128 :     8.541218804790971
 Root    129 :     8.543397886664133
 Root    130 :     8.588911904148263
 Root    131 :     8.616824379881550
 Root    132 :     8.657841718336933
 Root    133 :     8.666723418480714
 Root    134 :     8.677118230573230
 Root    135 :     8.740042821649991
 Root    136 :     8.740870404187350
 Root    137 :     8.791528808856775
 Root    138 :     8.799968884207043
 Root    139 :     8.836088446808084
 Root    140 :     8.889869540602179
 Root    141 :     8.982305315830073
 Root    142 :     9.036681700879681
 Root    143 :     9.371819934350533
 Root    144 :     9.522650927915503
 Iteration     2 Dimension   216 NMult   144 NNew     72
 CISAX will form     3 AO SS matrices at one time.
 NMat=     3 NSing=     3 JSym2X= 0.
 NMat=     3 NSing=     3 JSym2X= 0.
 NMat=     3 NSing=     3 JSym2X= 0.
 NMat=     3 NSing=     3 JSym2X= 0.
 NMat=     3 NSing=     3 JSym2X= 0.
 NMat=     3 NSing=     3 JSym2X= 0.
 NMat=     3 NSing=     3 JSym2X= 0.
 NMat=     3 NSing=     3 JSym2X= 0.
 NMat=     3 NSing=     3 JSym2X= 0.
 NMat=     3 NSing=     3 JSym2X= 0.
 NMat=     3 NSing=     3 JSym2X= 0.
 NMat=     3 NSing=     3 JSym2X= 0.
 NMat=     3 NSing=     3 JSym2X= 0.
 NMat=     3 NSing=     3 JSym2X= 0.
 NMat=     3 NSing=     3 JSym2X= 0.
 NMat=     3 NSing=     3 JSym2X= 0.
 NMat=     3 NSing=     3 JSym2X= 0.
 NMat=     3 NSing=     3 JSym2X= 0.
 NMat=     3 NSing=     3 JSym2X= 0.
 NMat=     3 NSing=     3 JSym2X= 0.
 NMat=     3 NSing=     3 JSym2X= 0.
 NMat=     3 NSing=     3 JSym2X= 0.
 NMat=     3 NSing=     3 JSym2X= 0.
 NMat=     3 NSing=     3 JSym2X= 0.
 Root      1 not converged, maximum delta is    0.035338681411384
 Root      2 not converged, maximum delta is    0.052863252785468
 Root      3 not converged, maximum delta is    0.189227752993546
 Root      4 not converged, maximum delta is    0.381487132456977
 New state      5 was old state      6
 Root      5 not converged, maximum delta is    0.469574477114480
 New state      6 was old state      5
 Root      6 not converged, maximum delta is    0.419553057700238
 Root      7 not converged, maximum delta is    0.165542807736920
 Root      8 not converged, maximum delta is    0.096694972287138
 Root      9 not converged, maximum delta is    0.200268442809235
 Root     10 not converged, maximum delta is    0.306514454018675
 New state     11 was old state     13
 Root     11 not converged, maximum delta is    0.317250680280135
 New state     12 was old state     11
 Root     12 not converged, maximum delta is    0.405546790243669
 New state     13 was old state     12
 Root     13 not converged, maximum delta is    0.412683944578822
 Root     14 not converged, maximum delta is    0.250267628052531
 Root     15 not converged, maximum delta is    0.243816282032764
 Root     16 not converged, maximum delta is    0.170026464601720
 Root     17 not converged, maximum delta is    0.128649734403797
 Root     18 not converged, maximum delta is    0.130116569998367
 Root     19 not converged, maximum delta is    0.271636300555388
 Root     20 not converged, maximum delta is    0.371688832222409
 New state     21 was old state     22
 Root     21 not converged, maximum delta is    0.497291691564201
 New state     22 was old state     21
 Root     22 not converged, maximum delta is    0.050167254119553
 New state     23 was old state     24
 Root     23 not converged, maximum delta is    0.708043070349050
 New state     24 was old state     26
 Root     24 not converged, maximum delta is    0.391738818246099
 New state     25 was old state     27
 Root     25 not converged, maximum delta is    0.354634641079395
 New state     26 was old state     23
 Root     26 not converged, maximum delta is    0.108192699212802
 New state     27 was old state     25
 Root     27 not converged, maximum delta is    0.339443008946060
 Root     28 not converged, maximum delta is    0.052733074020802
 Root     29 not converged, maximum delta is    0.266070314034799
 Root     30 not converged, maximum delta is    0.332326073454190
 Root     31 not converged, maximum delta is    0.281184799733865
 New state     32 was old state     34
 Root     32 not converged, maximum delta is    0.483777553454985
 New state     33 was old state     32
 Root     33 not converged, maximum delta is    0.176748320889932
 New state     34 was old state     33
 Root     34 not converged, maximum delta is    0.285223330006363
 Root     35 not converged, maximum delta is    0.166760322186896
 Root     36 not converged, maximum delta is    0.053879616807905
 Excitation Energies [eV] at current iteration:
 Root      1 :     2.044267864575612   Change is   -0.164129915726845
 Root      2 :     3.056447942654366   Change is   -0.076822284316326
 Root      3 :     3.227348636747810   Change is   -0.087623601027457
 Root      4 :     3.289302456995610   Change is   -0.088420366701081
 Root      5 :     3.334487588844194   Change is   -0.254752158216150
 Root      6 :     3.417827675341045   Change is   -0.058303512539332
 Root      7 :     3.676321374399058   Change is   -0.105596070845438
 Root      8 :     3.815895154845939   Change is   -0.052028455321292
 Root      9 :     3.853462457101230   Change is   -0.088649007759286
 Root     10 :     4.213764903083669   Change is   -0.163922582128826
 Root     11 :     4.338959558081139   Change is   -0.252173932437268
 Root     12 :     4.391621944835835   Change is   -0.106448055378541
 Root     13 :     4.444316870644632   Change is   -0.105600492155999
 Root     14 :     4.547291299785948   Change is   -0.116383753753503
 Root     15 :     4.609735002741180   Change is   -0.079885381717612
 Root     16 :     4.673308733068917   Change is   -0.029414554259318
 Root     17 :     4.707811379206843   Change is   -0.026240578624673
 Root     18 :     4.790172189861671   Change is   -0.067380361500293
 Root     19 :     4.963886196495631   Change is   -0.050483318193384
 Root     20 :     5.042061987367052   Change is   -0.086066951709319
 Root     21 :     5.138551494234692   Change is   -0.198791523268561
 Root     22 :     5.164727750402566   Change is   -0.039321277947629
 Root     23 :     5.219088236126580   Change is   -0.386319887797292
 Root     24 :     5.371825249431357   Change is   -0.365643178090613
 Root     25 :     5.400514620216518   Change is   -0.427813095989925
 Root     26 :     5.488258089859397   Change is   -0.053519999991001
 Root     27 :     5.667217471782327   Change is   -0.032536935098703
 Root     28 :     5.848507967963272   Change is   -0.016985666481335
 Root     29 :     5.871068478240473   Change is   -0.028969130126953
 Root     30 :     5.872805666073369   Change is   -0.087310758947233
 Root     31 :     5.947983076570796   Change is   -0.018611110387770
 Root     32 :     6.025818592940482   Change is   -0.148370204082646
 Root     33 :     6.042341305527263   Change is   -0.058973782125289
 Root     34 :     6.122026536603755   Change is   -0.027713061901139
 Root     35 :     6.159355973828201   Change is   -0.049271519068032
 Root     36 :     6.181831331986237   Change is   -0.056518812974461
 Iteration     3 Dimension   288 NMult   216 NNew     72
 CISAX will form     3 AO SS matrices at one time.
 NMat=     3 NSing=     3 JSym2X= 0.
 NMat=     3 NSing=     3 JSym2X= 0.
 NMat=     3 NSing=     3 JSym2X= 0.
 NMat=     3 NSing=     3 JSym2X= 0.
 NMat=     3 NSing=     3 JSym2X= 0.
 NMat=     3 NSing=     3 JSym2X= 0.
 NMat=     3 NSing=     3 JSym2X= 0.
 NMat=     3 NSing=     3 JSym2X= 0.
 NMat=     3 NSing=     3 JSym2X= 0.
 NMat=     3 NSing=     3 JSym2X= 0.
 NMat=     3 NSing=     3 JSym2X= 0.
 NMat=     3 NSing=     3 JSym2X= 0.
 NMat=     3 NSing=     3 JSym2X= 0.
 NMat=     3 NSing=     3 JSym2X= 0.
 NMat=     3 NSing=     3 JSym2X= 0.
 NMat=     3 NSing=     3 JSym2X= 0.
 NMat=     3 NSing=     3 JSym2X= 0.
 NMat=     3 NSing=     3 JSym2X= 0.
 NMat=     3 NSing=     3 JSym2X= 0.
 NMat=     3 NSing=     3 JSym2X= 0.
 NMat=     3 NSing=     3 JSym2X= 0.
 NMat=     3 NSing=     3 JSym2X= 0.
 NMat=     3 NSing=     3 JSym2X= 0.
 NMat=     3 NSing=     3 JSym2X= 0.
 Root      1 not converged, maximum delta is    0.003598762478893
 Root      2 not converged, maximum delta is    0.005143638776058
 Root      3 not converged, maximum delta is    0.015313483413336
 Root      4 not converged, maximum delta is    0.018029274074328
 Root      5 not converged, maximum delta is    0.016757815434425
 Root      6 not converged, maximum delta is    0.013869983281589
 Root      7 not converged, maximum delta is    0.007725485652489
 Root      8 not converged, maximum delta is    0.007354286060202
 Root      9 not converged, maximum delta is    0.010493793085235
 Root     10 not converged, maximum delta is    0.009717850361092
 Root     11 not converged, maximum delta is    0.006277448633458
 Root     12 not converged, maximum delta is    0.004119481131614
 Root     13 not converged, maximum delta is    0.017251357671988
 Root     14 not converged, maximum delta is    0.011116170890959
 Root     15 not converged, maximum delta is    0.010466150745630
 Root     16 not converged, maximum delta is    0.006715527140570
 Root     17 not converged, maximum delta is    0.005211156772974
 Root     18 not converged, maximum delta is    0.011977373725947
 Root     19 not converged, maximum delta is    0.025332325139838
 Root     20 not converged, maximum delta is    0.026864342142277
 Root     21 not converged, maximum delta is    0.028458602831148
 Root     22 not converged, maximum delta is    0.021105221445707
 Root     23 not converged, maximum delta is    0.012831188448035
 Root     24 not converged, maximum delta is    0.160222849915468
 Root     25 not converged, maximum delta is    0.121628574388761
 Root     26 not converged, maximum delta is    0.010863378870262
 Root     27 not converged, maximum delta is    0.005211979869350
 Root     28 not converged, maximum delta is    0.010070405132672
 New state     29 was old state     30
 Root     29 not converged, maximum delta is    0.285663172305953
 New state     30 was old state     29
 Root     30 not converged, maximum delta is    0.450288693985868
 Root     31 not converged, maximum delta is    0.023020033616361
 Root     32 not converged, maximum delta is    0.037989219179960
 Root     33 not converged, maximum delta is    0.038242954179607
 Root     34 not converged, maximum delta is    0.034633488132716
 Root     35 not converged, maximum delta is    0.039535455491322
 Root     36 not converged, maximum delta is    0.018360090471629
 Excitation Energies [eV] at current iteration:
 Root      1 :     2.038557428462376   Change is   -0.005710436113236
 Root      2 :     3.052299391773484   Change is   -0.004148550880881
 Root      3 :     3.224672384712834   Change is   -0.002676252034976
 Root      4 :     3.283984647009283   Change is   -0.005317809986327
 Root      5 :     3.329569680547217   Change is   -0.004917908296977
 Root      6 :     3.415363542335017   Change is   -0.002464133006028
 Root      7 :     3.671542372874089   Change is   -0.004779001524969
 Root      8 :     3.814235762842519   Change is   -0.001659392003420
 Root      9 :     3.849896445361375   Change is   -0.003566011739855
 Root     10 :     4.206285264050110   Change is   -0.007479639033558
 Root     11 :     4.333130799319004   Change is   -0.005828758762135
 Root     12 :     4.387506054638489   Change is   -0.004115890197346
 Root     13 :     4.439796511318694   Change is   -0.004520359325938
 Root     14 :     4.541947795931962   Change is   -0.005343503853987
 Root     15 :     4.605895154783723   Change is   -0.003839847957458
 Root     16 :     4.672231492641350   Change is   -0.001077240427567
 Root     17 :     4.707021348550097   Change is   -0.000790030656746
 Root     18 :     4.786793154666748   Change is   -0.003379035194923
 Root     19 :     4.959711076163277   Change is   -0.004175120332353
 Root     20 :     5.038326134456224   Change is   -0.003735852910827
 Root     21 :     5.125302719673875   Change is   -0.013248774560817
 Root     22 :     5.163179576037910   Change is   -0.001548174364656
 Root     23 :     5.206503516862791   Change is   -0.012584719263789
 Root     24 :     5.350506645613083   Change is   -0.021318603818273
 Root     25 :     5.385313078703891   Change is   -0.015201541512626
 Root     26 :     5.484426266348683   Change is   -0.003831823510714
 Root     27 :     5.661914908605173   Change is   -0.005302563177155
 Root     28 :     5.847882877142450   Change is   -0.000625090820821
 Root     29 :     5.865554431378542   Change is   -0.007251234694827
 Root     30 :     5.870762495565350   Change is   -0.000305982675124
 Root     31 :     5.945939978307965   Change is   -0.002043098262832
 Root     32 :     6.013720420589855   Change is   -0.012098172350627
 Root     33 :     6.034594657763622   Change is   -0.007746647763640
 Root     34 :     6.116545651316057   Change is   -0.005480885287699
 Root     35 :     6.155732197030025   Change is   -0.003623776798176
 Root     36 :     6.177902706123946   Change is   -0.003928625862291
 Iteration     4 Dimension   360 NMult   288 NNew     72
 CISAX will form     3 AO SS matrices at one time.
 NMat=     3 NSing=     3 JSym2X= 0.
 NMat=     3 NSing=     3 JSym2X= 0.
 NMat=     3 NSing=     3 JSym2X= 0.
 NMat=     3 NSing=     3 JSym2X= 0.
 NMat=     3 NSing=     3 JSym2X= 0.
 NMat=     3 NSing=     3 JSym2X= 0.
 NMat=     3 NSing=     3 JSym2X= 0.
 NMat=     3 NSing=     3 JSym2X= 0.
 NMat=     3 NSing=     3 JSym2X= 0.
 NMat=     3 NSing=     3 JSym2X= 0.
 NMat=     3 NSing=     3 JSym2X= 0.
 NMat=     3 NSing=     3 JSym2X= 0.
[...]
     9  H    0.000104   0.000000   0.000000   0.000009   0.000014  -0.000001
    10  H    0.000093   0.000000   0.000000   0.000000  -0.000011  -0.000000
    11  H    0.000613  -0.000001   0.000000   0.000004   0.000023  -0.000002
    12  C   -0.000769  -0.000001  -0.000000  -0.000012   0.000003   0.000012
    13  C    0.000177  -0.000000  -0.000000   0.000000  -0.000004  -0.000000
    14  C    0.002565   0.000018   0.000000   0.000054   0.000001  -0.000113
    15  C    0.000003   0.000000  -0.000000   0.000000  -0.000001  -0.000000
    16  H    0.000001  -0.000000   0.000000  -0.000000   0.000000  -0.000000
    17  C    0.000097   0.000000  -0.000000  -0.000009  -0.000008  -0.000007
    18  H    0.000083  -0.000039   0.000000  -0.000050   0.000000  -0.000007
    19  C   -0.000174  -0.000000   0.000000  -0.000003   0.000007   0.000001
    20  H   -0.000000   0.000000   0.000000   0.000000   0.000000   0.000000
    21  H   -0.000002   0.000000  -0.000000  -0.000014   0.000000   0.000000
    22  H    0.000000  -0.000000   0.000000   0.000000  -0.000000  -0.000000
    23  C   -0.014206   0.000397   0.000991   0.000671   0.000610   0.001259
    24  C    0.007113   0.002635   0.000623   0.000910  -0.000013  -0.010802
    25  C    0.231281   0.000646   0.000021   0.005696   0.001018  -0.010317
    26  C    0.000646  -0.114096   0.000494  -0.000184  -0.000016  -0.002676
    27  H    0.000021   0.000494  -0.011245  -0.000016   0.000002   0.000006
    28  C    0.005696  -0.000184  -0.000016  -0.112952   0.000327  -0.006358
    29  H    0.001018  -0.000016   0.000002   0.000327  -0.011030   0.000016
    30  C   -0.010317  -0.002676   0.000006  -0.006358   0.000016   0.264377
    31  H   -0.000006   0.000434   0.000039  -0.000000  -0.000000  -0.000519
    32  H   -0.000486  -0.000001  -0.000000   0.000488   0.000031  -0.000481
    33  H    0.000010   0.000096   0.000003   0.000101   0.000003   0.001344
    34  O    0.000317   0.000001   0.000076   0.000002  -0.000000  -0.000003
    35  H    0.000031   0.000002   0.000003  -0.000000  -0.000000  -0.000000
              31         32         33         34         35
     1  C   -0.000000  -0.000000  -0.000000  -0.003927  -0.002103
     2  C   -0.000003  -0.000003   0.000000  -0.078188  -0.010932
     3  O   -0.000000   0.000000   0.000000   0.001947   0.002916
     4  C    0.000000   0.000000  -0.000000  -0.000073   0.000094
     5  H    0.000000  -0.000000  -0.000000  -0.000025  -0.000008
     6  H   -0.000003   0.000000   0.000000   0.000734   0.000167
     7  H    0.000000  -0.000000   0.000000   0.000277   0.000193
     8  C    0.000000   0.000000  -0.000000   0.000740   0.000879
     9  H   -0.000000  -0.000000   0.000000  -0.000005   0.000088
    10  H   -0.000000   0.000000   0.000000  -0.000483   0.002832
    11  H    0.000000  -0.000000  -0.000000   0.002596  -0.001174
    12  C    0.000000  -0.000000  -0.000000   0.000018   0.000057
    13  C   -0.000000   0.000000   0.000000   0.000014   0.000029
    14  C   -0.000000  -0.000000   0.000000   0.000035   0.000016
    15  C    0.000000   0.000000  -0.000000   0.000000   0.000000
    16  H   -0.000000   0.000000   0.000000   0.000001   0.000002
    17  C   -0.000000  -0.000000   0.000000   0.000000  -0.000000
    18  H   -0.000000  -0.000000   0.000000   0.000002   0.000000
    19  C    0.000000  -0.000000  -0.000000  -0.000000  -0.000000
    20  H    0.000000  -0.000000  -0.000000  -0.000000  -0.000000
    21  H   -0.000000   0.000000  -0.000000  -0.000000  -0.000000
    22  H   -0.000000   0.000000   0.000000   0.000000   0.000000
    23  C   -0.000001  -0.000015  -0.000032  -0.000840  -0.000023
    24  C   -0.000467  -0.000007   0.000012   0.002234   0.000127
    25  C   -0.000006  -0.000486   0.000010   0.000317   0.000031
    26  C    0.000434  -0.000001   0.000096   0.000001   0.000002
    27  H    0.000039  -0.000000   0.000003   0.000076   0.000003
    28  C   -0.000000   0.000488   0.000101   0.000002  -0.000000
    29  H   -0.000000   0.000031   0.000003  -0.000000  -0.000000
    30  C   -0.000519  -0.000481   0.001344  -0.000003  -0.000000
    31  H    0.004475  -0.000000   0.000066   0.000000  -0.000000
    32  H   -0.000000   0.004366   0.000069   0.000000   0.000000
    33  H    0.000066   0.000069  -0.012572   0.000000   0.000000
    34  O    0.000000   0.000000   0.000000   0.143828  -0.000948
    35  H   -0.000000   0.000000   0.000000  -0.000948   0.015754
 Mulliken charges and spin densities:
               1          2
     1  C    0.385365   0.025094
     2  C    0.236190   0.582864
     3  O   -0.546430   0.026938
     4  C   -0.388666  -0.001961
     5  H    0.141609   0.000256
     6  H    0.144688   0.001902
     7  H    0.125788   0.000122
     8  C   -0.368410  -0.046739
     9  H    0.131029   0.003022
    10  H    0.128962   0.015854
    11  H    0.132923   0.034098
    12  C    0.065784  -0.012744
    13  C   -0.113398   0.023793
    14  C   -0.113352   0.018329
    15  C   -0.101464  -0.011742
    16  H    0.110715  -0.001097
    17  C   -0.106260  -0.011841
    18  H    0.110108  -0.000770
    19  C   -0.089946   0.025809
    20  H    0.108196   0.000410
    21  H    0.108937   0.000426
    22  H    0.110112  -0.001168
    23  C    0.100065  -0.156983
    24  C   -0.141552   0.212612
    25  C   -0.134303   0.206449
    26  C   -0.100617  -0.112437
    27  H    0.104696  -0.009317
    28  C   -0.108742  -0.111492
    29  H    0.095615  -0.009008
    30  C   -0.108881   0.235916
    31  H    0.098299   0.004015
    32  H    0.098556   0.003959
    33  H    0.096704  -0.010900
    34  O   -0.552597   0.068330
    35  H    0.340277   0.008001
 Sum of Mulliken charges =  -0.00000   1.00000
 Mulliken charges and spin densities with hydrogens summed into heavy atoms:
               1          2
     1  C    0.385365   0.025094
     2  C    0.236190   0.582864
     3  O   -0.546430   0.026938
     4  C    0.023419   0.000319
     8  C    0.024504   0.006235
    12  C    0.065784  -0.012744
    13  C   -0.002683   0.022696
    14  C   -0.003244   0.017559
    15  C    0.006732  -0.011333
    17  C    0.002677  -0.011414
    19  C    0.020166   0.024641
    23  C    0.100065  -0.156983
    24  C   -0.036856   0.203295
    25  C   -0.038688   0.197441
    26  C   -0.002318  -0.108422
    28  C   -0.010187  -0.107533
    30  C   -0.012177   0.225016
    34  O   -0.212319   0.076331
 Electronic spatial extent (au):  <R**2>=           4090.4721
 Charge=             -0.0000 electrons
 Dipole moment (field-independent basis, Debye):
    X=             -0.9393    Y=              3.1520    Z=             -0.2597  Tot=              3.2992
 Quadrupole moment (field-independent basis, Debye-Ang):
   XX=           -105.7869   YY=           -102.6848   ZZ=            -99.4990
   XY=             -2.9436   XZ=             -7.7969   YZ=              0.2390
 Traceless Quadrupole moment (field-independent basis, Debye-Ang):
   XX=             -3.1300   YY=             -0.0279   ZZ=              3.1579
   XY=             -2.9436   XZ=             -7.7969   YZ=              0.2390
 Octapole moment (field-independent basis, Debye-Ang**2):
  XXX=            -13.3067  YYY=             19.9500  ZZZ=             -1.3420  XYY=              1.8781
  XXY=             18.3697  XXZ=             -1.5586  XZZ=             -4.1020  YZZ=            -13.7282
  YYZ=              3.7246  XYZ=             -1.3379
 Hexadecapole moment (field-independent basis, Debye-Ang**3):
 XXXX=          -2835.5421 YYYY=          -1658.5191 ZZZZ=           -823.4433 XXXY=            -10.9121
 XXXZ=           -142.1293 YYYX=            -31.3633 YYYZ=             -9.4521 ZZZX=             -2.7491
 ZZZY=             -0.6522 XXYY=           -756.9387 XXZZ=           -622.0970 YYZZ=           -420.7480
 XXYZ=              9.9475 YYXZ=            -26.3813 ZZXY=              3.3817
 N-N= 1.306742918013D+03 E-N=-4.403633354046D+03  KE= 7.631269019141D+02
 Leave Link  601 at Sat May 25 04:47:24 2019, MaxMem=   104857600 cpu:               5.3 elap:               0.2
 (Enter /opt/software/gaussian/g16.b01/l9999.exe)
 Electronic transition elements 
                 1             2             3             4             5 
      1  -0.770355D+03 -0.770317D+03 -0.770311D+03 -0.770309D+03 -0.770307D+03
      2  -0.134007D+01 -0.483905D-01 -0.137265D+00  0.251762D+00 -0.147232D+00
      3  -0.122199D-01  0.911546D-01  0.647940D-01 -0.540020D-01 -0.158688D-01
      4  -0.478382D+00  0.847604D-01  0.186632D-01  0.827515D-01 -0.647252D-02
      5   0.959454D-01  0.573782D-02  0.169678D-01 -0.265133D-01  0.184264D-01
      6   0.105443D-02 -0.145177D-01 -0.732031D-02  0.737353D-02  0.232195D-02
      7   0.353663D-01 -0.919496D-02 -0.230890D-02 -0.104750D-01 -0.329586D-03
      8  -0.144317D+00 -0.310491D+00 -0.256591D-01  0.172047D+00  0.185654D-01
      9   0.480398D-01  0.107027D+00  0.261459D+00  0.591858D-01 -0.154836D+00
     10   0.324793D+00 -0.374655D+00 -0.892870D-01 -0.220962D+00  0.279254D+00
     11   0.519773D-01  0.946576D-01 -0.997864D-02  0.183112D-01  0.435686D-01
     12  -0.480295D-01 -0.242041D-01 -0.774094D-02  0.236206D-01 -0.601000D-02
     13   0.133524D-01 -0.186194D-01  0.131973D-01 -0.492892D-01 -0.355232D-01
     14   0.117926D+00 -0.434724D-01  0.747980D-01 -0.108132D+00  0.887852D-01
     15  -0.877800D-02 -0.442277D-01  0.114777D-02  0.370039D-02  0.398163D-02
     16  -0.738761D-01 -0.178213D-01  0.960906D-02  0.253492D-01  0.230833D-01
                 6             7             8             9            10 
      1  -0.770304D+03 -0.770295D+03 -0.770289D+03 -0.770288D+03 -0.770275D+03
      2   0.175312D-03  0.197772D+00  0.546887D-01  0.526459D-01 -0.810868D+00
      3   0.119163D-01 -0.207705D+00 -0.474031D-01 -0.409165D-01 -0.325081D+00
      4   0.314464D-02 -0.214154D+00 -0.610719D-01 -0.113532D+00  0.274590D+00
      5   0.199113D-02 -0.281522D-01 -0.968167D-02 -0.725154D-02  0.121761D+00
      6  -0.534759D-02  0.310616D-01  0.627063D-02  0.932852D-02  0.480788D-01
      7  -0.134995D-02  0.322410D-01  0.853818D-02  0.172065D-01 -0.422625D-01
      8   0.597303D-01  0.441132D+00 -0.805900D-01  0.199058D+00 -0.343573D+00
      9   0.371718D-01 -0.247883D+00 -0.668021D+00 -0.315160D-01  0.308421D+00
     10   0.201315D-01  0.920836D+00  0.311974D+00  0.108525D+00  0.785897D+00
     11   0.965745D-01 -0.911515D-01 -0.331655D-01 -0.286721D+00  0.541629D+00
     12  -0.339451D-01  0.300432D-01  0.193209D-01  0.613118D-01 -0.108525D+00
     13  -0.252204D-01  0.771684D-05 -0.244837D-01  0.825903D-01 -0.155422D+00
     14   0.267758D-01  0.184912D+00 -0.315619D-01  0.719728D-01  0.578466D+00
     15  -0.341147D-01  0.779292D-01  0.149965D-01  0.100904D+00 -0.778048D-01
     16   0.164996D-02  0.900648D-01 -0.260256D-01  0.705032D-02  0.172122D+00
                11            12            13            14            15 
      1  -0.770270D+03 -0.770268D+03 -0.770266D+03 -0.770263D+03 -0.770260D+03
      2   0.541459D-01  0.388570D-01  0.446426D+00  0.347753D+00 -0.104511D+00
      3   0.263802D+00  0.321401D+00  0.393856D+00  0.222199D+00  0.672174D+00
      4  -0.263974D-01 -0.101194D-02 -0.184785D+00 -0.360586D+00  0.139862D-01
      5  -0.858919D-02 -0.442401D-02 -0.728662D-01 -0.521105D-01  0.175155D-01
      6  -0.400963D-01 -0.469358D-01 -0.629551D-01 -0.384002D-01 -0.108573D+00
      7   0.317294D-02 -0.172292D-02  0.302681D-01  0.605134D-01 -0.395720D-02
      8  -0.358926D-01 -0.506976D-01  0.258966D+00  0.790878D-01 -0.110057D+00
      9  -0.135592D+00 -0.319803D+00  0.876730D-01 -0.156022D+00 -0.187431D+00
     10  -0.128626D+00 -0.294101D+00 -0.253605D-01 -0.317752D+00  0.199088D+00
     11  -0.255388D+00 -0.521465D+00  0.614827D-02 -0.251352D+00 -0.348198D+00
     12   0.344731D-01  0.826326D-01 -0.487078D-01  0.227805D-01 -0.172571D-01
     13   0.739991D-01  0.123662D+00  0.359731D-01  0.101997D+00  0.109934D+00
     14  -0.798552D-02 -0.617519D-01 -0.189521D+00 -0.416763D+00  0.200970D+00
     15   0.405625D-01  0.127909D+00 -0.603583D-01  0.260309D-01  0.532460D-01
     16  -0.379973D-01 -0.694992D-01  0.163139D-03 -0.209901D+00  0.191572D-01
                16            17            18            19            20 
      1  -0.770258D+03 -0.770256D+03 -0.770254D+03 -0.770247D+03 -0.770244D+03
      2  -0.670837D-01  0.863020D-01 -0.206693D-01  0.344568D+00  0.299092D+00
      3  -0.232717D-01 -0.120081D+00 -0.377084D+00  0.544863D+00  0.259216D+00
      4   0.232166D-01  0.326852D-01 -0.434608D-01 -0.294873D+00 -0.335429D+00
      5   0.115443D-01 -0.139269D-01  0.102523D-02 -0.620125D-01 -0.586555D-01
      6   0.595205D-02  0.191762D-01  0.670689D-01 -0.966811D-01 -0.475405D-01
      7  -0.435977D-02 -0.519533D-02  0.748981D-02  0.530709D-01  0.616011D-01
      8   0.159073D-01 -0.992838D-02  0.109511D+00  0.127501D+00  0.271887D+00
      9  -0.592395D-01 -0.150732D+00 -0.817687D-01 -0.207025D+00 -0.198762D-01
     10   0.172111D-01 -0.815472D-01  0.142439D+00 -0.104149D+00  0.806339D-01
     11  -0.211575D+00  0.946867D-01 -0.102299D+00 -0.498314D+00 -0.140329D+00
     12   0.466908D-01  0.739826D-02  0.100310D+00  0.217298D-01 -0.272688D-02
     13   0.502871D-01 -0.564675D-01 -0.333770D-01  0.159564D+00  0.554456D-01
     14   0.632797D-01 -0.112993D+00  0.991614D-01 -0.160526D+00 -0.775547D-01
     15   0.756601D-01 -0.228897D-01  0.992110D-01  0.821369D-01  0.107557D-01
     16  -0.342181D-02 -0.105819D-01  0.331349D-01 -0.869498D-01 -0.171755D-01
                21            22            23            24            25 
      1  -0.770241D+03 -0.770240D+03 -0.770238D+03 -0.770233D+03 -0.770232D+03
      2   0.219533D-01 -0.275257D-01  0.282087D+00  0.308536D+00  0.381527D+00
      3   0.111599D+01  0.139140D+00  0.622506D+00 -0.931632D-01 -0.471500D+00
      4  -0.440974D-01  0.522045D-01 -0.989562D-01 -0.181204D+00 -0.335964D+00
      5  -0.445887D-02  0.635438D-02 -0.498579D-01 -0.594405D-01 -0.769660D-01
      6  -0.202577D+00 -0.251141D-01 -0.116632D+00  0.175358D-01  0.879398D-01
      7   0.548444D-02 -0.100290D-01  0.228995D-01  0.340376D-01  0.668949D-01
      8  -0.822069D-01 -0.765624D-01 -0.193202D+00  0.480962D-01  0.271441D+00
      9  -0.217974D+00 -0.360121D-01 -0.624465D+00  0.133884D+00  0.760983D-01
     10   0.108919D+00  0.799405D-01 -0.185205D+00 -0.338020D+00 -0.725375D+00
     11  -0.964220D+00 -0.104791D+00 -0.630004D+00 -0.494735D-01  0.121499D+00
     12   0.966957D-01  0.517125D-02 -0.830616D-01  0.846939D-01  0.398136D-01
     13   0.195514D+00  0.125946D-01  0.230605D+00 -0.245016D-01  0.150930D-01
     14   0.413094D-01  0.841635D-01  0.313574D-01 -0.399542D+00 -0.815351D+00
     15   0.183661D+00  0.253940D-01  0.122258D+00 -0.550368D-02 -0.525019D-01
     16  -0.628339D-01  0.209446D-01 -0.478312D-01 -0.104303D+00 -0.235861D+00
                26            27            28            29            30 
      1  -0.770228D+03 -0.770221D+03 -0.770215D+03 -0.770214D+03 -0.770214D+03
      2   0.443031D-01 -0.309601D-02  0.343206D-01  0.538940D-02  0.105053D+00
      3  -0.108271D+00  0.228982D-02 -0.199159D-01  0.531589D-01 -0.122990D+00
      4  -0.537731D-01  0.203728D-01 -0.140752D-01  0.110960D-01 -0.496117D-01
      5  -0.916445D-02  0.780516D-02 -0.757591D-02 -0.316922D-02 -0.227029D-01
      6   0.225183D-01 -0.100108D-01  0.424108D-02 -0.101928D-01  0.241491D-01
      7   0.115584D-01  0.683824D-02  0.268547D-02 -0.343471D-02  0.782535D-02
      8   0.144870D-01 -0.119365D+00  0.139429D-01  0.160586D+00 -0.158416D-01
      9  -0.455645D-01 -0.276843D-02 -0.313305D-02  0.165204D+00 -0.706784D-01
     10   0.147362D+00  0.124735D+00 -0.518186D-01 -0.551389D-01 -0.267908D+00
     11  -0.415822D-01  0.491814D-01 -0.304189D-02 -0.316091D-01  0.741123D-02
     12   0.412955D-01 -0.959941D-02  0.157848D-01  0.122758D+00  0.382634D-01
     13  -0.140999D-01  0.157124D+00 -0.436398D-02 -0.962643D-01  0.277526D-02
     14   0.831218D-01 -0.128512D-03 -0.532452D-01 -0.911093D-01 -0.207145D+00
     15   0.471254D-01  0.847783D-01  0.206660D-02  0.154229D-01  0.919731D-02
     16   0.428841D-01 -0.703901D-01 -0.952125D-02  0.385925D-02 -0.687839D-01
                31            32            33            34            35 
      1  -0.770211D+03 -0.770208D+03 -0.770208D+03 -0.770205D+03 -0.770203D+03
      2  -0.370447D+00 -0.248777D+00  0.501009D+00  0.146883D+00  0.172099D+00
      3   0.510889D-01 -0.285287D-01 -0.118727D+00  0.331576D-01  0.707308D-01
      4   0.155428D+00  0.149588D+00 -0.268523D+00 -0.960739D-01 -0.114800D-01
      5   0.816924D-01  0.566642D-01 -0.110728D+00 -0.321992D-01 -0.381269D-01
      6  -0.122704D-01  0.696759D-02  0.242094D-01 -0.882994D-02 -0.151333D-01
      7  -0.366107D-01 -0.351610D-01  0.626703D-01  0.220309D-01  0.199778D-02
      8  -0.147001D+00 -0.227636D+00  0.263745D+00  0.122971D+00  0.278085D-01
      9  -0.675547D-01  0.198141D+00  0.239786D+00  0.197960D+00  0.167624D+00
     10   0.110444D+00 -0.420550D-01  0.439465D+00  0.416588D+00 -0.386163D+00
     11  -0.979036D-01 -0.451444D-01  0.401307D+00  0.362279D+00  0.171991D+00
     12  -0.259252D-01  0.123166D-01 -0.567863D-01 -0.131964D+00 -0.322260D-01
     13   0.166902D-01  0.954432D-02 -0.658010D-01 -0.499053D-01 -0.157772D-01
     14   0.329358D+00  0.133210D+00 -0.137124D+00  0.143357D+00 -0.351119D+00
     15   0.508917D-01  0.262947D-02 -0.117584D+00 -0.114562D+00 -0.112529D+00
     16  -0.962490D-02 -0.616034D-02  0.147311D+00  0.130232D+00 -0.479825D-01
                36 
      1  -0.770202D+03
      2   0.650288D-02
      3   0.225177D-01
      4  -0.606894D-02
      5  -0.676182D-03
      6  -0.526228D-02
      7   0.141982D-02
      8  -0.850347D-01
      9  -0.655707D-01
     10   0.115912D+00
     11  -0.327227D-01
     12  -0.250780D-02
     13   0.172601D-01
     14   0.757422D-01
     15   0.214834D-01
     16   0.112293D-01
 1\1\GINC-GRA415\SP\UB3LYP TD-FC\6-31G(d,p)\C16H17O2(2)\RZK\25-May-2019
 \0\\#p td=(50-50,nstates=36) ub3lyp/6-31g(d,p) scrf=(iefpcm,solvent=ac
 etonitrile) guess=(mix,always) empiricaldispersion=gd3\\Title Card Req
 uired\\0,2\C,0,-1.152207,-1.44678,-0.963305\C,0,0.776542,-1.287874,1.0
 60226\O,0,-1.553859,-2.470187,-0.394128\C,0,-0.169035,-1.552137,-2.108
 386\H,0,-0.649967,-1.218691,-3.034729\H,0,0.71098,-0.924404,-1.949928\
 H,0,0.144617,-2.590486,-2.213538\C,0,-0.238191,-1.202705,2.154933\H,0,
 -0.629958,-0.194486,2.285773\H,0,-1.083772,-1.860046,1.927906\H,0,0.19
 5722,-1.533629,3.108662\C,0,-1.703678,-0.110221,-0.604732\C,0,-2.79367
 2,-0.044407,0.281101\C,0,-1.161497,1.083981,-1.108706\C,0,-3.324573,1.
 18453,0.65968\H,0,-3.208313,-0.971656,0.660611\C,0,-1.690719,2.314901,
 -0.724259\H,0,-0.31365,1.059491,-1.783261\C,0,-2.771531,2.368721,0.159
 385\H,0,-4.167504,1.223902,1.342931\H,0,-1.255553,3.23176,-1.109494\H,
 0,-3.182277,3.328758,0.457372\C,0,1.62791,-0.232383,0.628562\C,0,2.666
 34,-0.476331,-0.317788\C,0,1.457988,1.106988,1.081006\C,0,3.466437,0.5
 57662,-0.784481\H,0,2.821823,-1.4886,-0.67184\C,0,2.265818,2.130105,0.
 604356\H,0,0.681164,1.341063,1.799449\C,0,3.276007,1.8707,-0.332178\H,
 0,4.248777,0.342091,-1.506994\H,0,2.107185,3.143284,0.962839\H,0,3.903
 154,2.676112,-0.701332\O,0,1.083175,-2.54346,0.617242\H,0,0.251399,-3.
 043795,0.528165\\Version=ES64L-G16RevB.01\State=2-A\HF=-770.4294436\S2
 =0.771947\S2-1=0.\S2A=0.75034\RMSD=3.784e-09\PG=C01 [X(C16H17O2)]\\@


 ... UNTIL SCIENCE IS MIXED WITH EMOTION AND APPEALS TO THE HEART AND
 IMAGINATION , IT IS LIKE DEAD INORGANIC MATTER; AND WHEN IT IS SO MIXED
 AND SO TRANSFORMED IT IS LITERATURE.

                                  -- JOHN BURROUGHS
 Job cpu time:       0 days 14 hours 50 minutes 45.7 seconds.
 Elapsed time:       0 days  0 hours 27 minutes 53.0 seconds.
 File lengths (MBytes):  RWF=   2190 Int=      0 D2E=      0 Chk=    178 Scr=      1
 Normal termination of Gaussian 16 at Sat May 25 04:47:24 2019.
