 Entering Gaussian System, Link 0=g16
 Initial command:
 /opt/software/gaussian/g16.b01/l1.exe "/localscratch/rzk.15153358.0/Gau-23514.inp" -scrdir="/localscratch/rzk.15153358.0/"
 Entering Link 1 = /opt/software/gaussian/g16.b01/l1.exe PID=     23519.
  
 Copyright (c) 1988-2017, Gaussian, Inc.  All Rights Reserved.
  
 This is part of the Gaussian(R) 16 program.  It is based on
 the Gaussian(R) 09 system (copyright 2009, Gaussian, Inc.),
 the Gaussian(R) 03 system (copyright 2003, Gaussian, Inc.),
 the Gaussian(R) 98 system (copyright 1998, Gaussian, Inc.),
 the Gaussian(R) 94 system (copyright 1995, Gaussian, Inc.),
 the Gaussian 92(TM) system (copyright 1992, Gaussian, Inc.),
 the Gaussian 90(TM) system (copyright 1990, Gaussian, Inc.),
 the Gaussian 88(TM) system (copyright 1988, Gaussian, Inc.),
 the Gaussian 86(TM) system (copyright 1986, Carnegie Mellon
 University), and the Gaussian 82(TM) system (copyright 1983,
 Carnegie Mellon University). Gaussian is a federally registered
 trademark of Gaussian, Inc.
  
 This software contains proprietary and confidential information,
 including trade secrets, belonging to Gaussian, Inc.
  
 This software is provided under written license and may be
 used, copied, transmitted, or stored only in accord with that
 written license.
  
 The following legend is applicable only to US Government
 contracts under FAR:
  
                    RESTRICTED RIGHTS LEGEND
  
 Use, reproduction and disclosure by the US Government is
 subject to restrictions as set forth in subparagraphs (a)
 and (c) of the Commercial Computer Software - Restricted
 Rights clause in FAR 52.227-19.
  
 Gaussian, Inc.
 340 Quinnipiac St., Bldg. 40, Wallingford CT 06492
  
  
 ---------------------------------------------------------------
 Warning -- This program may not be used in any manner that
 competes with the business of Gaussian, Inc. or will provide
 assistance to any competitor of Gaussian, Inc.  The licensee
 of this program is prohibited from giving any competitor of
 Gaussian, Inc. access to this program.  By using this program,
 the user acknowledges that Gaussian, Inc. is engaged in the
 business of creating and licensing software in the field of
 computational chemistry and represents and warrants to the
 licensee that it is not a competitor of Gaussian, Inc. and that
 it will not use this program in any manner prohibited above.
 ---------------------------------------------------------------
  

 Cite this work as:
 Gaussian 16, Revision B.01,
 M. J. Frisch, G. W. Trucks, H. B. Schlegel, G. E. Scuseria, 
 M. A. Robb, J. R. Cheeseman, G. Scalmani, V. Barone, 
 G. A. Petersson, H. Nakatsuji, X. Li, M. Caricato, A. V. Marenich, 
 J. Bloino, B. G. Janesko, R. Gomperts, B. Mennucci, H. P. Hratchian, 
 J. V. Ortiz, A. F. Izmaylov, J. L. Sonnenberg, D. Williams-Young, 
 F. Ding, F. Lipparini, F. Egidi, J. Goings, B. Peng, A. Petrone, 
 T. Henderson, D. Ranasinghe, V. G. Zakrzewski, J. Gao, N. Rega, 
 G. Zheng, W. Liang, M. Hada, M. Ehara, K. Toyota, R. Fukuda, 
 J. Hasegawa, M. Ishida, T. Nakajima, Y. Honda, O. Kitao, H. Nakai, 
 T. Vreven, K. Throssell, J. A. Montgomery, Jr., J. E. Peralta, 
 F. Ogliaro, M. J. Bearpark, J. J. Heyd, E. N. Brothers, K. N. Kudin, 
 V. N. Staroverov, T. A. Keith, R. Kobayashi, J. Normand, 
 K. Raghavachari, A. P. Rendell, J. C. Burant, S. S. Iyengar, 
 J. Tomasi, M. Cossi, J. M. Millam, M. Klene, C. Adamo, R. Cammi, 
 J. W. Ochterski, R. L. Martin, K. Morokuma, O. Farkas, 
 J. B. Foresman, and D. J. Fox, Gaussian, Inc., Wallingford CT, 2016.
 
 ******************************************
 Gaussian 16:  ES64L-G16RevB.01 20-Dec-2017
                25-May-2019 
 ******************************************
 %NProcShared=32
 Will use up to   32 processors via shared memory.
 %chk=AH-A_15.chk
 ----------------------------------------------------------------------
 #p td=(50-50,nstates=36) ub3lyp/6-31g(d,p) scrf=(iefpcm,solvent=aceton
 itrile) guess=(mix,always) empiricaldispersion=gd3
 ----------------------------------------------------------------------
 1/38=1,172=1/1;
 2/12=2,17=6,18=5,40=1/2;
 3/5=1,6=6,7=101,11=2,25=1,30=1,70=2201,72=2,74=-5,116=2,124=31/1,2,3,8;
 4/13=-1/1;
 5/5=2,38=5,53=2/2;
 8/6=1,10=2,108=36/1;
 9/41=36,42=1,48=2,70=2/14;
 6/7=2,8=2,9=2,10=2/1;
 99/5=1,9=1/99;
 Leave Link    1 at Sat May 25 04:16:14 2019, MaxMem=           0 cpu:               3.0 elap:               0.1
 (Enter /opt/software/gaussian/g16.b01/l101.exe)
 -------------------
 Title Card Required
 -------------------
 Symbolic Z-matrix:
 Charge =  0 Multiplicity = 2
 C                    -0.63062  -1.34163  -0.62836 
 C                     0.67961  -1.30618   0.60536 
 O                    -1.1468   -2.52141  -0.34286 
 C                     0.09108  -1.33559  -1.99288 
 H                    -0.66902  -1.43526  -2.77257 
 H                     0.65778  -0.42189  -2.17015 
 H                     0.76799  -2.18804  -2.04479 
 C                    -0.00217  -1.38007   1.97184 
 H                    -0.69329  -0.55579   2.14388 
 H                    -0.56217  -2.31337   2.04582 
 H                     0.77119  -1.36      2.74492 
 C                    -1.56363  -0.1556   -0.40535 
 C                    -2.7411   -0.3472    0.33243 
 C                    -1.29865   1.12184  -0.92081 
 C                    -3.62525   0.70673   0.55817 
 H                    -2.95222  -1.33767   0.71972 
 C                    -2.18362   2.17865  -0.6983 
 H                    -0.39471   1.30588  -1.4892 
 C                    -3.34861   1.97666   0.04392 
 H                    -4.5318    0.53697   1.13202 
 H                    -1.95907   3.16048  -1.10471 
 H                    -4.03568   2.79952   0.21792 
 C                     1.54256  -0.10145   0.39085 
 C                     2.69933  -0.19093  -0.40541 
 C                     1.22218   1.13825   0.97246 
 C                     3.51257   0.92198  -0.60635 
 H                     2.95543  -1.142    -0.85521 
 C                     2.0354    2.2508    0.76807 
 H                     0.33058   1.24216   1.57815 
 C                     3.18293   2.14824  -0.02248 
 H                     4.40424   0.83244  -1.21937 
 H                     1.77124   3.19906   1.22585 
 H                     3.8148    3.01669  -0.18212 
 O                     1.41384  -2.46285   0.34469 
 H                     0.75623  -3.17198   0.23634 
 
 ITRead=  0  0  0  0  0  0  0  0  0  0  0  0  0  0  0  0  0  0  0  0
 ITRead=  0  0  0  0  0  0  0  0  0  0  0  0  0  0  0
 MicOpt= -1 -1 -1 -1 -1 -1 -1 -1 -1 -1 -1 -1 -1 -1 -1 -1 -1 -1 -1 -1
 MicOpt= -1 -1 -1 -1 -1 -1 -1 -1 -1 -1 -1 -1 -1 -1 -1
 NAtoms=     35 NQM=       35 NQMF=       0 NMMI=      0 NMMIF=      0
                NMic=       0 NMicF=      0.
                    Isotopes and Nuclear Properties:
 (Nuclear quadrupole moments (NQMom) in fm**2, nuclear magnetic moments (NMagM)
  in nuclear magnetons)

  Atom         1           2           3           4           5           6           7           8           9          10
 IAtWgt=          12          12          16          12           1           1           1          12           1           1
 AtmWgt=  12.0000000  12.0000000  15.9949146  12.0000000   1.0078250   1.0078250   1.0078250  12.0000000   1.0078250   1.0078250
 NucSpn=           0           0           0           0           1           1           1           0           1           1
 AtZEff=  -0.0000000  -0.0000000  -0.0000000  -0.0000000  -0.0000000  -0.0000000  -0.0000000  -0.0000000  -0.0000000  -0.0000000
 NQMom=    0.0000000   0.0000000   0.0000000   0.0000000   0.0000000   0.0000000   0.0000000   0.0000000   0.0000000   0.0000000
 NMagM=    0.0000000   0.0000000   0.0000000   0.0000000   2.7928460   2.7928460   2.7928460   0.0000000   2.7928460   2.7928460
 AtZNuc=   6.0000000   6.0000000   8.0000000   6.0000000   1.0000000   1.0000000   1.0000000   6.0000000   1.0000000   1.0000000

  Atom        11          12          13          14          15          16          17          18          19          20
 IAtWgt=           1          12          12          12          12           1          12           1          12           1
 AtmWgt=   1.0078250  12.0000000  12.0000000  12.0000000  12.0000000   1.0078250  12.0000000   1.0078250  12.0000000   1.0078250
 NucSpn=           1           0           0           0           0           1           0           1           0           1
 AtZEff=  -0.0000000  -0.0000000  -0.0000000  -0.0000000  -0.0000000  -0.0000000  -0.0000000  -0.0000000  -0.0000000  -0.0000000
 NQMom=    0.0000000   0.0000000   0.0000000   0.0000000   0.0000000   0.0000000   0.0000000   0.0000000   0.0000000   0.0000000
 NMagM=    2.7928460   0.0000000   0.0000000   0.0000000   0.0000000   2.7928460   0.0000000   2.7928460   0.0000000   2.7928460
 AtZNuc=   1.0000000   6.0000000   6.0000000   6.0000000   6.0000000   1.0000000   6.0000000   1.0000000   6.0000000   1.0000000

  Atom        21          22          23          24          25          26          27          28          29          30
 IAtWgt=           1           1          12          12          12          12           1          12           1          12
 AtmWgt=   1.0078250   1.0078250  12.0000000  12.0000000  12.0000000  12.0000000   1.0078250  12.0000000   1.0078250  12.0000000
 NucSpn=           1           1           0           0           0           0           1           0           1           0
 AtZEff=  -0.0000000  -0.0000000  -0.0000000  -0.0000000  -0.0000000  -0.0000000  -0.0000000  -0.0000000  -0.0000000  -0.0000000
 NQMom=    0.0000000   0.0000000   0.0000000   0.0000000   0.0000000   0.0000000   0.0000000   0.0000000   0.0000000   0.0000000
 NMagM=    2.7928460   2.7928460   0.0000000   0.0000000   0.0000000   0.0000000   2.7928460   0.0000000   2.7928460   0.0000000
 AtZNuc=   1.0000000   1.0000000   6.0000000   6.0000000   6.0000000   6.0000000   1.0000000   6.0000000   1.0000000   6.0000000

  Atom        31          32          33          34          35
 IAtWgt=           1           1           1          16           1
 AtmWgt=   1.0078250   1.0078250   1.0078250  15.9949146   1.0078250
 NucSpn=           1           1           1           0           1
 AtZEff=  -0.0000000  -0.0000000  -0.0000000  -0.0000000  -0.0000000
 NQMom=    0.0000000   0.0000000   0.0000000   0.0000000   0.0000000
 NMagM=    2.7928460   2.7928460   2.7928460   0.0000000   2.7928460
 AtZNuc=   1.0000000   1.0000000   1.0000000   8.0000000   1.0000000
 Leave Link  101 at Sat May 25 04:16:14 2019, MaxMem=   104857600 cpu:               4.0 elap:               0.2
 (Enter /opt/software/gaussian/g16.b01/l202.exe)
                          Input orientation:                          
 ---------------------------------------------------------------------
 Center     Atomic      Atomic             Coordinates (Angstroms)
 Number     Number       Type             X           Y           Z
 ---------------------------------------------------------------------
      1          6           0       -0.630615   -1.341632   -0.628358
      2          6           0        0.679608   -1.306180    0.605360
      3          8           0       -1.146796   -2.521412   -0.342860
      4          6           0        0.091079   -1.335594   -1.992882
      5          1           0       -0.669023   -1.435259   -2.772572
      6          1           0        0.657775   -0.421892   -2.170146
      7          1           0        0.767990   -2.188040   -2.044793
      8          6           0       -0.002168   -1.380068    1.971837
      9          1           0       -0.693286   -0.555794    2.143880
     10          1           0       -0.562170   -2.313374    2.045821
     11          1           0        0.771186   -1.359995    2.744920
     12          6           0       -1.563627   -0.155599   -0.405352
     13          6           0       -2.741098   -0.347201    0.332425
     14          6           0       -1.298651    1.121842   -0.920808
     15          6           0       -3.625252    0.706727    0.558166
     16          1           0       -2.952217   -1.337671    0.719718
     17          6           0       -2.183615    2.178647   -0.698304
     18          1           0       -0.394713    1.305876   -1.489204
     19          6           0       -3.348611    1.976660    0.043919
     20          1           0       -4.531796    0.536970    1.132024
     21          1           0       -1.959068    3.160478   -1.104711
     22          1           0       -4.035683    2.799515    0.217918
     23          6           0        1.542563   -0.101453    0.390853
     24          6           0        2.699334   -0.190927   -0.405408
     25          6           0        1.222177    1.138250    0.972458
     26          6           0        3.512568    0.921976   -0.606354
     27          1           0        2.955426   -1.141995   -0.855206
     28          6           0        2.035403    2.250797    0.768074
     29          1           0        0.330579    1.242164    1.578152
     30          6           0        3.182930    2.148242   -0.022481
     31          1           0        4.404240    0.832437   -1.219368
     32          1           0        1.771237    3.199059    1.225845
     33          1           0        3.814799    3.016686   -0.182121
     34          8           0        1.413838   -2.462853    0.344692
     35          1           0        0.756232   -3.171984    0.236342
 ---------------------------------------------------------------------
                    Distance matrix (angstroms):
                    1          2          3          4          5
     1  C    0.000000
     2  C    1.800000   0.000000
     3  O    1.319027   2.389908   0.000000
     4  C    1.543634   2.664225   2.379301   0.000000
     5  H    2.146601   3.639491   2.703978   1.093437   0.000000
     6  H    2.209747   2.913053   3.317143   1.089687   1.774887
     7  H    2.163051   2.794423   2.583431   1.089756   1.778018
     8  C    2.675339   1.528901   2.823236   3.966065   4.791363
     9  H    2.882147   2.194302   3.202062   4.282069   4.994552
    10  H    2.846085   2.152064   2.467968   4.206413   4.898920
    11  H    3.652997   2.142195   3.816010   4.786430   5.702858
    12  C    1.525424   2.716151   2.403066   2.578893   2.835767
    13  C    2.523120   3.563055   2.779389   3.795418   3.888235
    14  C    2.569144   3.483962   3.691935   3.019881   3.219352
    15  C    3.817259   4.752456   4.168390   4.948741   4.941782
    16  H    2.684616   3.633761   2.406213   4.076745   4.173558
    17  C    3.848255   4.694849   4.826167   4.381787   4.433610
    18  H    2.793923   3.516277   4.065448   2.732590   3.039095
    19  C    4.341719   5.226739   5.022971   5.191440   5.172427
    20  H    4.674110   5.552775   4.794498   5.885789   5.835801
    21  H    4.718124   5.462416   5.789998   5.020619   5.056360
    22  H    5.427685   6.264249   6.080494   6.246353   6.181484
    23  C    2.701766   1.497355   3.691502   3.051574   4.083798
    24  C    3.530211   2.518876   4.497531   3.260879   4.300890
    25  C    3.485006   2.530688   4.553594   4.023994   4.921873
    26  C    4.721268   3.802446   5.799657   4.327317   5.266380
    27  H    3.598750   2.709162   4.358155   3.088085   4.110830
    28  C    4.686493   3.810084   5.842478   4.926000   5.782482
    29  H    3.531088   2.749946   4.476319   4.410723   5.205439
    30  C    5.204751   4.312057   6.376115   5.057582   5.936499
    31  H    5.515944   4.666497   6.544507   4.888971   5.769999
    32  H    5.461212   4.676947   6.610563   5.809149   6.589318
    33  H    6.241456   5.397844   7.437324   6.007270   6.828976
    34  O    2.526609   1.394609   2.651981   2.912843   3.887363
    35  H    2.453821   1.903489   2.092901   2.963814   3.755147
                    6          7          8          9         10
     6  H    0.000000
     7  H    1.774018   0.000000
     8  C    4.302284   4.168846   0.000000
     9  H    4.522623   4.727001   1.089344   0.000000
    10  H    4.779158   4.303273   1.090934   1.765190   0.000000
    11  H    5.005075   4.860763   1.093680   1.775575   1.781996
    12  C    2.849568   3.500717   3.096531   2.723276   3.415722
    13  C    4.221466   4.620990   3.355030   2.741973   3.398425
    14  C    2.787752   4.060747   4.038294   3.545877   4.598261
    15  C    5.202095   5.869893   4.413606   3.564390   4.551549
    16  H    4.714022   4.712281   3.205057   2.782506   2.902218
    17  C    4.123423   5.439941   4.955080   4.216190   5.507954
    18  H    2.134618   3.723977   4.398544   4.093197   5.061958
    19  C    5.167810   6.217222   5.116949   4.227755   5.493292
    20  H    6.225383   6.753190   4.989775   4.117298   4.971661
    21  H    4.562499   6.076779   5.823329   5.095707   6.468403
    22  H    6.173237   7.284974   6.067486   5.112636   6.445786
    23  C    2.728415   3.299421   2.553539   2.877247   3.472955
    24  C    2.708433   3.225854   3.789916   4.259327   4.598990
    25  C    3.553667   4.513789   2.973164   2.812652   4.031093
    26  C    3.521544   4.390218   4.929487   5.238015   5.839950
    27  H    2.743504   2.700778   4.098318   4.759333   4.707607
    28  C    4.204077   5.405722   4.334042   4.149161   5.404783
    29  H    4.114107   5.008329   2.672416   2.144994   3.695614
    30  C    4.194575   5.359573   5.154719   5.199037   6.181397
    31  H    4.063658   4.798637   5.873278   6.262858   6.724791
    32  H    5.087616   6.381568   4.966878   4.584276   6.041860
    33  H    5.073742   6.312033   6.208077   6.204492   7.247836
    34  O    3.325893   2.490438   2.413524   3.363618   2.611665
    35  H    3.655665   2.484323   2.607312   3.547429   2.397834
                   11         12         13         14         15
    11  H    0.000000
    12  C    4.101967   0.000000
    13  C    4.379729   1.402663   0.000000
    14  C    4.886850   1.402770   2.410256   0.000000
    15  C    5.327467   2.433572   1.394077   2.787966   0.000000
    16  H    4.238593   2.142722   1.084250   3.387449   2.158388
    17  C    5.754010   2.432881   2.784438   1.396247   2.413210
    18  H    5.137509   2.162638   3.399488   1.083534   3.871316
    19  C    5.949908   2.816832   2.419223   2.421518   1.397752
    20  H    5.858458   3.413679   2.151213   3.874199   1.086256
    21  H    6.535183   3.412015   3.870496   2.150816   3.400327
    22  H    6.840559   3.902848   3.404539   3.406263   2.159626
    23  C    2.778594   3.207069   4.291102   3.359971   5.233303
    24  C    3.874150   4.263107   5.492460   4.239444   6.460236
    25  C    3.096166   3.366468   4.280626   3.152665   4.884201
    26  C    4.894242   5.193200   6.449841   4.825625   7.235393
    27  H    4.216555   4.647277   5.873036   4.819381   6.980023
    28  C    4.306273   4.485609   5.454754   3.904200   5.871220
    29  H    2.885605   3.078319   3.676019   2.985577   4.120153
    30  C    5.077671   5.289998   6.437958   4.684555   6.983299
    31  H    5.807015   6.103628   7.406447   5.718029   8.224851
    32  H    4.908428   5.003584   5.808212   4.283359   5.981606
    33  H    6.081652   6.248255   7.386493   5.503041   7.825490
    34  O    2.718528   3.840740   4.662577   4.670024   5.956865
    35  H    3.094591   3.859028   4.496660   4.898825   5.860492
                   16         17         18         19         20
    16  H    0.000000
    17  C    3.868595   0.000000
    18  H    4.290513   2.141827   0.000000
    19  C    3.405675   1.396033   3.394986   0.000000
    20  H    2.485829   3.399876   4.957571   2.157917   0.000000
    21  H    4.954617   1.086085   2.456540   2.156758   4.301710
    22  H    4.306043   2.157567   4.289742   1.086017   2.490146
    23  C    4.673268   4.502169   3.044376   5.325645   6.152622
    24  C    5.875454   5.435426   3.603909   6.440339   7.428511
    25  C    4.860003   3.933610   2.949951   4.738905   5.787504
    26  C    6.975523   5.833882   4.024133   6.972158   8.239052
    27  H    6.117101   6.120541   4.197315   7.090509   7.926317
    28  C    6.144574   4.467167   3.448716   5.439408   6.796894
    29  H    4.262535   3.518583   3.152583   4.053368   4.933459
    30  C    7.095243   5.409017   3.957321   6.534132   7.965305
    31  H    7.911187   6.744155   4.829794   7.938000   9.244949
    32  H    6.568798   4.514914   3.955625   5.394817   6.842788
    33  H    8.097299   6.078629   4.728142   7.242043   8.805772
    34  O    4.524281   5.964313   4.564795   6.517719   6.705922
    35  H    4.165447   6.176206   4.934918   6.587511   6.520876
                   21         22         23         24         25
    21  H    0.000000
    22  H    2.488367   0.000000
    23  C    5.013813   6.289861   0.000000
    24  C    5.781146   7.395386   1.407180   0.000000
    25  C    4.303993   5.565449   1.406334   2.418102   0.000000
    26  C    5.932795   7.821807   2.433670   1.392940   2.790217
    27  H    6.536496   8.097080   2.152109   1.082789   3.397650
    28  C    4.504513   6.120608   2.432749   2.789244   1.393151
    29  H    4.014993   4.831131   2.164230   3.405769   1.082871
    30  C    5.351260   7.251918   2.814743   2.419134   2.419616
    31  H    6.776770   8.784503   3.413819   2.148606   3.875971
    32  H    4.398654   5.907273   3.412167   3.874836   2.147698
    33  H    5.848879   7.863667   3.900532   3.403366   3.403419
    34  O    6.715588   7.576666   2.365356   2.716026   3.660433
    35  H    7.019356   7.656474   3.173382   3.615825   4.397396
                   26         27         28         29         30
    26  C    0.000000
    27  H    2.152280   0.000000
    28  C    2.415954   3.872017   0.000000
    29  H    3.872937   4.300612   2.140092   0.000000
    30  C    1.397604   3.401595   1.397252   3.393952   0.000000
    31  H    1.085763   2.475895   3.401920   4.958700   2.157656
    32  H    3.402101   4.957603   1.085605   2.455413   2.157640
    33  H    2.158501   4.299557   2.157709   4.288039   1.085789
    34  O    4.094658   2.358159   4.773268   4.052410   4.952444
    35  H    5.006799   3.185716   5.596925   4.633178   5.853260
                   31         32         33         34         35
    31  H    0.000000
    32  H    4.302635   0.000000
    33  H    2.488828   2.488328   0.000000
    34  O    4.716749   5.741203   6.005622   0.000000
    35  H    5.609139   6.526832   6.915893   0.973166   0.000000
 Stoichiometry    C16H17O2(2)
 Framework group  C1[X(C16H17O2)]
 Deg. of freedom    99
 Full point group                 C1      NOp   1
 Largest Abelian subgroup         C1      NOp   1
 Largest concise Abelian subgroup C1      NOp   1
                         Standard orientation:                         
 ---------------------------------------------------------------------
 Center     Atomic      Atomic             Coordinates (Angstroms)
 Number     Number       Type             X           Y           Z
 ---------------------------------------------------------------------
      1          6           0        0.630615   -1.341632    0.628358
      2          6           0       -0.679608   -1.306180   -0.605360
      3          8           0        1.146796   -2.521412    0.342860
      4          6           0       -0.091079   -1.335594    1.992882
      5          1           0        0.669023   -1.435259    2.772572
      6          1           0       -0.657775   -0.421892    2.170146
      7          1           0       -0.767990   -2.188040    2.044793
      8          6           0        0.002168   -1.380068   -1.971837
      9          1           0        0.693286   -0.555794   -2.143880
     10          1           0        0.562170   -2.313374   -2.045821
     11          1           0       -0.771186   -1.359995   -2.744920
     12          6           0        1.563627   -0.155599    0.405352
     13          6           0        2.741098   -0.347201   -0.332425
     14          6           0        1.298651    1.121842    0.920808
     15          6           0        3.625252    0.706727   -0.558166
     16          1           0        2.952217   -1.337671   -0.719718
     17          6           0        2.183615    2.178647    0.698304
     18          1           0        0.394713    1.305876    1.489204
     19          6           0        3.348611    1.976660   -0.043919
     20          1           0        4.531796    0.536970   -1.132024
     21          1           0        1.959068    3.160478    1.104711
     22          1           0        4.035683    2.799515   -0.217918
     23          6           0       -1.542563   -0.101453   -0.390853
     24          6           0       -2.699334   -0.190927    0.405408
     25          6           0       -1.222177    1.138250   -0.972458
     26          6           0       -3.512568    0.921976    0.606354
     27          1           0       -2.955426   -1.141995    0.855206
     28          6           0       -2.035403    2.250797   -0.768074
     29          1           0       -0.330579    1.242164   -1.578152
     30          6           0       -3.182930    2.148242    0.022481
     31          1           0       -4.404240    0.832437    1.219368
     32          1           0       -1.771237    3.199059   -1.225845
     33          1           0       -3.814799    3.016686    0.182121
     34          8           0       -1.413838   -2.462853   -0.344692
     35          1           0       -0.756232   -3.171984   -0.236342
 ---------------------------------------------------------------------
 Rotational constants (GHZ):           0.6122706           0.3865590           0.2922008
 Leave Link  202 at Sat May 25 04:16:15 2019, MaxMem=   104857600 cpu:               3.6 elap:               0.2
 (Enter /opt/software/gaussian/g16.b01/l301.exe)
 Standard basis: 6-31G(d,p) (6D, 7F)
 Ernie: Thresh=  0.10000D-02 Tol=  0.10000D-05 Strict=F.
 There are   355 symmetry adapted cartesian basis functions of A   symmetry.
 There are   355 symmetry adapted basis functions of A   symmetry.
   355 basis functions,   623 primitive gaussians,   355 cartesian basis functions
    65 alpha electrons       64 beta electrons
       nuclear repulsion energy      1328.9165883238 Hartrees.
 IExCor=  402 DFT=T Ex+Corr=B3LYP ExCW=0 ScaHFX=  0.200000
 ScaDFX=  0.800000  0.720000  1.000000  0.810000 ScalE2=  1.000000  1.000000
 IRadAn=      5 IRanWt=     -1 IRanGd=            0 ICorTp=0 IEmpDi=131
 NAtoms=   35 NActive=   35 NUniq=   35 SFac= 1.00D+00 NAtFMM=   60 NAOKFM=F Big=F
 Integral buffers will be    131072 words long.
 Raffenetti 2 integral format.
 Two-electron integral symmetry is turned on.
 R6Disp:  Grimme-D3 Dispersion energy=       -0.0417839951 Hartrees.
 Nuclear repulsion after empirical dispersion term =     1328.8748043286 Hartrees.
 ------------------------------------------------------------------------------
 Polarizable Continuum Model (PCM)
 =================================
 Model                : PCM.
 Atomic radii         : UFF (Universal Force Field).
 Polarization charges : Total charges.
 Charge compensation  : None.
 Solution method      : On-the-fly selection.
 Cavity type          : Scaled VdW (van der Waals Surface) (Alpha=1.100).
 Cavity algorithm     : GePol (No added spheres)
                        Default sphere list used, NSphG=   35.
                        Lebedev-Laikov grids with approx.  5.0 points / Ang**2.
                        Smoothing algorithm: York/Karplus (Gamma=1.0000).
                        Polarization charges: spherical gaussians, with
                                              point-specific exponents (IZeta= 3).
                        Self-potential: point-specific (ISelfS= 7).
                        Self-field    : sphere-specific E.n sum rule (ISelfD= 2).
 Solvent              : Acetonitrile, Eps=  35.688000 Eps(inf)=   1.806874
 ------------------------------------------------------------------------------
 GePol: Number of generator spheres                  =      35
 GePol: Total number of spheres                      =      35
 GePol: Number of exposed spheres                    =      35 (100.00%)
 GePol: Number of points                             =    2410
 GePol: Average weight of points                     =       0.13
 GePol: Minimum weight of points                     =   0.17D-10
 GePol: Maximum weight of points                     =    0.20577
 GePol: Number of points with low weight             =     168
 GePol: Fraction of low-weight points (<1% of avg)   =       6.97%
 GePol: Cavity surface area                          =    306.580 Ang**2
 GePol: Cavity volume                                =    349.536 Ang**3
 Leave Link  301 at Sat May 25 04:16:15 2019, MaxMem=   104857600 cpu:               4.9 elap:               0.2
 (Enter /opt/software/gaussian/g16.b01/l302.exe)
 NPDir=0 NMtPBC=     1 NCelOv=     1 NCel=       1 NClECP=     1 NCelD=      1
         NCelK=      1 NCelE2=     1 NClLst=     1 CellRange=     0.0.
 One-electron integrals computed using PRISM.
 One-electron integral symmetry used in STVInt
 PrsmSu:  requested number of processors reduced to:  28 ShMem   1 Linda.
 NBasis=   355 RedAO= T EigKep=  4.51D-04  NBF=   355
 NBsUse=   355 1.00D-06 EigRej= -1.00D+00 NBFU=   355
 Precomputing XC quadrature grid using
 IXCGrd= 4 IRadAn=           5 IRanWt=          -1 IRanGd=           0 AccXCQ= 0.00D+00.
 Generated NRdTot=       0 NPtTot=           0 NUsed=           0 NTot=          32
 NSgBfM=   354   354   354   354   354 MxSgAt=    35 MxSgA2=    35.
 Leave Link  302 at Sat May 25 04:16:16 2019, MaxMem=   104857600 cpu:              16.5 elap:               0.6
 (Enter /opt/software/gaussian/g16.b01/l303.exe)
 DipDrv:  MaxL=1.
 Leave Link  303 at Sat May 25 04:16:16 2019, MaxMem=   104857600 cpu:               4.2 elap:               0.2
 (Enter /opt/software/gaussian/g16.b01/l308.exe)
 Leave Link  308 at Sat May 25 04:16:16 2019, MaxMem=   104857600 cpu:               2.6 elap:               0.1
 (Enter /opt/software/gaussian/g16.b01/l401.exe)
 ExpMin= 1.61D-01 ExpMax= 5.48D+03 ExpMxC= 8.25D+02 IAcc=3 IRadAn=         5 AccDes= 0.00D+00
 Harris functional with IExCor=  402 and IRadAn=       5 diagonalized for initial guess.
 HarFok:  IExCor=  402 AccDes= 0.00D+00 IRadAn=         5 IDoV= 1 UseB2=F ITyADJ=14
 ICtDFT=  3500011 ScaDFX=  1.000000  1.000000  1.000000  1.000000
 FoFCou: FMM=F IPFlag=           0 FMFlag=      100000 FMFlg1=           0
         NFxFlg=           0 DoJE=T BraDBF=F KetDBF=T FulRan=T
         wScrn=  0.000000 ICntrl=       500 IOpCl=  0 I1Cent=   200000004 NGrid=           0
         NMat0=    1 NMatS0=      1 NMatT0=    0 NMatD0=    1 NMtDS0=    0 NMtDT0=    0
 Petite list used in FoFCou.
 Harris En= -770.431414524651    
 JPrj=0 DoOrth=F DoCkMO=T.
 Mixing orbitals, IMix= 1 IMixAn=  0 NRI=1 NE=   65 Coef=  7.07106781D-01  7.07106781D-01
 Mixing orbitals, IMix= 1 IMixAn=  0 NRI=1 NE=   64 Coef= -7.07106781D-01  7.07106781D-01
 Initial guess <Sx>= 0.0000 <Sy>= 0.0000 <Sz>= 0.5000 <S**2>= 1.0000 S= 0.6180
 Leave Link  401 at Sat May 25 04:16:17 2019, MaxMem=   104857600 cpu:              28.1 elap:               1.0
 (Enter /opt/software/gaussian/g16.b01/l502.exe)
 Integral symmetry usage will be decided dynamically.
 UHF open shell SCF:
 Using DIIS extrapolation, IDIIS=  1040.
 NGot=   104857600 LenX=   104590331 LenY=   104463865
 Requested convergence on RMS density matrix=1.00D-08 within 128 cycles.
 Requested convergence on MAX density matrix=1.00D-06.
 Requested convergence on             energy=1.00D-06.
 No special actions if energy rises.
 Fock matrices will be formed incrementally for  20 cycles.

 Cycle   1  Pass 1  IDiag  1:
 FoFJK:  IHMeth= 1 ICntrl=       0 DoSepK=F KAlg= 0 I1Cent=           0 FoldK=F
 IRaf= 840000000 NMat=       1 IRICut=       1 DoRegI=T DoRafI=F ISym2E= 0 IDoP0=0 IntGTp=1.
 FoFCou: FMM=F IPFlag=           0 FMFlag=      100000 FMFlg1=           0
         NFxFlg=           0 DoJE=F BraDBF=F KetDBF=F FulRan=T
         wScrn=  0.000000 ICntrl=         0 IOpCl=  1 I1Cent=           0 NGrid=           0
         NMat0=    1 NMatS0=      1 NMatT0=    0 NMatD0=    1 NMtDS0=    0 NMtDT0=    0
 Symmetry not used in FoFCou.
 Inv3:  Mode=1 IEnd=    17424300.
 Iteration    1 A*A^-1 deviation from unit magnitude is 3.89D-15 for     90.
 Iteration    1 A*A^-1 deviation from orthogonality  is 1.89D-15 for   2254   1011.
 Iteration    1 A^-1*A deviation from unit magnitude is 3.89D-15 for     90.
 Iteration    1 A^-1*A deviation from orthogonality  is 4.05D-15 for   2089   2052.
 E= -769.848928121669    
 DIIS: error= 2.52D-02 at cycle   1 NSaved=   1.
 NSaved= 1 IEnMin= 1 EnMin= -769.848928121669     IErMin= 1 ErrMin= 2.52D-02
 ErrMax= 2.52D-02  0.00D+00 EMaxC= 1.00D-01 BMatC= 1.75D+00 BMatP= 1.75D+00
 IDIUse=3 WtCom= 7.48D-01 WtEn= 2.52D-01
 Coeff-Com:  0.100D+01
 Coeff-En:   0.100D+01
 Coeff:      0.100D+01
 Gap=     0.026 Goal=   None    Shift=    0.000
 Gap=     0.040 Goal=   None    Shift=    0.000
 GapD=    0.026 DampG=0.250 DampE=0.500 DampFc=0.2500 IDamp=-1.
 Damping current iteration by 2.50D-01
 RMSDP=4.20D-03 MaxDP=1.24D-01              OVMax= 5.90D-01

 Cycle   2  Pass 1  IDiag  1:
 RMSU=  1.03D-03    CP:  9.87D-01
 E= -770.024447794847     Delta-E=       -0.175519673177 Rises=F Damp=T
 DIIS: error= 1.50D-02 at cycle   2 NSaved=   2.
 NSaved= 2 IEnMin= 2 EnMin= -770.024447794847     IErMin= 2 ErrMin= 1.50D-02
 ErrMax= 1.50D-02  0.00D+00 EMaxC= 1.00D-01 BMatC= 4.82D-01 BMatP= 1.75D+00
 IDIUse=3 WtCom= 8.50D-01 WtEn= 1.50D-01
 Coeff-Com: -0.849D+00 0.185D+01
 Coeff-En:   0.000D+00 0.100D+01
 Coeff:     -0.722D+00 0.172D+01
 Gap=     0.194 Goal=   None    Shift=    0.000
 Gap=     0.076 Goal=   None    Shift=    0.000
 RMSDP=2.20D-03 MaxDP=8.46D-02 DE=-1.76D-01 OVMax= 4.41D-01

 Cycle   3  Pass 1  IDiag  1:
 RMSU=  1.78D-03    CP:  9.60D-01  2.17D+00
 E= -770.336869904471     Delta-E=       -0.312422109624 Rises=F Damp=F
 DIIS: error= 8.91D-03 at cycle   3 NSaved=   3.
 NSaved= 3 IEnMin= 3 EnMin= -770.336869904471     IErMin= 3 ErrMin= 8.91D-03
 ErrMax= 8.91D-03  0.00D+00 EMaxC= 1.00D-01 BMatC= 1.85D-01 BMatP= 4.82D-01
 IDIUse=3 WtCom= 9.11D-01 WtEn= 8.91D-02
 Coeff-Com: -0.480D+00 0.102D+01 0.462D+00
 Coeff-En:   0.000D+00 0.000D+00 0.100D+01
 Coeff:     -0.438D+00 0.928D+00 0.510D+00
 Gap=     0.199 Goal=   None    Shift=    0.000
 Gap=     0.075 Goal=   None    Shift=    0.000
 RMSDP=1.12D-03 MaxDP=7.45D-02 DE=-3.12D-01 OVMax= 1.41D-01

 Cycle   4  Pass 1  IDiag  1:
 RMSU=  8.97D-04    CP:  9.61D-01  2.28D+00  6.34D-01
 E= -770.376761298129     Delta-E=       -0.039891393658 Rises=F Damp=F
 DIIS: error= 5.71D-03 at cycle   4 NSaved=   4.
 NSaved= 4 IEnMin= 4 EnMin= -770.376761298129     IErMin= 4 ErrMin= 5.71D-03
 ErrMax= 5.71D-03  0.00D+00 EMaxC= 1.00D-01 BMatC= 4.03D-02 BMatP= 1.85D-01
 IDIUse=3 WtCom= 9.43D-01 WtEn= 5.71D-02
 Coeff-Com: -0.111D+00 0.226D+00 0.311D+00 0.573D+00
 Coeff-En:   0.000D+00 0.000D+00 0.160D+00 0.840D+00
 Coeff:     -0.104D+00 0.214D+00 0.302D+00 0.588D+00
 Gap=     0.193 Goal=   None    Shift=    0.000
 Gap=     0.083 Goal=   None    Shift=    0.000
 RMSDP=4.74D-04 MaxDP=4.75D-02 DE=-3.99D-02 OVMax= 1.03D-01

 Cycle   5  Pass 1  IDiag  1:
 RMSU=  3.51D-04    CP:  9.60D-01  2.27D+00  7.92D-01  8.41D-01
 E= -770.387746895622     Delta-E=       -0.010985597493 Rises=F Damp=F
 DIIS: error= 3.15D-03 at cycle   5 NSaved=   5.
 NSaved= 5 IEnMin= 5 EnMin= -770.387746895622     IErMin= 5 ErrMin= 3.15D-03
 ErrMax= 3.15D-03  0.00D+00 EMaxC= 1.00D-01 BMatC= 1.17D-02 BMatP= 4.03D-02
 IDIUse=3 WtCom= 9.68D-01 WtEn= 3.15D-02
 Coeff-Com: -0.212D-01 0.403D-01 0.134D+00 0.411D+00 0.437D+00
 Coeff-En:   0.000D+00 0.000D+00 0.000D+00 0.263D-01 0.974D+00
 Coeff:     -0.205D-01 0.390D-01 0.130D+00 0.398D+00 0.453D+00
 Gap=     0.200 Goal=   None    Shift=    0.000
 Gap=     0.087 Goal=   None    Shift=    0.000
 RMSDP=2.26D-04 MaxDP=2.28D-02 DE=-1.10D-02 OVMax= 6.21D-02

 Cycle   6  Pass 1  IDiag  1:
 RMSU=  2.04D-04    CP:  9.59D-01  2.28D+00  7.91D-01  9.44D-01  9.92D-01
 E= -770.390955342969     Delta-E=       -0.003208447347 Rises=F Damp=F
 DIIS: error= 9.15D-04 at cycle   6 NSaved=   6.
 NSaved= 6 IEnMin= 6 EnMin= -770.390955342969     IErMin= 6 ErrMin= 9.15D-04
 ErrMax= 9.15D-04  0.00D+00 EMaxC= 1.00D-01 BMatC= 1.42D-03 BMatP= 1.17D-02
 IDIUse=3 WtCom= 9.91D-01 WtEn= 9.15D-03
 Coeff-Com: -0.168D-02-0.362D-02-0.275D-01 0.610D-01 0.220D+00 0.752D+00
 Coeff-En:   0.000D+00 0.000D+00 0.000D+00 0.000D+00 0.000D+00 0.100D+01
 Coeff:     -0.167D-02-0.359D-02-0.272D-01 0.605D-01 0.218D+00 0.754D+00
 Gap=     0.204 Goal=   None    Shift=    0.000
 Gap=     0.093 Goal=   None    Shift=    0.000
 RMSDP=1.89D-04 MaxDP=2.41D-02 DE=-3.21D-03 OVMax= 4.59D-02

 Cycle   7  Pass 1  IDiag  1:
 RMSU=  1.07D-04    CP:  9.58D-01  2.30D+00  7.84D-01  1.04D+00  1.33D+00
                    CP:  1.26D+00
 E= -770.392399746014     Delta-E=       -0.001444403044 Rises=F Damp=F
 DIIS: error= 6.18D-04 at cycle   7 NSaved=   7.
 NSaved= 7 IEnMin= 7 EnMin= -770.392399746014     IErMin= 7 ErrMin= 6.18D-04
 ErrMax= 6.18D-04  0.00D+00 EMaxC= 1.00D-01 BMatC= 7.90D-04 BMatP= 1.42D-03
 IDIUse=3 WtCom= 9.94D-01 WtEn= 6.18D-03
 Coeff-Com: -0.164D-02 0.294D-03-0.483D-01-0.510D-01-0.257D-01 0.477D+00
 Coeff-Com:  0.649D+00
 Coeff-En:   0.000D+00 0.000D+00 0.000D+00 0.000D+00 0.000D+00 0.000D+00
 Coeff-En:   0.100D+01
 Coeff:     -0.163D-02 0.292D-03-0.480D-01-0.507D-01-0.255D-01 0.474D+00
 Coeff:      0.651D+00
 Gap=     0.207 Goal=   None    Shift=    0.000
 Gap=     0.098 Goal=   None    Shift=    0.000
 RMSDP=1.40D-04 MaxDP=1.59D-02 DE=-1.44D-03 OVMax= 3.65D-02

 Cycle   8  Pass 1  IDiag  1:
 RMSU=  5.64D-05    CP:  9.58D-01  2.31D+00  7.75D-01  1.09D+00  1.51D+00
                    CP:  1.69D+00  1.38D+00
 E= -770.393224725651     Delta-E=       -0.000824979637 Rises=F Damp=F
 DIIS: error= 4.66D-04 at cycle   8 NSaved=   8.
 NSaved= 8 IEnMin= 8 EnMin= -770.393224725651     IErMin= 8 ErrMin= 4.66D-04
 ErrMax= 4.66D-04  0.00D+00 EMaxC= 1.00D-01 BMatC= 2.43D-04 BMatP= 7.90D-04
 IDIUse=3 WtCom= 9.95D-01 WtEn= 4.66D-03
 Coeff-Com: -0.444D-02 0.111D-01 0.269D-03-0.150D-01-0.136D+00-0.942D-01
 Coeff-Com:  0.262D+00 0.976D+00
 Coeff-En:   0.000D+00 0.000D+00 0.000D+00 0.000D+00 0.000D+00 0.000D+00
 Coeff-En:   0.000D+00 0.100D+01
 Coeff:     -0.442D-02 0.111D-01 0.267D-03-0.149D-01-0.136D+00-0.937D-01
 Coeff:      0.261D+00 0.976D+00
 Gap=     0.207 Goal=   None    Shift=    0.000
 Gap=     0.101 Goal=   None    Shift=    0.000
 RMSDP=1.55D-04 MaxDP=1.96D-02 DE=-8.25D-04 OVMax= 4.87D-02

 Cycle   9  Pass 1  IDiag  1:
 RMSU=  3.58D-05    CP:  9.57D-01  2.32D+00  7.61D-01  1.14D+00  1.68D+00
                    CP:  2.13D+00  2.16D+00  1.69D+00
 E= -770.393872895361     Delta-E=       -0.000648169709 Rises=F Damp=F
 DIIS: error= 3.46D-04 at cycle   9 NSaved=   9.
 NSaved= 9 IEnMin= 9 EnMin= -770.393872895361     IErMin= 9 ErrMin= 3.46D-04
 ErrMax= 3.46D-04  0.00D+00 EMaxC= 1.00D-01 BMatC= 1.04D-04 BMatP= 2.43D-04
 IDIUse=3 WtCom= 9.97D-01 WtEn= 3.46D-03
 Coeff-Com:  0.129D-02 0.422D-03 0.257D-01 0.418D-01-0.158D-01-0.157D+00
 Coeff-Com: -0.273D+00 0.196D+00 0.118D+01
 Coeff-En:   0.000D+00 0.000D+00 0.000D+00 0.000D+00 0.000D+00 0.000D+00
 Coeff-En:   0.000D+00 0.000D+00 0.100D+01
 Coeff:      0.129D-02 0.421D-03 0.257D-01 0.416D-01-0.157D-01-0.156D+00
 Coeff:     -0.272D+00 0.196D+00 0.118D+01
 Gap=     0.208 Goal=   None    Shift=    0.000
 Gap=     0.102 Goal=   None    Shift=    0.000
 RMSDP=1.37D-04 MaxDP=1.68D-02 DE=-6.48D-04 OVMax= 4.44D-02

 Cycle  10  Pass 1  IDiag  1:
 RMSU=  2.12D-05    CP:  9.57D-01  2.33D+00  7.46D-01  1.17D+00  1.79D+00
                    CP:  2.50D+00  2.83D+00  2.70D+00  1.87D+00
 E= -770.394265830794     Delta-E=       -0.000392935434 Rises=F Damp=F
 DIIS: error= 2.38D-04 at cycle  10 NSaved=  10.
 NSaved=10 IEnMin=10 EnMin= -770.394265830794     IErMin=10 ErrMin= 2.38D-04
 ErrMax= 2.38D-04  0.00D+00 EMaxC= 1.00D-01 BMatC= 4.88D-05 BMatP= 1.04D-04
 IDIUse=3 WtCom= 9.98D-01 WtEn= 2.38D-03
 Coeff-Com:  0.324D-02-0.533D-02 0.196D-01 0.444D-01 0.757D-01-0.367D-01
 Coeff-Com: -0.342D+00-0.442D+00 0.712D+00 0.971D+00
 Coeff-En:   0.000D+00 0.000D+00 0.000D+00 0.000D+00 0.000D+00 0.000D+00
 Coeff-En:   0.000D+00 0.000D+00 0.000D+00 0.100D+01
 Coeff:      0.323D-02-0.531D-02 0.195D-01 0.442D-01 0.755D-01-0.366D-01
 Coeff:     -0.341D+00-0.441D+00 0.710D+00 0.971D+00
 Gap=     0.208 Goal=   None    Shift=    0.000
 Gap=     0.104 Goal=   None    Shift=    0.000
 RMSDP=1.23D-04 MaxDP=1.44D-02 DE=-3.93D-04 OVMax= 3.87D-02

 Cycle  11  Pass 1  IDiag  1:
 RMSU=  6.21D-05    CP:  9.56D-01  2.34D+00  7.32D-01  1.20D+00  1.87D+00
                    CP:  2.81D+00  3.00D+00  3.00D+00  2.94D+00  1.55D+00
 E= -770.394478293465     Delta-E=       -0.000212462671 Rises=F Damp=F
 DIIS: error= 1.35D-04 at cycle  11 NSaved=  11.
 NSaved=11 IEnMin=11 EnMin= -770.394478293465     IErMin=11 ErrMin= 1.35D-04
 ErrMax= 1.35D-04  0.00D+00 EMaxC= 1.00D-01 BMatC= 1.18D-05 BMatP= 4.88D-05
 IDIUse=3 WtCom= 9.99D-01 WtEn= 1.35D-03
 Coeff-Com: -0.209D-03-0.419D-03-0.457D-02-0.217D-02 0.294D-01 0.554D-01
 Coeff-Com:  0.187D-01-0.174D+00-0.347D+00 0.241D+00 0.118D+01
 Coeff-En:   0.000D+00 0.000D+00 0.000D+00 0.000D+00 0.000D+00 0.000D+00
 Coeff-En:   0.000D+00 0.000D+00 0.000D+00 0.000D+00 0.100D+01
 Coeff:     -0.209D-03-0.419D-03-0.456D-02-0.216D-02 0.293D-01 0.553D-01
 Coeff:      0.187D-01-0.174D+00-0.346D+00 0.240D+00 0.118D+01
 Gap=     0.208 Goal=   None    Shift=    0.000
 Gap=     0.104 Goal=   None    Shift=    0.000
 RMSDP=8.16D-05 MaxDP=9.02D-03 DE=-2.12D-04 OVMax= 2.13D-02

 Cycle  12  Pass 1  IDiag  1:
 RMSU=  2.75D-05    CP:  9.56D-01  2.35D+00  7.22D-01  1.22D+00  1.91D+00
                    CP:  3.00D+00  3.00D+00  3.00D+00  3.00D+00  2.33D+00
                    CP:  1.89D+00
 E= -770.394544004438     Delta-E=       -0.000065710973 Rises=F Damp=F
 DIIS: error= 5.53D-05 at cycle  12 NSaved=  12.
 NSaved=12 IEnMin=12 EnMin= -770.394544004438     IErMin=12 ErrMin= 5.53D-05
 ErrMax= 5.53D-05  0.00D+00 EMaxC= 1.00D-01 BMatC= 5.31D-06 BMatP= 1.18D-05
 IDIUse=1 WtCom= 1.00D+00 WtEn= 0.00D+00
 Coeff-Com: -0.786D-03 0.823D-03-0.766D-02-0.115D-01 0.150D-02 0.451D-01
 Coeff-Com:  0.941D-01 0.271D-02-0.405D+00-0.891D-01 0.712D+00 0.659D+00
 Coeff:     -0.786D-03 0.823D-03-0.766D-02-0.115D-01 0.150D-02 0.451D-01
 Coeff:      0.941D-01 0.271D-02-0.405D+00-0.891D-01 0.712D+00 0.659D+00
 Gap=     0.208 Goal=   None    Shift=    0.000
 Gap=     0.104 Goal=   None    Shift=    0.000
 RMSDP=2.93D-05 MaxDP=3.10D-03 DE=-6.57D-05 OVMax= 7.10D-03

 Cycle  13  Pass 1  IDiag  1:
 RMSU=  1.50D-05    CP:  9.56D-01  2.35D+00  7.18D-01  1.22D+00  1.93D+00
                    CP:  3.00D+00  3.00D+00  3.00D+00  3.00D+00  2.64D+00
                    CP:  2.21D+00  1.36D+00
 E= -770.394554027269     Delta-E=       -0.000010022830 Rises=F Damp=F
 DIIS: error= 2.24D-05 at cycle  13 NSaved=  13.
 NSaved=13 IEnMin=13 EnMin= -770.394554027269     IErMin=13 ErrMin= 2.24D-05
 ErrMax= 2.24D-05  0.00D+00 EMaxC= 1.00D-01 BMatC= 7.72D-07 BMatP= 5.31D-06
 IDIUse=1 WtCom= 1.00D+00 WtEn= 0.00D+00
 Coeff-Com: -0.241D-03 0.454D-03-0.185D-02-0.395D-02-0.622D-02 0.359D-02
 Coeff-Com:  0.368D-01 0.567D-01-0.837D-01-0.111D+00-0.615D-01 0.261D+00
 Coeff-Com:  0.910D+00
 Coeff:     -0.241D-03 0.454D-03-0.185D-02-0.395D-02-0.622D-02 0.359D-02
 Coeff:      0.368D-01 0.567D-01-0.837D-01-0.111D+00-0.615D-01 0.261D+00
 Coeff:      0.910D+00
 Gap=     0.208 Goal=   None    Shift=    0.000
 Gap=     0.104 Goal=   None    Shift=    0.000
 RMSDP=1.38D-05 MaxDP=1.40D-03 DE=-1.00D-05 OVMax= 3.71D-03

 Cycle  14  Pass 1  IDiag  1:
 RMSU=  3.08D-06    CP:  9.56D-01  2.35D+00  7.16D-01  1.22D+00  1.93D+00
                    CP:  3.00D+00  3.00D+00  3.00D+00  3.00D+00  2.83D+00
                    CP:  2.36D+00  1.56D+00  1.40D+00
 E= -770.394555713388     Delta-E=       -0.000001686120 Rises=F Damp=F
 DIIS: error= 8.59D-06 at cycle  14 NSaved=  14.
 NSaved=14 IEnMin=14 EnMin= -770.394555713388     IErMin=14 ErrMin= 8.59D-06
 ErrMax= 8.59D-06  0.00D+00 EMaxC= 1.00D-01 BMatC= 3.12D-07 BMatP= 7.72D-07
 IDIUse=1 WtCom= 1.00D+00 WtEn= 0.00D+00
 Coeff-Com: -0.424D-04 0.172D-03 0.138D-03-0.654D-03-0.194D-02-0.557D-02
 Coeff-Com:  0.732D-02 0.279D-01 0.583D-02-0.444D-01-0.119D+00 0.492D-01
 Coeff-Com:  0.482D+00 0.599D+00
 Coeff:     -0.424D-04 0.172D-03 0.138D-03-0.654D-03-0.194D-02-0.557D-02
 Coeff:      0.732D-02 0.279D-01 0.583D-02-0.444D-01-0.119D+00 0.492D-01
 Coeff:      0.482D+00 0.599D+00
 Gap=     0.208 Goal=   None    Shift=    0.000
 Gap=     0.104 Goal=   None    Shift=    0.000
 RMSDP=2.81D-06 MaxDP=2.55D-04 DE=-1.69D-06 OVMax= 7.56D-04

 Cycle  15  Pass 1  IDiag  1:
 RMSU=  8.91D-07    CP:  9.56D-01  2.35D+00  7.16D-01  1.22D+00  1.93D+00
                    CP:  3.00D+00  3.00D+00  3.00D+00  3.00D+00  2.86D+00
                    CP:  2.39D+00  1.59D+00  1.48D+00  1.02D+00
 E= -770.394555868803     Delta-E=       -0.000000155414 Rises=F Damp=F
 DIIS: error= 5.24D-06 at cycle  15 NSaved=  15.
 NSaved=15 IEnMin=15 EnMin= -770.394555868803     IErMin=15 ErrMin= 5.24D-06
 ErrMax= 5.24D-06  0.00D+00 EMaxC= 1.00D-01 BMatC= 4.87D-08 BMatP= 3.12D-07
 IDIUse=1 WtCom= 1.00D+00 WtEn= 0.00D+00
 Coeff-Com:  0.411D-04-0.380D-04 0.312D-03 0.101D-03 0.108D-02-0.379D-02
 Coeff-Com: -0.254D-02-0.832D-04 0.123D-01 0.121D-02-0.274D-01-0.207D-01
 Coeff-Com:  0.150D-01 0.221D+00 0.804D+00
 Coeff:      0.411D-04-0.380D-04 0.312D-03 0.101D-03 0.108D-02-0.379D-02
 Coeff:     -0.254D-02-0.832D-04 0.123D-01 0.121D-02-0.274D-01-0.207D-01
 Coeff:      0.150D-01 0.221D+00 0.804D+00
 Gap=     0.208 Goal=   None    Shift=    0.000
 Gap=     0.104 Goal=   None    Shift=    0.000
 RMSDP=1.82D-06 MaxDP=2.00D-04 DE=-1.55D-07 OVMax= 4.51D-04

 Cycle  16  Pass 1  IDiag  1:
 RMSU=  4.08D-07    CP:  9.56D-01  2.35D+00  7.16D-01  1.22D+00  1.94D+00
                    CP:  3.00D+00  3.00D+00  3.00D+00  3.00D+00  2.88D+00
                    CP:  2.41D+00  1.61D+00  1.52D+00  1.08D+00  9.66D-01
 E= -770.394555900299     Delta-E=       -0.000000031496 Rises=F Damp=F
 DIIS: error= 1.12D-06 at cycle  16 NSaved=  16.
 NSaved=16 IEnMin=16 EnMin= -770.394555900299     IErMin=16 ErrMin= 1.12D-06
 ErrMax= 1.12D-06  0.00D+00 EMaxC= 1.00D-01 BMatC= 2.43D-09 BMatP= 4.87D-08
 IDIUse=1 WtCom= 1.00D+00 WtEn= 0.00D+00
 Coeff-Com:  0.464D-05-0.118D-04 0.634D-04 0.178D-03 0.424D-03 0.681D-06
 Coeff-Com: -0.124D-02-0.300D-02 0.238D-02 0.421D-02 0.496D-02-0.848D-02
 Coeff-Com: -0.473D-01-0.292D-01 0.177D+00 0.900D+00
 Coeff:      0.464D-05-0.118D-04 0.634D-04 0.178D-03 0.424D-03 0.681D-06
 Coeff:     -0.124D-02-0.300D-02 0.238D-02 0.421D-02 0.496D-02-0.848D-02
 Coeff:     -0.473D-01-0.292D-01 0.177D+00 0.900D+00
 Gap=     0.208 Goal=   None    Shift=    0.000
 Gap=     0.104 Goal=   None    Shift=    0.000
 RMSDP=3.11D-07 MaxDP=2.73D-05 DE=-3.15D-08 OVMax= 8.47D-05

 Cycle  17  Pass 1  IDiag  1:
 RMSU=  1.44D-07    CP:  9.56D-01  2.35D+00  7.16D-01  1.22D+00  1.94D+00
                    CP:  3.00D+00  3.00D+00  3.00D+00  3.00D+00  2.88D+00
                    CP:  2.41D+00  1.62D+00  1.53D+00  1.11D+00  1.07D+00
                    CP:  1.02D+00
 E= -770.394555902464     Delta-E=       -0.000000002165 Rises=F Damp=F
 DIIS: error= 6.33D-07 at cycle  17 NSaved=  17.
 NSaved=17 IEnMin=17 EnMin= -770.394555902464     IErMin=17 ErrMin= 6.33D-07
 ErrMax= 6.33D-07  0.00D+00 EMaxC= 1.00D-01 BMatC= 8.68D-10 BMatP= 2.43D-09
 IDIUse=1 WtCom= 1.00D+00 WtEn= 0.00D+00
 Coeff-Com: -0.404D-05 0.172D-05-0.906D-05 0.497D-04 0.505D-04 0.337D-03
 Coeff-Com: -0.262D-03-0.120D-02 0.169D-04 0.183D-02 0.512D-02-0.213D-02
 Coeff-Com: -0.253D-01-0.382D-01-0.793D-02 0.404D+00 0.664D+00
 Coeff:     -0.404D-05 0.172D-05-0.906D-05 0.497D-04 0.505D-04 0.337D-03
 Coeff:     -0.262D-03-0.120D-02 0.169D-04 0.183D-02 0.512D-02-0.213D-02
 Coeff:     -0.253D-01-0.382D-01-0.793D-02 0.404D+00 0.664D+00
 Gap=     0.208 Goal=   None    Shift=    0.000
 Gap=     0.104 Goal=   None    Shift=    0.000
 RMSDP=8.18D-08 MaxDP=5.28D-06 DE=-2.17D-09 OVMax= 1.14D-05

 Cycle  18  Pass 1  IDiag  1:
 RMSU=  6.26D-08    CP:  9.56D-01  2.35D+00  7.16D-01  1.22D+00  1.94D+00
                    CP:  3.00D+00  3.00D+00  3.00D+00  3.00D+00  2.88D+00
                    CP:  2.41D+00  1.62D+00  1.53D+00  1.12D+00  1.11D+00
                    CP:  1.08D+00  1.13D+00
 E= -770.394555902890     Delta-E=       -0.000000000425 Rises=F Damp=F
 DIIS: error= 3.73D-07 at cycle  18 NSaved=  18.
 NSaved=18 IEnMin=18 EnMin= -770.394555902890     IErMin=18 ErrMin= 3.73D-07
 ErrMax= 3.73D-07  0.00D+00 EMaxC= 1.00D-01 BMatC= 2.60D-10 BMatP= 8.68D-10
 IDIUse=1 WtCom= 1.00D+00 WtEn= 0.00D+00
 Coeff-Com: -0.461D-05 0.643D-05-0.223D-04-0.333D-04-0.661D-04 0.151D-03
 Coeff-Com:  0.271D-03 0.300D-03-0.736D-03-0.385D-03 0.122D-02 0.142D-02
 Coeff-Com:  0.981D-03-0.108D-01-0.610D-01-0.819D-01 0.300D+00 0.850D+00
 Coeff:     -0.461D-05 0.643D-05-0.223D-04-0.333D-04-0.661D-04 0.151D-03
 Coeff:      0.271D-03 0.300D-03-0.736D-03-0.385D-03 0.122D-02 0.142D-02
 Coeff:      0.981D-03-0.108D-01-0.610D-01-0.819D-01 0.300D+00 0.850D+00
 Gap=     0.208 Goal=   None    Shift=    0.000
 Gap=     0.104 Goal=   None    Shift=    0.000
 RMSDP=6.01D-08 MaxDP=3.43D-06 DE=-4.25D-10 OVMax= 9.04D-06

 Cycle  19  Pass 1  IDiag  1:
 RMSU=  3.20D-08    CP:  9.56D-01  2.35D+00  7.16D-01  1.22D+00  1.94D+00
                    CP:  3.00D+00  3.00D+00  3.00D+00  3.00D+00  2.88D+00
                    CP:  2.41D+00  1.62D+00  1.53D+00  1.12D+00  1.13D+00
                    CP:  1.11D+00  1.41D+00  1.12D+00
 E= -770.394555903063     Delta-E=       -0.000000000174 Rises=F Damp=F
 DIIS: error= 2.32D-07 at cycle  19 NSaved=  19.
 NSaved=19 IEnMin=19 EnMin= -770.394555903063     IErMin=19 ErrMin= 2.32D-07
 ErrMax= 2.32D-07  0.00D+00 EMaxC= 1.00D-01 BMatC= 7.94D-11 BMatP= 2.60D-10
 IDIUse=1 WtCom= 1.00D+00 WtEn= 0.00D+00
 Coeff-Com: -0.157D-05 0.283D-05-0.116D-04-0.344D-04-0.313D-04 0.196D-04
 Coeff-Com:  0.217D-03 0.331D-03-0.546D-03-0.523D-03 0.187D-03 0.138D-02
 Coeff-Com:  0.471D-02 0.165D-04-0.329D-01-0.113D+00 0.283D-01 0.431D+00
 Coeff-Com:  0.681D+00
 Coeff:     -0.157D-05 0.283D-05-0.116D-04-0.344D-04-0.313D-04 0.196D-04
 Coeff:      0.217D-03 0.331D-03-0.546D-03-0.523D-03 0.187D-03 0.138D-02
 Coeff:      0.471D-02 0.165D-04-0.329D-01-0.113D+00 0.283D-01 0.431D+00
 Coeff:      0.681D+00
 Gap=     0.208 Goal=   None    Shift=    0.000
 Gap=     0.104 Goal=   None    Shift=    0.000
 RMSDP=2.69D-08 MaxDP=1.74D-06 DE=-1.74D-10 OVMax= 4.50D-06

 Cycle  20  Pass 1  IDiag  1:
 RMSU=  1.72D-08    CP:  9.56D-01  2.35D+00  7.16D-01  1.22D+00  1.94D+00
                    CP:  3.00D+00  3.00D+00  3.00D+00  3.00D+00  2.88D+00
                    CP:  2.41D+00  1.62D+00  1.53D+00  1.12D+00  1.14D+00
                    CP:  1.13D+00  1.48D+00  1.34D+00  1.07D+00
 E= -770.394555903111     Delta-E=       -0.000000000048 Rises=F Damp=F
 DIIS: error= 1.46D-07 at cycle  20 NSaved=  20.
 NSaved=20 IEnMin=20 EnMin= -770.394555903111     IErMin=20 ErrMin= 1.46D-07
 ErrMax= 1.46D-07  0.00D+00 EMaxC= 1.00D-01 BMatC= 1.88D-11 BMatP= 7.94D-11
 IDIUse=1 WtCom= 1.00D+00 WtEn= 0.00D+00
 Coeff-Com:  0.103D-05-0.114D-05 0.557D-06-0.101D-04-0.639D-05-0.372D-04
 Coeff-Com:  0.516D-04 0.130D-03-0.570D-04-0.236D-03-0.394D-03 0.370D-03
 Coeff-Com:  0.266D-02 0.348D-02 0.162D-02-0.285D-01-0.787D-01-0.612D-01
 Coeff-Com:  0.337D+00 0.824D+00
 Coeff:      0.103D-05-0.114D-05 0.557D-06-0.101D-04-0.639D-05-0.372D-04
 Coeff:      0.516D-04 0.130D-03-0.570D-04-0.236D-03-0.394D-03 0.370D-03
 Coeff:      0.266D-02 0.348D-02 0.162D-02-0.285D-01-0.787D-01-0.612D-01
 Coeff:      0.337D+00 0.824D+00
 Gap=     0.208 Goal=   None    Shift=    0.000
 Gap=     0.104 Goal=   None    Shift=    0.000
 RMSDP=1.87D-08 MaxDP=1.08D-06 DE=-4.77D-11 OVMax= 3.05D-06

 Cycle  21  Pass 1  IDiag  1:
 Restarting incremental Fock formation.
 E= -770.394555903134     Delta-E=       -0.000000000023 Rises=F Damp=F
 DIIS: error= 7.96D-08 at cycle  21 NSaved=  20.
 NSaved=20 IEnMin=20 EnMin= -770.394555903134     IErMin=20 ErrMin= 7.96D-08
 ErrMax= 7.96D-08  0.00D+00 EMaxC= 1.00D-01 BMatC= 6.51D-12 BMatP= 1.88D-11
 IDIUse=1 WtCom= 1.00D+00 WtEn= 0.00D+00
 Coeff-Com:  0.420D-06 0.435D-05 0.108D-04-0.681D-05-0.894D-05-0.487D-04
 Coeff-Com: -0.305D-04 0.173D-03 0.248D-04-0.386D-03-0.330D-03-0.163D-03
 Coeff-Com:  0.148D-02 0.115D-01 0.294D-01-0.223D-01-0.170D+00-0.197D+00
 Coeff-Com:  0.214D+00 0.113D+01
 Coeff:      0.420D-06 0.435D-05 0.108D-04-0.681D-05-0.894D-05-0.487D-04
 Coeff:     -0.305D-04 0.173D-03 0.248D-04-0.386D-03-0.330D-03-0.163D-03
 Coeff:      0.148D-02 0.115D-01 0.294D-01-0.223D-01-0.170D+00-0.197D+00
 Coeff:      0.214D+00 0.113D+01
 Gap=     0.208 Goal=   None    Shift=    0.000
 Gap=     0.104 Goal=   None    Shift=    0.000
 RMSDP=1.60D-08 MaxDP=8.31D-07 DE=-2.30D-11 OVMax= 2.74D-06

 Cycle  22  Pass 1  IDiag  1:
 RMSU=  1.60D-08    CP:  1.00D+00
 E= -770.394555903145     Delta-E=       -0.000000000011 Rises=F Damp=F
 DIIS: error= 3.58D-08 at cycle  22 NSaved=  20.
 NSaved=20 IEnMin=20 EnMin= -770.394555903145     IErMin=20 ErrMin= 3.58D-08
 ErrMax= 3.58D-08  0.00D+00 EMaxC= 1.00D-01 BMatC= 1.28D-12 BMatP= 6.51D-12
 IDIUse=1 WtCom= 1.00D+00 WtEn= 0.00D+00
 Coeff-Com:  0.250D-05 0.744D-05 0.350D-06-0.569D-05-0.475D-04-0.409D-04
 Coeff-Com:  0.125D-03 0.841D-04-0.140D-03-0.277D-03-0.546D-03 0.472D-03
 Coeff-Com:  0.498D-02 0.106D-01-0.651D-03-0.501D-01-0.114D+00-0.345D-01
 Coeff-Com:  0.335D+00 0.849D+00
 Coeff:      0.250D-05 0.744D-05 0.350D-06-0.569D-05-0.475D-04-0.409D-04
 Coeff:      0.125D-03 0.841D-04-0.140D-03-0.277D-03-0.546D-03 0.472D-03
 Coeff:      0.498D-02 0.106D-01-0.651D-03-0.501D-01-0.114D+00-0.345D-01
 Coeff:      0.335D+00 0.849D+00
 Gap=     0.208 Goal=   None    Shift=    0.000
 Gap=     0.104 Goal=   None    Shift=    0.000
 RMSDP=5.84D-09 MaxDP=3.95D-07 DE=-1.07D-11 OVMax= 9.51D-07

 Error on total polarization charges =  0.00969
 SCF Done:  E(UB3LYP) =  -770.394555903     A.U. after   22 cycles
            NFock= 22  Conv=0.58D-08     -V/T= 2.0095
 <Sx>= 0.0000 <Sy>= 0.0000 <Sz>= 0.5000 <S**2>= 0.7591 S= 0.5046
 <L.S>=  0.00000000000    
 KE= 7.631397175328D+02 PE=-4.447978898695D+03 EE= 1.585569820930D+03
 Annihilation of the first spin contaminant:
 S**2 before annihilation     0.7591,   after     0.7501
 Leave Link  502 at Sat May 25 04:17:12 2019, MaxMem=   104857600 cpu:            1712.0 elap:              54.4
 (Enter /opt/software/gaussian/g16.b01/l801.exe)
 DoSCS=F DFT=T ScalE2(SS,OS)=  1.000000  1.000000
 ExpMin= 1.61D-01 ExpMax= 5.48D+03 ExpMxC= 8.25D+02 IAcc=3 IRadAn=         5 AccDes= 0.00D+00
 HarFok:  IExCor=  205 AccDes= 0.00D+00 IRadAn=         5 IDoV=-2 UseB2=F ITyADJ=14
 ICtDFT= 12500011 ScaDFX=  1.000000  1.000000  1.000000  1.000000
 Largest valence mixing into a core orbital is  5.97D-05
 Largest core mixing into a valence orbital is  1.20D-05
 Largest valence mixing into a core orbital is  6.38D-05
 Largest core mixing into a valence orbital is  1.21D-05
 Range of M.O.s used for correlation:    19   355
 NBasis=   355 NAE=    65 NBE=    64 NFC=    18 NFV=     0
 NROrb=    337 NOA=    47 NOB=    46 NVA=   290 NVB=   291
 Leave Link  801 at Sat May 25 04:17:12 2019, MaxMem=   104857600 cpu:               4.0 elap:               0.2
 (Enter /opt/software/gaussian/g16.b01/l914.exe)
 UHF ground state
 Ignoring spin specification with unrestricted ground state.
 Two-electron integrals replicated using symmetry.
 MDV=   104857600 DFT=T DoStab=F Mixed=T DoRPA=T DoScal=F NonHer=T
 NEqPCM:  Using non-equilibrium solvation (IEInf=1, Eps=  35.6880, EpsInf=   1.8069)
 Inv3:  Mode=1 IEnd=    17424300.
 Iteration    1 A*A^-1 deviation from unit magnitude is 2.89D-15 for   1378.
 Iteration    1 A*A^-1 deviation from orthogonality  is 1.66D-15 for   2003    546.
 Iteration    1 A^-1*A deviation from unit magnitude is 3.11D-15 for    629.
 Iteration    1 A^-1*A deviation from orthogonality  is 2.09D-15 for   2131   1362.
 Making orbital integer symmetry assigments:
 Orbital symmetries:
 Alpha Orbitals:
       Occupied  (A) (A) (A) (A) (A) (A) (A) (A) (A) (A) (A) (A)
                 (A) (A) (A) (A) (A) (A) (A) (A) (A) (A) (A) (A)
                 (A) (A) (A) (A) (A) (A) (A) (A) (A) (A) (A) (A)
                 (A) (A) (A) (A) (A) (A) (A) (A) (A) (A) (A) (A)
                 (A) (A) (A) (A) (A) (A) (A) (A) (A) (A) (A) (A)
                 (A) (A) (A) (A) (A)
       Virtual   (A) (A) (A) (A) (A) (A) (A) (A) (A) (A) (A) (A)
                 (A) (A) (A) (A) (A) (A) (A) (A) (A) (A) (A) (A)
                 (A) (A) (A) (A) (A) (A) (A) (A) (A) (A) (A) (A)
                 (A) (A) (A) (A) (A) (A) (A) (A) (A) (A) (A) (A)
                 (A) (A) (A) (A) (A) (A) (A) (A) (A) (A) (A) (A)
                 (A) (A) (A) (A) (A) (A) (A) (A) (A) (A) (A) (A)
                 (A) (A) (A) (A) (A) (A) (A) (A) (A) (A) (A) (A)
                 (A) (A) (A) (A) (A) (A) (A) (A) (A) (A) (A) (A)
                 (A) (A) (A) (A) (A) (A) (A) (A) (A) (A) (A) (A)
                 (A) (A) (A) (A) (A) (A) (A) (A) (A) (A) (A) (A)
                 (A) (A) (A) (A) (A) (A) (A) (A) (A) (A) (A) (A)
                 (A) (A) (A) (A) (A) (A) (A) (A) (A) (A) (A) (A)
                 (A) (A) (A) (A) (A) (A) (A) (A) (A) (A) (A) (A)
                 (A) (A) (A) (A) (A) (A) (A) (A) (A) (A) (A) (A)
                 (A) (A) (A) (A) (A) (A) (A) (A) (A) (A) (A) (A)
                 (A) (A) (A) (A) (A) (A) (A) (A) (A) (A) (A) (A)
                 (A) (A) (A) (A) (A) (A) (A) (A) (A) (A) (A) (A)
                 (A) (A) (A) (A) (A) (A) (A) (A) (A) (A) (A) (A)
                 (A) (A) (A) (A) (A) (A) (A) (A) (A) (A) (A) (A)
                 (A) (A) (A) (A) (A) (A) (A) (A) (A) (A) (A) (A)
                 (A) (A) (A) (A) (A) (A) (A) (A) (A) (A) (A) (A)
                 (A) (A) (A) (A) (A) (A) (A) (A) (A) (A) (A) (A)
                 (A) (A) (A) (A) (A) (A) (A) (A) (A) (A) (A) (A)
                 (A) (A) (A) (A) (A) (A) (A) (A) (A) (A) (A) (A)
                 (A) (A)
 Beta  Orbitals:
       Occupied  (A) (A) (A) (A) (A) (A) (A) (A) (A) (A) (A) (A)
                 (A) (A) (A) (A) (A) (A) (A) (A) (A) (A) (A) (A)
                 (A) (A) (A) (A) (A) (A) (A) (A) (A) (A) (A) (A)
                 (A) (A) (A) (A) (A) (A) (A) (A) (A) (A) (A) (A)
                 (A) (A) (A) (A) (A) (A) (A) (A) (A) (A) (A) (A)
                 (A) (A) (A) (A)
       Virtual   (A) (A) (A) (A) (A) (A) (A) (A) (A) (A) (A) (A)
                 (A) (A) (A) (A) (A) (A) (A) (A) (A) (A) (A) (A)
                 (A) (A) (A) (A) (A) (A) (A) (A) (A) (A) (A) (A)
                 (A) (A) (A) (A) (A) (A) (A) (A) (A) (A) (A) (A)
                 (A) (A) (A) (A) (A) (A) (A) (A) (A) (A) (A) (A)
                 (A) (A) (A) (A) (A) (A) (A) (A) (A) (A) (A) (A)
                 (A) (A) (A) (A) (A) (A) (A) (A) (A) (A) (A) (A)
                 (A) (A) (A) (A) (A) (A) (A) (A) (A) (A) (A) (A)
                 (A) (A) (A) (A) (A) (A) (A) (A) (A) (A) (A) (A)
                 (A) (A) (A) (A) (A) (A) (A) (A) (A) (A) (A) (A)
                 (A) (A) (A) (A) (A) (A) (A) (A) (A) (A) (A) (A)
                 (A) (A) (A) (A) (A) (A) (A) (A) (A) (A) (A) (A)
                 (A) (A) (A) (A) (A) (A) (A) (A) (A) (A) (A) (A)
                 (A) (A) (A) (A) (A) (A) (A) (A) (A) (A) (A) (A)
                 (A) (A) (A) (A) (A) (A) (A) (A) (A) (A) (A) (A)
                 (A) (A) (A) (A) (A) (A) (A) (A) (A) (A) (A) (A)
                 (A) (A) (A) (A) (A) (A) (A) (A) (A) (A) (A) (A)
                 (A) (A) (A) (A) (A) (A) (A) (A) (A) (A) (A) (A)
                 (A) (A) (A) (A) (A) (A) (A) (A) (A) (A) (A) (A)
                 (A) (A) (A) (A) (A) (A) (A) (A) (A) (A) (A) (A)
                 (A) (A) (A) (A) (A) (A) (A) (A) (A) (A) (A) (A)
                 (A) (A) (A) (A) (A) (A) (A) (A) (A) (A) (A) (A)
                 (A) (A) (A) (A) (A) (A) (A) (A) (A) (A) (A) (A)
                 (A) (A) (A) (A) (A) (A) (A) (A) (A) (A) (A) (A)
                 (A) (A) (A)
   144 initial guesses have been made.
 Convergence on wavefunction:    0.001000000000000
 Davidson Disk Diagonalization:  ConvIn= 1.00D-03 SkipCon=T Conv= 1.00D-03.
 Max sub-space:  2160 roots to seek:   144 dimension of matrix:        27016
 Iteration     1 Dimension   144 NMult     0 NNew    144
 CISAX will form     3 AO SS matrices at one time.
 NMat=     3 NSing=     3 JSym2X= 0.
 FoFJK:  IHMeth= 1 ICntrl=       0 DoSepK=F KAlg= 0 I1Cent=           0 FoldK=F
 IRaf= 840000000 NMat=       6 IRICut=       1 DoRegI=T DoRafI=F ISym2E= 0 IDoP0=0 IntGTp=1.
 NMat=     3 NSing=     3 JSym2X= 0.
 NMat=     3 NSing=     3 JSym2X= 0.
 NMat=     3 NSing=     3 JSym2X= 0.
 NMat=     3 NSing=     3 JSym2X= 0.
 NMat=     3 NSing=     3 JSym2X= 0.
 NMat=     3 NSing=     3 JSym2X= 0.
 NMat=     3 NSing=     3 JSym2X= 0.
 NMat=     3 NSing=     3 JSym2X= 0.
 NMat=     3 NSing=     3 JSym2X= 0.
 NMat=     3 NSing=     3 JSym2X= 0.
 NMat=     3 NSing=     3 JSym2X= 0.
 NMat=     3 NSing=     3 JSym2X= 0.
 NMat=     3 NSing=     3 JSym2X= 0.
 NMat=     3 NSing=     3 JSym2X= 0.
 NMat=     3 NSing=     3 JSym2X= 0.
 NMat=     3 NSing=     3 JSym2X= 0.
 NMat=     3 NSing=     3 JSym2X= 0.
 NMat=     3 NSing=     3 JSym2X= 0.
 NMat=     3 NSing=     3 JSym2X= 0.
 NMat=     3 NSing=     3 JSym2X= 0.
 NMat=     3 NSing=     3 JSym2X= 0.
 NMat=     3 NSing=     3 JSym2X= 0.
 NMat=     3 NSing=     3 JSym2X= 0.
 NMat=     3 NSing=     3 JSym2X= 0.
 NMat=     3 NSing=     3 JSym2X= 0.
 NMat=     3 NSing=     3 JSym2X= 0.
 NMat=     3 NSing=     3 JSym2X= 0.
 NMat=     3 NSing=     3 JSym2X= 0.
 NMat=     3 NSing=     3 JSym2X= 0.
 NMat=     3 NSing=     3 JSym2X= 0.
 NMat=     3 NSing=     3 JSym2X= 0.
 NMat=     3 NSing=     3 JSym2X= 0.
 NMat=     3 NSing=     3 JSym2X= 0.
 NMat=     3 NSing=     3 JSym2X= 0.
 NMat=     3 NSing=     3 JSym2X= 0.
 NMat=     3 NSing=     3 JSym2X= 0.
 NMat=     3 NSing=     3 JSym2X= 0.
 NMat=     3 NSing=     3 JSym2X= 0.
 NMat=     3 NSing=     3 JSym2X= 0.
 NMat=     3 NSing=     3 JSym2X= 0.
 NMat=     3 NSing=     3 JSym2X= 0.
 NMat=     3 NSing=     3 JSym2X= 0.
 NMat=     3 NSing=     3 JSym2X= 0.
 NMat=     3 NSing=     3 JSym2X= 0.
 NMat=     3 NSing=     3 JSym2X= 0.
 NMat=     3 NSing=     3 JSym2X= 0.
 NMat=     3 NSing=     3 JSym2X= 0.
 New state      2 was old state      3
 New state      3 was old state      2
 New state      8 was old state     30
 New state      9 was old state     42
 New state     11 was old state      8
 New state     13 was old state     40
 New state     14 was old state     36
 New state     15 was old state     41
 New state     16 was old state      9
 New state     17 was old state     16
 New state     18 was old state     13
 New state     19 was old state     32
 New state     20 was old state     11
 New state     21 was old state     24
 New state     22 was old state     14
 New state     23 was old state     15
 New state     24 was old state     28
 New state     25 was old state     19
 New state     26 was old state     21
 New state     27 was old state     20
 New state     28 was old state     31
 New state     29 was old state     17
 New state     30 was old state     39
 New state     31 was old state     25
 New state     32 was old state     26
 New state     33 was old state     18
 New state     34 was old state     38
 New state     35 was old state     33
 New state     36 was old state     34
 Excitation Energies [eV] at current iteration:
 Root      1 :     0.937269439351916
 Root      2 :     2.181676980797819
 Root      3 :     2.279321595580202
 Root      4 :     2.587035587541605
 Root      5 :     2.906093451777583
 Root      6 :     3.360162126602108
 Root      7 :     4.014695711816182
 Root      8 :     4.195322693082150
 Root      9 :     4.319797770328351
 Root     10 :     4.502209318136839
 Root     11 :     4.661212992507042
 Root     12 :     4.689730098054462
 Root     13 :     4.740553264492004
 Root     14 :     4.789962916328819
 Root     15 :     4.802478268031566
 Root     16 :     4.826310045699445
 Root     17 :     4.980820294880878
 Root     18 :     5.059726596232201
 Root     19 :     5.103544135651764
 Root     20 :     5.264211069327157
 Root     21 :     5.345491963066247
 Root     22 :     5.376854928427601
 Root     23 :     5.380032514169926
 Root     24 :     5.426051621578003
 Root     25 :     5.464994417953156
 Root     26 :     5.502123008829988
 Root     27 :     5.554628130036644
 Root     28 :     5.602354345322990
 Root     29 :     5.649057884072215
 Root     30 :     5.695324651084244
 Root     31 :     5.701999270450234
 Root     32 :     5.715599756123522
 Root     33 :     5.785084792788502
 Root     34 :     5.804355017602690
 Root     35 :     5.848231681237839
 Root     36 :     5.890624767409838
 Root     37 :     5.897278493975374
 Root     38 :     5.912787931190580
 Root     39 :     5.994633038137467
 Root     40 :     6.040213606094103
 Root     41 :     6.055880098674604
 Root     42 :     6.076239686433599
 Root     43 :     6.110180661384311
 Root     44 :     6.124390936130588
 Root     45 :     6.192892603018239
 Root     46 :     6.228511624637139
 Root     47 :     6.252622642476450
 Root     48 :     6.279908676180979
 Root     49 :     6.322377635529336
 Root     50 :     6.344046330995556
 Root     51 :     6.388436840589192
 Root     52 :     6.396407994900270
 Root     53 :     6.467762258723186
 Root     54 :     6.567857907095257
 Root     55 :     6.599388152596743
 Root     56 :     6.718502202941747
 Root     57 :     6.863368895325579
 Root     58 :     6.889457026809345
 Root     59 :     6.901909901581510
 Root     60 :     6.911735441797097
 Root     61 :     6.919637195257589
 Root     62 :     6.993274874974113
 Root     63 :     7.093812009602381
 Root     64 :     7.177336048344839
 Root     65 :     7.200073905651132
 Root     66 :     7.208456157604607
 Root     67 :     7.233340171578501
 Root     68 :     7.284497082764362
 Root     69 :     7.397275293625058
 Root     70 :     7.470248358450849
 Root     71 :     7.484426934322737
 Root     72 :     7.512326292876756
 Root     73 :     7.550591782451921
 Root     74 :     7.562610448887421
 Root     75 :     7.585769371164380
 Root     76 :     7.616994987736644
 Root     77 :     7.635670525059450
 Root     78 :     7.666800988525281
 Root     79 :     7.688382516796400
 Root     80 :     7.708803038177643
 Root     81 :     7.742521265578471
 Root     82 :     7.777345099344344
 Root     83 :     7.793297953480881
 Root     84 :     7.810217969166712
 Root     85 :     7.827661478053556
 Root     86 :     7.862945842391575
 Root     87 :     7.902968933085321
 Root     88 :     7.925404960154030
 Root     89 :     7.951668428647932
 Root     90 :     7.980645881054448
 Root     91 :     8.002412625923807
 Root     92 :     8.021693669741730
 Root     93 :     8.034078911386171
 Root     94 :     8.088651708721047
 Root     95 :     8.129218522566868
 Root     96 :     8.142797601984157
 Root     97 :     8.163611872844461
 Root     98 :     8.185324986228272
 Root     99 :     8.198018696686749
 Root    100 :     8.222885912602603
 Root    101 :     8.252582583256867
 Root    102 :     8.261635292106908
 Root    103 :     8.302985544350255
 Root    104 :     8.308473653225070
 Root    105 :     8.321512414250094
 Root    106 :     8.337026006522537
 Root    107 :     8.359200014144543
 Root    108 :     8.366719528529131
 Root    109 :     8.377560739466617
 Root    110 :     8.399757176856856
 Root    111 :     8.432611350639357
 Root    112 :     8.451807900715036
 Root    113 :     8.460169818129794
 Root    114 :     8.473868954990342
 Root    115 :     8.478360671794730
 Root    116 :     8.503225065898297
 Root    117 :     8.532601033993851
 Root    118 :     8.551459825616920
 Root    119 :     8.563037350638435
 Root    120 :     8.586609237319234
 Root    121 :     8.611420070732439
 Root    122 :     8.628311060794788
 Root    123 :     8.642331808282055
 Root    124 :     8.657650857122889
 Root    125 :     8.669479395830898
 Root    126 :     8.679201054305398
 Root    127 :     8.708166705707963
 Root    128 :     8.714994464698394
 Root    129 :     8.759880692133876
 Root    130 :     8.763864061118504
 Root    131 :     8.775388357365259
 Root    132 :     8.789426633217886
 Root    133 :     8.810483678014352
 Root    134 :     8.822730062879529
 Root    135 :     8.829221572928404
 Root    136 :     8.858562132068954
 Root    137 :     8.870668060874022
 Root    138 :     8.897263969162903
 Root    139 :     8.922222081825860
 Root    140 :     9.001920932939717
 Root    141 :     9.030345389808936
 Root    142 :     9.252295207194036
 Root    143 :     9.308665560910933
 Root    144 :     9.489599971546905
 Iteration     2 Dimension   216 NMult   144 NNew     72
 CISAX will form     3 AO SS matrices at one time.
 NMat=     3 NSing=     3 JSym2X= 0.
 NMat=     3 NSing=     3 JSym2X= 0.
 NMat=     3 NSing=     3 JSym2X= 0.
 NMat=     3 NSing=     3 JSym2X= 0.
 NMat=     3 NSing=     3 JSym2X= 0.
 NMat=     3 NSing=     3 JSym2X= 0.
 NMat=     3 NSing=     3 JSym2X= 0.
 NMat=     3 NSing=     3 JSym2X= 0.
 NMat=     3 NSing=     3 JSym2X= 0.
 NMat=     3 NSing=     3 JSym2X= 0.
 NMat=     3 NSing=     3 JSym2X= 0.
 NMat=     3 NSing=     3 JSym2X= 0.
 NMat=     3 NSing=     3 JSym2X= 0.
 NMat=     3 NSing=     3 JSym2X= 0.
 NMat=     3 NSing=     3 JSym2X= 0.
 NMat=     3 NSing=     3 JSym2X= 0.
 NMat=     3 NSing=     3 JSym2X= 0.
 NMat=     3 NSing=     3 JSym2X= 0.
 NMat=     3 NSing=     3 JSym2X= 0.
 NMat=     3 NSing=     3 JSym2X= 0.
 NMat=     3 NSing=     3 JSym2X= 0.
 NMat=     3 NSing=     3 JSym2X= 0.
 NMat=     3 NSing=     3 JSym2X= 0.
 NMat=     3 NSing=     3 JSym2X= 0.
 Root      1 not converged, maximum delta is    0.058188735526610
 Root      2 not converged, maximum delta is    0.352846147302699
 Root      3 not converged, maximum delta is    0.376630594350409
 Root      4 not converged, maximum delta is    0.249864927183172
 Root      5 not converged, maximum delta is    0.237826173611407
 Root      6 not converged, maximum delta is    0.198070671732768
 New state      7 was old state      8
 Root      7 not converged, maximum delta is    0.677835233726068
 New state      8 was old state      7
 Root      8 not converged, maximum delta is    0.357272002049389
 Root      9 not converged, maximum delta is    0.153690833359187
 Root     10 not converged, maximum delta is    0.110982416575108
 Root     11 not converged, maximum delta is    0.178792643968557
 Root     12 not converged, maximum delta is    0.028817742269261
 Root     13 not converged, maximum delta is    0.244618557423964
 New state     14 was old state     15
 Root     14 not converged, maximum delta is    0.233263133128890
 New state     15 was old state     14
 Root     15 not converged, maximum delta is    0.191759904710029
 Root     16 not converged, maximum delta is    0.084526931189129
 New state     17 was old state     18
 Root     17 not converged, maximum delta is    0.187833453922006
 New state     18 was old state     17
 Root     18 not converged, maximum delta is    0.047894946522211
 Root     19 not converged, maximum delta is    0.044509320951908
 Root     20 not converged, maximum delta is    0.077408157885606
 New state     21 was old state     24
 Root     21 not converged, maximum delta is    0.522884416300021
 New state     22 was old state     21
 Root     22 not converged, maximum delta is    0.208449498290554
 New state     23 was old state     22
 Root     23 not converged, maximum delta is    0.271595804570684
 New state     24 was old state     23
 Root     24 not converged, maximum delta is    0.471431709914539
 Root     25 not converged, maximum delta is    0.164904226773609
 Root     26 not converged, maximum delta is    0.179663697330077
 Root     27 not converged, maximum delta is    0.075547672455021
 Root     28 not converged, maximum delta is    0.143812408787619
 Root     29 not converged, maximum delta is    0.162958137471100
 Root     30 not converged, maximum delta is    0.103426364886212
 Root     31 not converged, maximum delta is    0.258947505002884
 Root     32 not converged, maximum delta is    0.178464000746765
 New state     33 was old state     34
 Root     33 not converged, maximum delta is    0.358914752632226
 New state     34 was old state     33
 Root     34 not converged, maximum delta is    0.395081143286783
 Root     35 not converged, maximum delta is    0.080190176139473
 New state     36 was old state     37
 Root     36 not converged, maximum delta is    0.308423570965560
 Excitation Energies [eV] at current iteration:
 Root      1 :     0.806369406347973   Change is   -0.130900033003943
 Root      2 :     2.037519625294508   Change is   -0.144157355503311
 Root      3 :     2.216007119070180   Change is   -0.063314476510022
 Root      4 :     2.516438326320854   Change is   -0.070597261220752
 Root      5 :     2.675523322257422   Change is   -0.230570129520161
 Root      6 :     3.125843429872941   Change is   -0.234318696729167
 Root      7 :     3.746496115080842   Change is   -0.448826578001308
 Root      8 :     3.834593742836141   Change is   -0.180101968980041
 Root      9 :     3.909143224191391   Change is   -0.410654546136960
 Root     10 :     4.377991756586574   Change is   -0.124217561550265
 Root     11 :     4.604456633212298   Change is   -0.056756359294744
 Root     12 :     4.632834821898141   Change is   -0.056895276156321
 Root     13 :     4.670737305223676   Change is   -0.069815959268328
 Root     14 :     4.698845751228898   Change is   -0.103632516802667
 Root     15 :     4.732467927676558   Change is   -0.057494988652261
 Root     16 :     4.798745499304304   Change is   -0.027564546395141
 Root     17 :     4.931221163715467   Change is   -0.128505432516734
 Root     18 :     4.948522165315777   Change is   -0.032298129565101
 Root     19 :     5.069237638392130   Change is   -0.034306497259634
 Root     20 :     5.164904121751101   Change is   -0.099306947576056
 Root     21 :     5.267423323170342   Change is   -0.158628298407661
 Root     22 :     5.296911403175888   Change is   -0.048580559890360
 Root     23 :     5.311087706910146   Change is   -0.065767221517455
 Root     24 :     5.375898695064765   Change is   -0.004133819105161
 Root     25 :     5.413614993151391   Change is   -0.051379424801765
 Root     26 :     5.443143291714043   Change is   -0.058979717115944
 Root     27 :     5.516263632504526   Change is   -0.038364497532118
 Root     28 :     5.540345128380901   Change is   -0.062009216942088
 Root     29 :     5.623661919854528   Change is   -0.025395964217687
 Root     30 :     5.654375042947700   Change is   -0.040949608136544
 Root     31 :     5.673869275107104   Change is   -0.028129995343130
 Root     32 :     5.684507645085222   Change is   -0.031092111038300
 Root     33 :     5.709359216080630   Change is   -0.094995801522059
 Root     34 :     5.758738605941152   Change is   -0.026346186847350
 Root     35 :     5.806762094204530   Change is   -0.041469587033308
 Root     36 :     5.845083577556908   Change is   -0.052194916418467
 Iteration     3 Dimension   288 NMult   216 NNew     72
 CISAX will form     3 AO SS matrices at one time.
 NMat=     3 NSing=     3 JSym2X= 0.
 NMat=     3 NSing=     3 JSym2X= 0.
 NMat=     3 NSing=     3 JSym2X= 0.
 NMat=     3 NSing=     3 JSym2X= 0.
 NMat=     3 NSing=     3 JSym2X= 0.
 NMat=     3 NSing=     3 JSym2X= 0.
 NMat=     3 NSing=     3 JSym2X= 0.
 NMat=     3 NSing=     3 JSym2X= 0.
 NMat=     3 NSing=     3 JSym2X= 0.
 NMat=     3 NSing=     3 JSym2X= 0.
 NMat=     3 NSing=     3 JSym2X= 0.
 NMat=     3 NSing=     3 JSym2X= 0.
 NMat=     3 NSing=     3 JSym2X= 0.
 NMat=     3 NSing=     3 JSym2X= 0.
 NMat=     3 NSing=     3 JSym2X= 0.
 NMat=     3 NSing=     3 JSym2X= 0.
 NMat=     3 NSing=     3 JSym2X= 0.
 NMat=     3 NSing=     3 JSym2X= 0.
 NMat=     3 NSing=     3 JSym2X= 0.
 NMat=     3 NSing=     3 JSym2X= 0.
 NMat=     3 NSing=     3 JSym2X= 0.
 NMat=     3 NSing=     3 JSym2X= 0.
 NMat=     3 NSing=     3 JSym2X= 0.
 NMat=     3 NSing=     3 JSym2X= 0.
 Root      1 not converged, maximum delta is    0.003146206217046
 Root      2 not converged, maximum delta is    0.012008405519443
 Root      3 not converged, maximum delta is    0.013530655261392
 Root      4 not converged, maximum delta is    0.013562930358766
 Root      5 not converged, maximum delta is    0.012463244592791
 Root      6 not converged, maximum delta is    0.008535457873997
 Root      7 not converged, maximum delta is    0.017180058012560
 Root      8 not converged, maximum delta is    0.009192606102740
 Root      9 not converged, maximum delta is    0.005432487044781
 Root     10 not converged, maximum delta is    0.007520353965054
 Root     11 not converged, maximum delta is    0.007574781782221
 Root     12 not converged, maximum delta is    0.001747412738741
 Root     13 not converged, maximum delta is    0.013634892420874
 Root     14 not converged, maximum delta is    0.021947532246673
 Root     15 not converged, maximum delta is    0.004424702796906
 Root     16 not converged, maximum delta is    0.010281216419525
 Root     17 not converged, maximum delta is    0.013733769423652
 Root     18 not converged, maximum delta is    0.016510803266232
 Root     19 not converged, maximum delta is    0.005357276663050
 Root     20 not converged, maximum delta is    0.012903546830878
 Root     21 not converged, maximum delta is    0.019526917629487
 Root     22 not converged, maximum delta is    0.020063590789544
 Root     23 not converged, maximum delta is    0.013968143621834
 Root     24 not converged, maximum delta is    0.009533366883266
 Root     25 not converged, maximum delta is    0.005071232079180
 Root     26 not converged, maximum delta is    0.006545845645421
 Root     27 not converged, maximum delta is    0.011127749770646
 Root     28 not converged, maximum delta is    0.014677122361832
 Root     29 not converged, maximum delta is    0.009720414254019
 Root     30 not converged, maximum delta is    0.023857575680440
 Root     31 not converged, maximum delta is    0.065521563042736
 Root     32 not converged, maximum delta is    0.040473060340258
 Root     33 not converged, maximum delta is    0.061195444472632
 Root     34 not converged, maximum delta is    0.017931463429030
 Root     35 not converged, maximum delta is    0.031338144235304
 Root     36 not converged, maximum delta is    0.055565936086172
 Excitation Energies [eV] at current iteration:
 Root      1 :     0.802168964090028   Change is   -0.004200442257945
 Root      2 :     2.027005701916332   Change is   -0.010513923378177
 Root      3 :     2.212775798555231   Change is   -0.003231320514949
 Root      4 :     2.509751572996354   Change is   -0.006686753324499
 Root      5 :     2.665190578027850   Change is   -0.010332744229571
 Root      6 :     3.113754800669997   Change is   -0.012088629202944
 Root      7 :     3.737547129063481   Change is   -0.008948986017362
 Root      8 :     3.823066750089803   Change is   -0.011526992746338
 Root      9 :     3.901188927836622   Change is   -0.007954296354769
 Root     10 :     4.370120707861441   Change is   -0.007871048725134
 Root     11 :     4.601886357245331   Change is   -0.002570275966966
 Root     12 :     4.631337146136420   Change is   -0.001497675761722
 Root     13 :     4.667097078191986   Change is   -0.003640227031690
 Root     14 :     4.696181195079900   Change is   -0.002664556148998
 Root     15 :     4.730758705673272   Change is   -0.001709222003286
[...]
     7  H    0.000006   0.000000  -0.000014  -0.000000  -0.000000  -0.000001
     8  C   -0.001592   0.000006  -0.000008   0.000034  -0.000135   0.000007
     9  H   -0.000035  -0.000000   0.000000  -0.000002   0.000054  -0.000000
    10  H   -0.000033   0.000000  -0.000000   0.000001  -0.000007   0.000000
    11  H    0.000749  -0.000001   0.000000  -0.000006   0.000005  -0.000005
    12  C    0.000252  -0.000002  -0.000002  -0.000010   0.000015  -0.000004
    13  C    0.000058  -0.000000  -0.000000  -0.000000  -0.000013  -0.000000
    14  C    0.000550  -0.000000   0.000000  -0.000026   0.000017  -0.000010
    15  C   -0.000004   0.000000   0.000000   0.000000   0.000002   0.000000
    16  H    0.000001   0.000000  -0.000000   0.000000  -0.000000  -0.000000
    17  C    0.000009  -0.000000   0.000000  -0.000001  -0.000004  -0.000001
    18  H   -0.000043  -0.000003  -0.000000  -0.000034   0.000001   0.000006
    19  C   -0.000012   0.000000  -0.000000   0.000000   0.000000   0.000000
    20  H   -0.000000   0.000000   0.000000   0.000000   0.000000   0.000000
    21  H   -0.000011   0.000000   0.000000   0.000001   0.000000   0.000001
    22  H    0.000000  -0.000000  -0.000000  -0.000000  -0.000000  -0.000000
    23  C    0.003536  -0.000326   0.000260   0.000134  -0.000072  -0.000745
    24  C    0.000780  -0.001632   0.000236   0.000020  -0.000021  -0.002498
    25  C    0.063083  -0.000023   0.000000  -0.002202   0.000457  -0.002405
    26  C   -0.000023  -0.033351   0.000133  -0.000051  -0.000006   0.001379
    27  H    0.000000   0.000133  -0.003239  -0.000007   0.000000  -0.000003
    28  C   -0.002202  -0.000051  -0.000007  -0.033240   0.000167   0.001909
    29  H    0.000457  -0.000006   0.000000   0.000167  -0.003110  -0.000001
    30  C   -0.002405   0.001379  -0.000003   0.001909  -0.000001   0.073618
    31  H   -0.000009   0.000038   0.000019   0.000006  -0.000000  -0.000210
    32  H   -0.000140   0.000013  -0.000000   0.000136   0.000015  -0.000158
    33  H    0.000014  -0.000022   0.000001   0.000007   0.000001   0.000397
    34  O    0.000071   0.000001  -0.000072  -0.000001   0.000002  -0.000000
    35  H   -0.000012   0.000002  -0.000009   0.000000  -0.000000   0.000000
              31         32         33         34         35
     1  C    0.000000   0.000000  -0.000000   0.000116  -0.002698
     2  C    0.000002   0.000004  -0.000000  -0.027994  -0.003509
     3  O   -0.000000  -0.000000   0.000000   0.002473   0.003025
     4  C   -0.000001  -0.000000   0.000000   0.002440   0.001086
     5  H    0.000000   0.000000  -0.000000  -0.000101  -0.000067
     6  H    0.000004   0.000000  -0.000000  -0.000333  -0.000054
     7  H   -0.000000  -0.000000   0.000000   0.000573   0.000277
     8  C   -0.000000  -0.000002   0.000000  -0.000728   0.001247
     9  H    0.000000   0.000000   0.000000  -0.000032  -0.000021
    10  H   -0.000000  -0.000000   0.000000  -0.000447   0.000278
    11  H    0.000000   0.000000  -0.000000   0.001081  -0.000264
    12  C   -0.000000  -0.000000   0.000000   0.000179   0.000086
    13  C   -0.000000  -0.000000   0.000000   0.000004   0.000012
    14  C   -0.000000  -0.000005   0.000000  -0.000005   0.000001
    15  C    0.000000   0.000000  -0.000000  -0.000000   0.000000
    16  H    0.000000  -0.000000  -0.000000   0.000001   0.000003
    17  C   -0.000000  -0.000000   0.000000   0.000000  -0.000000
    18  H    0.000000  -0.000000  -0.000000   0.000000   0.000000
    19  C    0.000000   0.000000  -0.000000   0.000000  -0.000000
    20  H    0.000000   0.000000  -0.000000  -0.000000  -0.000000
    21  H    0.000000   0.000000  -0.000000  -0.000000  -0.000000
    22  H   -0.000000  -0.000000   0.000000   0.000000   0.000000
    23  C    0.000067   0.000018  -0.000026   0.003398   0.000365
    24  C   -0.000115  -0.000013   0.000013   0.000592   0.000008
    25  C   -0.000009  -0.000140   0.000014   0.000071  -0.000012
    26  C    0.000038   0.000013  -0.000022   0.000001   0.000002
    27  H    0.000019  -0.000000   0.000001  -0.000072  -0.000009
    28  C    0.000006   0.000136   0.000007  -0.000001   0.000000
    29  H   -0.000000   0.000015   0.000001   0.000002  -0.000000
    30  C   -0.000210  -0.000158   0.000397  -0.000000   0.000000
    31  H    0.001523   0.000000  -0.000003  -0.000000  -0.000000
    32  H    0.000000   0.001344   0.000003  -0.000000  -0.000000
    33  H   -0.000003   0.000003  -0.003468   0.000000   0.000000
    34  O   -0.000000  -0.000000   0.000000   0.060574  -0.000857
    35  H   -0.000000  -0.000000   0.000000  -0.000857   0.002782
 Mulliken charges and spin densities:
               1          2
     1  C    0.250421  -0.014475
     2  C    0.216104   0.232902
     3  O   -0.508976   0.574202
     4  C   -0.327376   0.043836
     5  H    0.122205   0.003545
     6  H    0.119170  -0.001719
     7  H    0.118445  -0.002036
     8  C   -0.322256   0.008935
     9  H    0.127458  -0.000118
    10  H    0.123118  -0.001205
    11  H    0.125189   0.004950
    12  C    0.090316  -0.002056
    13  C   -0.124755   0.011017
    14  C   -0.125268   0.011551
    15  C   -0.102928  -0.004405
    16  H    0.102038  -0.001329
    17  C   -0.110857  -0.006262
    18  H    0.101609  -0.000309
    19  C   -0.097324   0.012793
    20  H    0.100831   0.000171
    21  H    0.101928   0.000297
    22  H    0.101631  -0.000524
    23  C    0.095171  -0.035745
    24  C   -0.107174   0.064333
    25  C   -0.109608   0.060442
    26  C   -0.103913  -0.033902
    27  H    0.116678  -0.002662
    28  C   -0.109485  -0.033253
    29  H    0.109668  -0.002426
    30  C   -0.088861   0.071381
    31  H    0.108358   0.001321
    32  H    0.109224   0.001216
    33  H    0.109566  -0.003083
    34  O   -0.543869   0.040934
    35  H    0.333522   0.001680
 Sum of Mulliken charges =  -0.00000   1.00000
 Mulliken charges and spin densities with hydrogens summed into heavy atoms:
               1          2
     1  C    0.250421  -0.014475
     2  C    0.216104   0.232902
     3  O   -0.508976   0.574202
     4  C    0.032444   0.043627
     8  C    0.053509   0.012563
    12  C    0.090316  -0.002056
    13  C   -0.022717   0.009688
    14  C   -0.023659   0.011242
    15  C   -0.002097  -0.004235
    17  C   -0.008929  -0.005965
    19  C    0.004306   0.012269
    23  C    0.095171  -0.035745
    24  C    0.009504   0.061671
    25  C    0.000060   0.058016
    26  C    0.004445  -0.032580
    28  C   -0.000261  -0.032037
    30  C    0.020706   0.068299
    34  O   -0.210347   0.042614
 Electronic spatial extent (au):  <R**2>=           4052.1435
 Charge=             -0.0000 electrons
 Dipole moment (field-independent basis, Debye):
    X=             -1.1621    Y=              3.1924    Z=             -0.3996  Tot=              3.4208
 Quadrupole moment (field-independent basis, Debye-Ang):
   XX=           -101.5742   YY=           -101.4627   ZZ=           -102.8229
   XY=              0.4846   XZ=             -6.8152   YZ=              0.8011
 Traceless Quadrupole moment (field-independent basis, Debye-Ang):
   XX=              0.3791   YY=              0.4905   ZZ=             -0.8696
   XY=              0.4846   XZ=             -6.8152   YZ=              0.8011
 Octapole moment (field-independent basis, Debye-Ang**2):
  XXX=             -5.4821  YYY=             10.6709  ZZZ=             -1.1348  XYY=            -11.1520
  XXY=             24.6201  XXZ=              1.8228  XZZ=             -1.7885  YZZ=            -11.6374
  YYZ=             -4.3804  XYZ=              3.4212
 Hexadecapole moment (field-independent basis, Debye-Ang**3):
 XXXX=          -2870.0277 YYYY=          -1583.7905 ZZZZ=           -697.5824 XXXY=            -14.8005
 XXXZ=           -135.7477 YYYX=             22.6600 YYYZ=             11.3667 ZZZX=             -1.8770
 ZZZY=             -0.9948 XXYY=           -743.2106 XXZZ=           -633.6298 YYZZ=           -391.1426
 XXYZ=             -0.1719 YYXZ=             -6.8090 ZZXY=             -2.0928
 N-N= 1.328874804329D+03 E-N=-4.447978896009D+03  KE= 7.631397175328D+02
 Leave Link  601 at Sat May 25 04:44:52 2019, MaxMem=   104857600 cpu:               3.7 elap:               0.2
 (Enter /opt/software/gaussian/g16.b01/l9999.exe)
 Electronic transition elements 
                 1             2             3             4             5 
      1  -0.770365D+03 -0.770320D+03 -0.770313D+03 -0.770302D+03 -0.770297D+03
      2  -0.149518D+00 -0.170592D+00  0.286593D+00 -0.603760D+00  0.677475D+00
      3  -0.135327D+00  0.360580D+00  0.246360D+00 -0.355291D+00  0.724301D+00
      4  -0.170757D+00  0.886353D-01  0.125504D+00  0.576841D-02  0.136778D+00
      5   0.380011D-02  0.123793D-01 -0.211355D-01  0.550760D-01 -0.638303D-01
      6   0.380670D-02 -0.264773D-01 -0.201368D-01  0.305468D-01 -0.687569D-01
      7   0.508411D-02 -0.645591D-02 -0.119472D-01 -0.226078D-02 -0.122379D-01
      8  -0.245647D+00 -0.204607D+00 -0.105292D+00 -0.171993D+00 -0.275952D-01
      9  -0.657037D+00 -0.425861D-02 -0.608103D-01  0.162773D+00 -0.695692D-01
     10   0.237178D+00  0.149686D+00 -0.422768D+00  0.399932D-01 -0.185974D+00
     11   0.193464D-01 -0.135964D+00 -0.720187D-01  0.209991D+00 -0.190383D+00
     12  -0.119065D-02  0.888871D-01  0.455073D-01 -0.718439D-01  0.956386D-01
     13  -0.181009D-01 -0.130042D-01  0.318554D-03 -0.314584D-01  0.187850D-03
     14   0.448661D-02  0.191056D+00 -0.543217D-01  0.101510D+00 -0.553104D-01
     15   0.449229D-02  0.238486D-01  0.775972D-02 -0.419511D-01  0.107248D-01
     16  -0.111017D-01  0.448808D-01 -0.818614D-02  0.599358D-02  0.616930D-02
                 6             7             8             9            10 
      1  -0.770280D+03 -0.770257D+03 -0.770254D+03 -0.770251D+03 -0.770234D+03
      2   0.315701D+00 -0.601684D-01  0.370640D+00 -0.393037D+00  0.717851D-02
      3  -0.256153D+00  0.112605D+00  0.158521D+00 -0.306429D+00 -0.152915D+00
      4   0.147218D+00  0.417228D-02  0.882370D-01 -0.478169D-01 -0.301077D-01
      5  -0.355223D-01  0.801213D-02 -0.502402D-01  0.548552D-01 -0.447476D-04
      6   0.293643D-01 -0.151230D-01 -0.211288D-01  0.428968D-01  0.243870D-01
      7  -0.130266D-01 -0.782967D-03 -0.122387D-01  0.678118D-02  0.801327D-02
      8  -0.143594D+00 -0.185461D+00 -0.253140D+00 -0.112536D+00 -0.385235D+00
      9  -0.143185D+00  0.208273D+00  0.368112D+00  0.111088D+00  0.101454D+00
     10   0.284968D-01  0.212307D+00  0.164718D+00  0.249802D+00  0.169310D+00
     11   0.133331D+00 -0.516549D-01 -0.596440D-01  0.194440D+00  0.160316D-01
     12  -0.149711D-01  0.558876D-01  0.821023D-01 -0.228330D-01 -0.112995D+00
     13  -0.662624D-01 -0.301228D-01 -0.617464D-01 -0.464170D-01  0.776490D-01
     14   0.179665D+00  0.687482D-01 -0.963706D-02  0.145743D+00 -0.203175D+00
     15  -0.928801D-02 -0.984200D-02 -0.216463D-01 -0.270638D-01 -0.453156D-01
     16   0.504409D-01  0.105411D-01  0.137694D-01  0.705727D-02 -0.952272D-01
                11            12            13            14            15 
      1  -0.770225D+03 -0.770224D+03 -0.770223D+03 -0.770222D+03 -0.770221D+03
      2  -0.375513D+00  0.186844D-01 -0.383583D+00  0.291695D+00 -0.226621D-01
      3  -0.121278D+00 -0.888076D-01 -0.952896D-01  0.235650D+00 -0.555988D-01
      4  -0.949697D-01 -0.133486D-01 -0.123014D-01  0.354117D-01 -0.659559D-01
      5   0.622317D-01 -0.382897D-02  0.645712D-01 -0.498441D-01  0.394036D-02
      6   0.205170D-01  0.167126D-01  0.156841D-01 -0.401788D-01  0.103202D-01
      7   0.166569D-01  0.231534D-02  0.160026D-02 -0.581339D-02  0.112078D-01
      8  -0.248968D+00  0.513935D-01  0.153580D+00  0.693612D-01  0.115749D+00
      9   0.718242D-01 -0.688770D-01 -0.136011D+00 -0.742018D-01 -0.127217D+00
     10   0.216528D+00  0.874476D-01  0.174252D+00 -0.209572D+00  0.207549D+00
     11   0.935013D-01 -0.775988D-01  0.230872D-01 -0.180813D+00 -0.123725D+00
     12   0.724383D-02  0.295410D-01 -0.869761D-01  0.892647D-01  0.383761D-01
     13  -0.597805D-01  0.233658D-01  0.110456D+00 -0.530278D-02  0.379198D-01
     14   0.114841D+00  0.791172D-02  0.107433D+00 -0.107676D+00  0.633665D-01
     15  -0.116702D-01  0.402333D-01 -0.495395D-02  0.332092D-01  0.490108D-01
     16  -0.155228D-01  0.137009D-01  0.132321D-01 -0.720107D-02  0.340217D-01
                16            17            18            19            20 
      1  -0.770218D+03 -0.770214D+03 -0.770213D+03 -0.770208D+03 -0.770205D+03
      2   0.532346D-01  0.248670D+00 -0.600059D-01  0.115816D+00 -0.717537D+00
      3  -0.720502D-01 -0.227425D-02 -0.515539D-01  0.254515D-01  0.616414D-01
      4   0.101665D-01  0.382395D-01 -0.171546D-01  0.239340D-01 -0.109091D+00
      5  -0.864706D-02 -0.444337D-01  0.101565D-01 -0.218495D-01  0.133735D+00
      6   0.130383D-01  0.818544D-03  0.105912D-01 -0.445748D-02 -0.122005D-01
      7  -0.708047D-03 -0.711211D-02  0.308856D-02 -0.371852D-02  0.210179D-01
      8  -0.466768D-01 -0.118370D+00  0.194953D-01 -0.308296D-01 -0.158211D+00
      9  -0.721995D-01 -0.563163D-01 -0.500662D-01  0.411994D-01 -0.114228D+00
     10  -0.826091D-01 -0.884943D-01  0.103866D+00 -0.122071D+00  0.414096D+00
     11   0.308233D-01 -0.169309D+00 -0.246017D-01  0.246410D-01 -0.731205D-01
     12  -0.530476D-01 -0.227156D+00  0.359314D-01 -0.732892D-02  0.480901D-01
     13   0.549054D-01  0.309394D+00 -0.296196D-02 -0.107002D-01  0.230494D-01
     14   0.241460D-02 -0.161641D+00  0.327192D-01 -0.618057D-01  0.363994D+00
     15  -0.168267D-02  0.626343D-02  0.214195D-01 -0.929748D-02  0.196525D-01
     16   0.534480D-02 -0.103796D-01  0.468472D-02 -0.392464D-02 -0.146729D-01
                21            22            23            24            25 
      1  -0.770201D+03 -0.770200D+03 -0.770200D+03 -0.770197D+03 -0.770196D+03
      2  -0.283564D+00 -0.177082D+00  0.685070D-01  0.317996D+00  0.247013D+00
      3  -0.440820D-01 -0.310171D-01  0.315202D+00  0.308835D-01  0.117876D+00
      4  -0.246864D-01  0.320858D-01 -0.192757D-01  0.718001D-01  0.173314D-01
      5   0.549098D-01  0.334160D-01 -0.135539D-01 -0.630895D-01 -0.479182D-01
      6   0.904074D-02  0.552173D-02 -0.613905D-01 -0.635405D-02 -0.232386D-01
      7   0.696685D-02 -0.556409D-02  0.328668D-02 -0.126483D-01 -0.424258D-02
      8  -0.289630D+00 -0.148267D+00  0.117935D+00  0.109719D+00  0.499559D-01
      9   0.161414D+00  0.305111D-01 -0.251214D+00  0.841499D-02 -0.315266D-02
     10   0.451837D+00 -0.954841D-01 -0.198715D+00 -0.239886D+00 -0.269532D-01
     11  -0.163150D+00  0.107339D-01 -0.361590D+00  0.293341D-02 -0.616890D-01
     12  -0.196064D+00 -0.103975D-01  0.587610D-01  0.721901D-01  0.123182D-01
     13   0.229027D+00  0.214706D-01  0.886886D-01 -0.101465D+00  0.438211D-02
     14   0.217396D-01  0.447073D-01 -0.799320D-01 -0.835502D-01 -0.104584D+00
     15  -0.493017D-01 -0.160649D-01  0.766566D-01  0.164893D-01  0.599280D-02
     16  -0.400422D-01 -0.243138D-01  0.642875D-02 -0.236857D-01  0.849626D-02
                26            27            28            29            30 
      1  -0.770195D+03 -0.770192D+03 -0.770191D+03 -0.770188D+03 -0.770187D+03
      2   0.229790D+00  0.155130D+00  0.294763D+00 -0.306515D+00  0.487627D-01
      3   0.568663D-01  0.757130D-01 -0.505320D-01 -0.681085D-01 -0.415588D+00
      4   0.984692D-01  0.213980D-01  0.994756D-01 -0.612797D-01 -0.146958D-01
      5  -0.458170D-01 -0.320451D-01 -0.591369D-01  0.616838D-01 -0.107355D-01
      6  -0.115991D-01 -0.174133D-01  0.118449D-01  0.121008D-01  0.877442D-01
      7  -0.206177D-01 -0.338533D-02 -0.204900D-01  0.110261D-01  0.191005D-02
      8   0.174572D-01  0.264153D-01  0.410912D+00  0.467290D-01  0.109197D+00
      9   0.553160D-01 -0.862047D-01  0.466204D-01  0.274449D-01 -0.156468D+00
     10  -0.246251D+00 -0.894155D-01 -0.196283D+00  0.108918D+00  0.163825D-01
     11   0.505694D-01 -0.992349D-01  0.524441D-01  0.753310D-01 -0.748171D-01
     12  -0.623622D-02  0.105619D+00 -0.953786D-01  0.480019D-02  0.169626D+00
     13  -0.265876D-01  0.778703D-01  0.740342D-01 -0.223833D-01 -0.126727D-01
     14  -0.123643D+00 -0.193849D-01  0.955435D-01  0.232522D+00 -0.135864D-01
     15  -0.194759D-01  0.363174D-01  0.406799D-02 -0.264634D-01  0.135931D+00
     16   0.262732D-01 -0.295275D-01  0.772946D-01  0.427544D-01  0.174550D-01
                31            32            33            34            35 
      1  -0.770186D+03 -0.770186D+03 -0.770185D+03 -0.770183D+03 -0.770181D+03
      2   0.222167D+00  0.487049D-01 -0.192026D-01 -0.225676D+00 -0.357368D-01
      3  -0.200904D+00  0.123858D+00  0.290425D+00 -0.100428D+00 -0.345064D-01
      4  -0.609080D-01  0.899118D-01  0.810001D-01 -0.714670D-02  0.370418D-01
      5  -0.471219D-01 -0.102947D-01  0.355821D-02  0.477381D-01  0.971246D-02
      6   0.397306D-01 -0.272018D-01 -0.595800D-01  0.218759D-01  0.740199D-02
      7   0.116290D-01 -0.172625D-01 -0.186624D-01  0.144331D-02 -0.950041D-02
      8   0.172522D+00  0.919779D-01  0.511427D-01 -0.734627D-01 -0.118506D-01
      9   0.152322D+00 -0.799853D-01 -0.252920D+00  0.415519D-01  0.105968D+00
     10   0.117111D-01 -0.232613D+00 -0.586724D-02  0.902034D-01  0.258901D+00
     11   0.510180D+00  0.257164D-01 -0.412812D+00  0.462057D-01  0.126188D-01
     12  -0.939269D-01  0.596396D-02  0.686589D-01  0.550751D-01  0.341089D-02
     13  -0.743639D-01 -0.358634D-01  0.663847D-01 -0.723748D-01  0.254949D-01
     14  -0.111976D+00  0.328672D-02  0.125528D+00  0.145032D+00  0.121746D+00
     15  -0.997627D-01 -0.379987D-01  0.749071D-01  0.364774D-02  0.762861D-04
     16  -0.216335D-02  0.515461D-02  0.504509D-01 -0.525601D-02  0.638161D-01
                36 
      1  -0.770181D+03
      2   0.896651D-01
      3   0.275036D-01
      4  -0.308522D-01
      5  -0.230443D-01
      6  -0.396950D-02
      7   0.130922D-02
      8  -0.132519D+00
      9   0.599630D-01
     10  -0.200003D+00
     11  -0.270761D-01
     12  -0.772384D-02
     13   0.192100D-01
     14   0.244794D-01
     15   0.397612D-01
     16   0.473656D-03
 1\1\GINC-GRA724\SP\UB3LYP TD-FC\6-31G(d,p)\C16H17O2(2)\RZK\25-May-2019
 \0\\#p td=(50-50,nstates=36) ub3lyp/6-31g(d,p) scrf=(iefpcm,solvent=ac
 etonitrile) guess=(mix,always) empiricaldispersion=gd3\\Title Card Req
 uired\\0,2\C,0,-0.630615,-1.341632,-0.628358\C,0,0.679608,-1.30618,0.6
 0536\O,0,-1.146796,-2.521412,-0.34286\C,0,0.091079,-1.335594,-1.992882
 \H,0,-0.669023,-1.435259,-2.772572\H,0,0.657775,-0.421892,-2.170146\H,
 0,0.76799,-2.18804,-2.044793\C,0,-0.002168,-1.380068,1.971837\H,0,-0.6
 93286,-0.555794,2.14388\H,0,-0.56217,-2.313374,2.045821\H,0,0.771186,-
 1.359995,2.74492\C,0,-1.563627,-0.155599,-0.405352\C,0,-2.741098,-0.34
 7201,0.332425\C,0,-1.298651,1.121842,-0.920808\C,0,-3.625252,0.706727,
 0.558166\H,0,-2.952217,-1.337671,0.719718\C,0,-2.183615,2.178647,-0.69
 8304\H,0,-0.394713,1.305876,-1.489204\C,0,-3.348611,1.97666,0.043919\H
 ,0,-4.531796,0.53697,1.132024\H,0,-1.959068,3.160478,-1.104711\H,0,-4.
 035683,2.799515,0.217918\C,0,1.542563,-0.101453,0.390853\C,0,2.699334,
 -0.190927,-0.405408\C,0,1.222177,1.13825,0.972458\C,0,3.512568,0.92197
 6,-0.606354\H,0,2.955426,-1.141995,-0.855206\C,0,2.035403,2.250797,0.7
 68074\H,0,0.330579,1.242164,1.578152\C,0,3.18293,2.148242,-0.022481\H,
 0,4.40424,0.832437,-1.219368\H,0,1.771237,3.199059,1.225845\H,0,3.8147
 99,3.016686,-0.182121\O,0,1.413838,-2.462853,0.344692\H,0,0.756232,-3.
 171984,0.236342\\Version=ES64L-G16RevB.01\State=2-A\HF=-770.3945559\S2
 =0.759122\S2-1=0.\S2A=0.750052\RMSD=5.837e-09\PG=C01 [X(C16H17O2)]\\@


 The best way to pay for a lovely moment is to enjoy it.
 -- Richard Bach
 Job cpu time:       0 days 15 hours 14 minutes 22.4 seconds.
 Elapsed time:       0 days  0 hours 28 minutes 37.2 seconds.
 File lengths (MBytes):  RWF=   2181 Int=      0 D2E=      0 Chk=    178 Scr=      1
 Normal termination of Gaussian 16 at Sat May 25 04:44:53 2019.
