 Entering Gaussian System, Link 0=g16
 Initial command:
 /opt/software/gaussian/g16.b01/l1.exe "/localscratch/rzk.15153370.0/Gau-17028.inp" -scrdir="/localscratch/rzk.15153370.0/"
 Entering Link 1 = /opt/software/gaussian/g16.b01/l1.exe PID=     17032.
  
 Copyright (c) 1988-2017, Gaussian, Inc.  All Rights Reserved.
  
 This is part of the Gaussian(R) 16 program.  It is based on
 the Gaussian(R) 09 system (copyright 2009, Gaussian, Inc.),
 the Gaussian(R) 03 system (copyright 2003, Gaussian, Inc.),
 the Gaussian(R) 98 system (copyright 1998, Gaussian, Inc.),
 the Gaussian(R) 94 system (copyright 1995, Gaussian, Inc.),
 the Gaussian 92(TM) system (copyright 1992, Gaussian, Inc.),
 the Gaussian 90(TM) system (copyright 1990, Gaussian, Inc.),
 the Gaussian 88(TM) system (copyright 1988, Gaussian, Inc.),
 the Gaussian 86(TM) system (copyright 1986, Carnegie Mellon
 University), and the Gaussian 82(TM) system (copyright 1983,
 Carnegie Mellon University). Gaussian is a federally registered
 trademark of Gaussian, Inc.
  
 This software contains proprietary and confidential information,
 including trade secrets, belonging to Gaussian, Inc.
  
 This software is provided under written license and may be
 used, copied, transmitted, or stored only in accord with that
 written license.
  
 The following legend is applicable only to US Government
 contracts under FAR:
  
                    RESTRICTED RIGHTS LEGEND
  
 Use, reproduction and disclosure by the US Government is
 subject to restrictions as set forth in subparagraphs (a)
 and (c) of the Commercial Computer Software - Restricted
 Rights clause in FAR 52.227-19.
  
 Gaussian, Inc.
 340 Quinnipiac St., Bldg. 40, Wallingford CT 06492
  
  
 ---------------------------------------------------------------
 Warning -- This program may not be used in any manner that
 competes with the business of Gaussian, Inc. or will provide
 assistance to any competitor of Gaussian, Inc.  The licensee
 of this program is prohibited from giving any competitor of
 Gaussian, Inc. access to this program.  By using this program,
 the user acknowledges that Gaussian, Inc. is engaged in the
 business of creating and licensing software in the field of
 computational chemistry and represents and warrants to the
 licensee that it is not a competitor of Gaussian, Inc. and that
 it will not use this program in any manner prohibited above.
 ---------------------------------------------------------------
  

 Cite this work as:
 Gaussian 16, Revision B.01,
 M. J. Frisch, G. W. Trucks, H. B. Schlegel, G. E. Scuseria, 
 M. A. Robb, J. R. Cheeseman, G. Scalmani, V. Barone, 
 G. A. Petersson, H. Nakatsuji, X. Li, M. Caricato, A. V. Marenich, 
 J. Bloino, B. G. Janesko, R. Gomperts, B. Mennucci, H. P. Hratchian, 
 J. V. Ortiz, A. F. Izmaylov, J. L. Sonnenberg, D. Williams-Young, 
 F. Ding, F. Lipparini, F. Egidi, J. Goings, B. Peng, A. Petrone, 
 T. Henderson, D. Ranasinghe, V. G. Zakrzewski, J. Gao, N. Rega, 
 G. Zheng, W. Liang, M. Hada, M. Ehara, K. Toyota, R. Fukuda, 
 J. Hasegawa, M. Ishida, T. Nakajima, Y. Honda, O. Kitao, H. Nakai, 
 T. Vreven, K. Throssell, J. A. Montgomery, Jr., J. E. Peralta, 
 F. Ogliaro, M. J. Bearpark, J. J. Heyd, E. N. Brothers, K. N. Kudin, 
 V. N. Staroverov, T. A. Keith, R. Kobayashi, J. Normand, 
 K. Raghavachari, A. P. Rendell, J. C. Burant, S. S. Iyengar, 
 J. Tomasi, M. Cossi, J. M. Millam, M. Klene, C. Adamo, R. Cammi, 
 J. W. Ochterski, R. L. Martin, K. Morokuma, O. Farkas, 
 J. B. Foresman, and D. J. Fox, Gaussian, Inc., Wallingford CT, 2016.
 
 ******************************************
 Gaussian 16:  ES64L-G16RevB.01 20-Dec-2017
                25-May-2019 
 ******************************************
 %NProcShared=32
 Will use up to   32 processors via shared memory.
 %chk=AH-A_7.chk
 ----------------------------------------------------------------------
 #p td=(50-50,nstates=36) ub3lyp/6-31g(d,p) scrf=(iefpcm,solvent=aceton
 itrile) guess=(mix,always) empiricaldispersion=gd3
 ----------------------------------------------------------------------
 1/38=1,172=1/1;
 2/12=2,17=6,18=5,40=1/2;
 3/5=1,6=6,7=101,11=2,25=1,30=1,70=2201,72=2,74=-5,116=2,124=31/1,2,3,8;
 4/13=-1/1;
 5/5=2,38=5,53=2/2;
 8/6=1,10=2,108=36/1;
 9/41=36,42=1,48=2,70=2/14;
 6/7=2,8=2,9=2,10=2/1;
 99/5=1,9=1/99;
 Leave Link    1 at Sat May 25 04:19:40 2019, MaxMem=           0 cpu:               2.3 elap:               0.1
 (Enter /opt/software/gaussian/g16.b01/l101.exe)
 -------------------
 Title Card Required
 -------------------
 Symbolic Z-matrix:
 Charge =  0 Multiplicity = 2
 C                    -1.00956  -1.42948  -0.92339 
 C                     0.75786  -1.26689   0.97656 
 O                    -1.40818  -2.49678  -0.42719 
 C                    -0.00811  -1.4661   -2.05959 
 H                    -0.55589  -1.3424   -3.00152 
 H                     0.74212  -0.67706  -2.00458 
 H                     0.48972  -2.4354   -2.06198 
 C                    -0.23953  -1.20655   2.09246 
 H                    -0.68716  -0.22001   2.20536 
 H                    -1.04629  -1.92158   1.90804 
 H                     0.24458  -1.47995   3.03988 
 C                    -1.67291  -0.13929  -0.58036 
 C                    -2.81562  -0.16753   0.23924 
 C                    -1.19887   1.10077  -1.04125 
 C                    -3.46217   1.01139   0.59632 
 H                    -3.179    -1.12899   0.58437 
 C                    -1.84585   2.28188  -0.68043 
 H                    -0.3148    1.15288  -1.66519 
 C                    -2.97645   2.24158   0.13904 
 H                    -4.34414   0.9757    1.22873 
 H                    -1.46325   3.23415  -1.03459 
 H                    -3.47799   3.16301   0.41944 
 C                     1.61854  -0.19044   0.59475 
 C                     2.71433  -0.415    -0.28484 
 C                     1.39183   1.14198   1.03423 
 C                     3.52425   0.63371  -0.6997 
 H                     2.90606  -1.42338  -0.63165 
 C                     2.20852   2.18226   0.60986 
 H                     0.56521   1.35964   1.69986 
 C                     3.28021   1.94153  -0.25923 
 H                     4.35433   0.43435  -1.37156 
 H                     2.00825   3.19184   0.95698 
 H                     3.91456   2.75893  -0.58764 
 O                     1.14674  -2.51791   0.59387 
 H                     0.33639  -3.04723   0.46048 
 
 ITRead=  0  0  0  0  0  0  0  0  0  0  0  0  0  0  0  0  0  0  0  0
 ITRead=  0  0  0  0  0  0  0  0  0  0  0  0  0  0  0
 MicOpt= -1 -1 -1 -1 -1 -1 -1 -1 -1 -1 -1 -1 -1 -1 -1 -1 -1 -1 -1 -1
 MicOpt= -1 -1 -1 -1 -1 -1 -1 -1 -1 -1 -1 -1 -1 -1 -1
 NAtoms=     35 NQM=       35 NQMF=       0 NMMI=      0 NMMIF=      0
                NMic=       0 NMicF=      0.
                    Isotopes and Nuclear Properties:
 (Nuclear quadrupole moments (NQMom) in fm**2, nuclear magnetic moments (NMagM)
  in nuclear magnetons)

  Atom         1           2           3           4           5           6           7           8           9          10
 IAtWgt=          12          12          16          12           1           1           1          12           1           1
 AtmWgt=  12.0000000  12.0000000  15.9949146  12.0000000   1.0078250   1.0078250   1.0078250  12.0000000   1.0078250   1.0078250
 NucSpn=           0           0           0           0           1           1           1           0           1           1
 AtZEff=  -0.0000000  -0.0000000  -0.0000000  -0.0000000  -0.0000000  -0.0000000  -0.0000000  -0.0000000  -0.0000000  -0.0000000
 NQMom=    0.0000000   0.0000000   0.0000000   0.0000000   0.0000000   0.0000000   0.0000000   0.0000000   0.0000000   0.0000000
 NMagM=    0.0000000   0.0000000   0.0000000   0.0000000   2.7928460   2.7928460   2.7928460   0.0000000   2.7928460   2.7928460
 AtZNuc=   6.0000000   6.0000000   8.0000000   6.0000000   1.0000000   1.0000000   1.0000000   6.0000000   1.0000000   1.0000000

  Atom        11          12          13          14          15          16          17          18          19          20
 IAtWgt=           1          12          12          12          12           1          12           1          12           1
 AtmWgt=   1.0078250  12.0000000  12.0000000  12.0000000  12.0000000   1.0078250  12.0000000   1.0078250  12.0000000   1.0078250
 NucSpn=           1           0           0           0           0           1           0           1           0           1
 AtZEff=  -0.0000000  -0.0000000  -0.0000000  -0.0000000  -0.0000000  -0.0000000  -0.0000000  -0.0000000  -0.0000000  -0.0000000
 NQMom=    0.0000000   0.0000000   0.0000000   0.0000000   0.0000000   0.0000000   0.0000000   0.0000000   0.0000000   0.0000000
 NMagM=    2.7928460   0.0000000   0.0000000   0.0000000   0.0000000   2.7928460   0.0000000   2.7928460   0.0000000   2.7928460
 AtZNuc=   1.0000000   6.0000000   6.0000000   6.0000000   6.0000000   1.0000000   6.0000000   1.0000000   6.0000000   1.0000000

  Atom        21          22          23          24          25          26          27          28          29          30
 IAtWgt=           1           1          12          12          12          12           1          12           1          12
 AtmWgt=   1.0078250   1.0078250  12.0000000  12.0000000  12.0000000  12.0000000   1.0078250  12.0000000   1.0078250  12.0000000
 NucSpn=           1           1           0           0           0           0           1           0           1           0
 AtZEff=  -0.0000000  -0.0000000  -0.0000000  -0.0000000  -0.0000000  -0.0000000  -0.0000000  -0.0000000  -0.0000000  -0.0000000
 NQMom=    0.0000000   0.0000000   0.0000000   0.0000000   0.0000000   0.0000000   0.0000000   0.0000000   0.0000000   0.0000000
 NMagM=    2.7928460   2.7928460   0.0000000   0.0000000   0.0000000   0.0000000   2.7928460   0.0000000   2.7928460   0.0000000
 AtZNuc=   1.0000000   1.0000000   6.0000000   6.0000000   6.0000000   6.0000000   1.0000000   6.0000000   1.0000000   6.0000000

  Atom        31          32          33          34          35
 IAtWgt=           1           1           1          16           1
 AtmWgt=   1.0078250   1.0078250   1.0078250  15.9949146   1.0078250
 NucSpn=           1           1           1           0           1
 AtZEff=  -0.0000000  -0.0000000  -0.0000000  -0.0000000  -0.0000000
 NQMom=    0.0000000   0.0000000   0.0000000   0.0000000   0.0000000
 NMagM=    2.7928460   2.7928460   2.7928460   0.0000000   2.7928460
 AtZNuc=   1.0000000   1.0000000   1.0000000   8.0000000   1.0000000
 Leave Link  101 at Sat May 25 04:19:40 2019, MaxMem=   104857600 cpu:               5.4 elap:               0.2
 (Enter /opt/software/gaussian/g16.b01/l202.exe)
                          Input orientation:                          
 ---------------------------------------------------------------------
 Center     Atomic      Atomic             Coordinates (Angstroms)
 Number     Number       Type             X           Y           Z
 ---------------------------------------------------------------------
      1          6           0       -1.009558   -1.429484   -0.923388
      2          6           0        0.757856   -1.266886    0.976562
      3          8           0       -1.408175   -2.496782   -0.427185
      4          6           0       -0.008114   -1.466101   -2.059590
      5          1           0       -0.555889   -1.342397   -3.001524
      6          1           0        0.742117   -0.677057   -2.004582
      7          1           0        0.489721   -2.435399   -2.061979
      8          6           0       -0.239528   -1.206546    2.092455
      9          1           0       -0.687155   -0.220009    2.205364
     10          1           0       -1.046290   -1.921581    1.908039
     11          1           0        0.244579   -1.479945    3.039877
     12          6           0       -1.672910   -0.139287   -0.580358
     13          6           0       -2.815617   -0.167530    0.239243
     14          6           0       -1.198870    1.100769   -1.041249
     15          6           0       -3.462170    1.011392    0.596320
     16          1           0       -3.178998   -1.128989    0.584365
     17          6           0       -1.845849    2.281877   -0.680434
     18          1           0       -0.314804    1.152883   -1.665190
     19          6           0       -2.976454    2.241580    0.139040
     20          1           0       -4.344136    0.975696    1.228733
     21          1           0       -1.463245    3.234153   -1.034588
     22          1           0       -3.477986    3.163012    0.419441
     23          6           0        1.618542   -0.190435    0.594753
     24          6           0        2.714328   -0.414996   -0.284844
     25          6           0        1.391833    1.141976    1.034233
     26          6           0        3.524246    0.633708   -0.699696
     27          1           0        2.906057   -1.423379   -0.631646
     28          6           0        2.208518    2.182263    0.609860
     29          1           0        0.565210    1.359641    1.699858
     30          6           0        3.280214    1.941529   -0.259231
     31          1           0        4.354328    0.434349   -1.371558
     32          1           0        2.008252    3.191835    0.956976
     33          1           0        3.914556    2.758934   -0.587636
     34          8           0        1.146735   -2.517905    0.593873
     35          1           0        0.336390   -3.047233    0.460484
 ---------------------------------------------------------------------
                    Distance matrix (angstroms):
                    1          2          3          4          5
     1  C    0.000000
     2  C    2.600000   0.000000
     3  O    1.242674   2.859168   0.000000
     4  C    1.514987   3.137613   2.384789   0.000000
     5  H    2.128861   4.190083   2.947239   1.096631   0.000000
     6  H    2.191687   3.038974   3.228519   1.090166   1.766746
     7  H    2.134500   3.266504   2.505659   1.089672   1.780646
     8  C    3.120570   1.497876   3.062520   4.166581   5.105601
     9  H    3.369846   2.166555   3.554417   4.494850   5.328102
    10  H    2.874106   2.133358   2.432095   4.126421   4.967872
    11  H    4.157268   2.136847   3.973169   5.105743   6.095752
    12  C    1.490743   3.099049   2.377252   2.592317   2.925279
    13  C    2.491202   3.810765   2.801863   3.853958   4.121802
    14  C    2.540061   3.675068   3.655579   3.007281   3.197681
    15  C    3.779245   4.810796   4.192105   5.012218   5.189535
    16  H    2.658963   3.958744   2.455587   4.142300   4.448016
    17  C    3.812166   4.703045   4.805338   4.396212   4.492974
    18  H    2.775171   3.739617   4.006017   2.666212   2.840833
    19  C    4.298156   5.191902   5.023165   5.233729   5.344826
    20  H    4.640682   5.578807   4.839425   5.964606   6.133469
    21  H    4.686972   5.407159   5.763297   5.025975   5.063294
    22  H    5.383990   6.154408   6.085570   6.293989   6.367131
    23  C    3.278247   1.430142   3.940128   3.364353   4.357565
    24  C    3.912065   2.478839   4.620511   3.415587   4.351407
    25  C    4.026334   2.491560   4.818334   4.281782   5.123774
    26  C    4.986199   3.751668   5.848334   4.328519   5.084378
    27  H    3.926473   2.688046   4.450460   3.245496   4.196183
    28  C    5.074601   3.759723   6.004115   5.034876   5.753892
    29  H    4.140113   2.731101   4.826029   4.737823   5.537225
    30  C    5.496087   4.264200   6.458158   5.066195   5.746306
    31  H    5.696139   4.619792   6.533744   4.807910   5.470269
    32  H    5.830912   4.630774   6.778513   5.904386   6.542461
    33  H    6.473212   5.349645   7.481962   5.950202   6.529368
    34  O    2.852427   1.364817   2.751467   3.079096   4.148208
    35  H    2.518688   1.900949   2.033337   2.994901   3.960824
                    6          7          8          9         10
     6  H    0.000000
     7  H    1.777291   0.000000
     8  C    4.246139   4.393314   0.000000
     9  H    4.469380   4.950071   1.089208   0.000000
    10  H    4.478375   4.287701   1.093686   1.764292   0.000000
    11  H    5.132128   5.196337   1.098506   1.775381   1.772694
    12  C    2.854815   3.484868   3.215207   2.956091   3.124315
    13  C    4.236961   4.622133   3.339189   2.898057   2.998682
    14  C    2.802875   4.049409   4.008010   3.542147   4.225657
    15  C    5.224134   5.879147   4.188447   3.435998   4.019877
    16  H    4.720385   4.708433   3.304669   3.108563   2.632253
    17  C    4.148039   5.442081   4.736906   3.991220   5.000855
    18  H    2.140315   3.698712   4.437620   4.123671   4.770258
    19  C    5.190504   6.223583   4.816240   3.945885   4.918008
    20  H    6.249471   6.769825   4.728213   3.969512   4.442011
    21  H    4.593699   6.083866   5.567377   4.799046   5.951008
    22  H    6.199297   7.296736   5.690310   4.735302   5.829422
    23  C    2.785940   3.656819   2.593842   2.812682   3.438447
    24  C    2.629789   3.491291   3.873418   4.220100   4.606602
    25  C    3.600751   4.816425   3.049054   2.747497   4.011653
    26  C    3.340819   4.525878   5.034743   5.186917   5.849751
    27  H    2.669192   2.984747   4.166827   4.733698   4.724326
    28  C    4.142626   5.604979   4.435656   4.086743   5.396349
    29  H    4.231112   5.344104   2.717913   2.078280   3.661515
    30  C    4.042917   5.494930   5.275357   5.146503   6.191875
    31  H    3.831972   4.862851   5.982929   6.216036   6.743355
    32  H    5.034109   6.563977   5.068292   4.523756   6.031730
    33  H    4.886526   6.394081   6.337534   6.152292   7.262617
    34  O    3.210048   2.737156   2.426342   3.352668   2.625261
    35  H    3.443675   2.600129   2.526488   3.476413   2.296587
                   11         12         13         14         15
    11  H    0.000000
    12  C    4.310479   0.000000
    13  C    4.350952   1.406529   0.000000
    14  C    5.039764   1.405302   2.421180   0.000000
    15  C    5.090945   2.431067   1.391184   2.795022   0.000000
    16  H    4.227717   2.145784   1.084232   3.396373   2.159065
    17  C    5.688753   2.429395   2.790314   1.394197   2.420067
    18  H    5.420549   2.165875   3.409461   1.083324   3.878190
    19  C    5.713113   2.808076   2.416551   2.419574   1.399424
    20  H    5.510601   3.413421   2.149983   3.880871   1.085857
    21  H    6.460700   3.410335   3.875952   2.149713   3.405324
    22  H    6.502401   3.893979   3.400546   3.403062   2.158936
    23  C    3.086947   3.495305   4.448447   3.504500   5.220922
    24  C    4.276394   4.405814   5.560234   4.264131   6.400013
    25  C    3.494749   3.693398   4.477661   3.319799   4.875466
    26  C    5.404457   5.255682   6.458905   4.758427   7.115638
    27  H    4.535057   4.755887   5.922260   4.836272   6.927505
    28  C    4.813918   4.676719   5.558850   3.937776   5.790322
    29  H    3.156217   3.529214   3.986933   3.269963   4.190330
    30  C    5.639652   5.382040   6.469603   4.623919   6.859801
    31  H    6.325766   6.105952   7.373266   5.602787   8.081037
    32  H    5.410596   5.197184   5.922009   4.318691   5.899993
    33  H    6.677999   6.294403   7.385333   5.394664   7.672792
    34  O    2.806097   3.871310   4.620634   4.611972   5.804993
    35  H    3.019617   3.684669   4.275136   4.670990   5.560571
                   16         17         18         19         20
    16  H    0.000000
    17  C    3.874404   0.000000
    18  H    4.297795   2.142072   0.000000
    19  C    3.405888   1.396936   3.394833   0.000000
    20  H    2.490473   3.404771   4.964041   2.158807   0.000000
    21  H    4.960023   1.085652   2.459321   2.156944   4.303810
    22  H    4.305562   2.156385   4.288592   1.085908   2.487875
    23  C    4.888495   4.443021   3.263384   5.218847   6.108627
    24  C    5.999717   5.312705   3.679571   6.294607   7.351657
    25  C    5.123686   3.836931   3.193683   4.592650   5.741674
    26  C    7.049070   5.617362   3.992496   6.748913   8.108467
    27  H    6.212346   6.025937   4.251974   6.973508   7.860144
    28  C    6.323794   4.255899   3.550018   5.206642   6.691493
    29  H    4.632137   3.511341   3.484354   3.969553   4.946822
    30  C    7.201469   5.154587   3.939903   6.276507   7.828000
    31  H    7.938555   6.506397   4.733213   7.699893   9.094935
    32  H    6.761355   4.285234   4.053353   5.139971   6.733347
    33  H    8.173619   5.780870   4.650592   6.948506   8.642056
    34  O    4.543253   5.798045   4.551280   6.313498   6.538957
    35  H    4.006614   5.870543   4.752212   6.248984   6.219444
                   21         22         23         24         25
    21  H    0.000000
    22  H    2.485647   0.000000
    23  C    4.886713   6.103355   0.000000
    24  C    5.597367   7.186300   1.422978   0.000000
    25  C    4.099841   5.308266   1.421217   2.431691   0.000000
    26  C    5.634672   7.528685   2.446736   1.388470   2.795001
    27  H    6.398888   7.930685   2.163770   1.083452   3.413074
    28  C    4.158428   5.773600   2.444994   2.793223   1.388979
    29  H    3.886595   4.608584   2.175661   3.421562   1.083393
    30  C    4.977194   6.901151   2.834733   2.423653   2.424524
    31  H    6.465030   8.485188   3.426552   2.142880   3.881358
    32  H    4.002425   5.512584   3.423862   3.879419   2.141930
    33  H    5.417226   7.471758   3.920268   3.406767   3.407219
    34  O    6.523040   7.327434   2.374809   2.766174   3.694417
    35  H    6.702965   7.288230   3.134204   3.624745   4.358052
                   26         27         28         29         30
    26  C    0.000000
    27  H    2.149045   0.000000
    28  C    2.417457   3.876668   0.000000
    29  H    3.878238   4.319800   2.136648   0.000000
    30  C    1.401412   3.406067   1.400644   3.398216   0.000000
    31  H    1.086360   2.469031   3.403780   4.964592   2.159302
    32  H    3.403941   4.962859   1.086201   2.447688   2.158776
    33  H    2.163674   4.302412   2.162663   4.290544   1.085537
    34  O    4.154340   2.407301   4.818632   4.073909   5.016580
    35  H    5.005774   3.229990   5.556510   4.583552   5.837109
                   31         32         33         34         35
    31  H    0.000000
    32  H    4.304634   0.000000
    33  H    2.492314   2.491430   0.000000
    34  O    4.781984   5.785774   6.074687   0.000000
    35  H    5.623310   6.478240   6.900247   0.977057   0.000000
 Stoichiometry    C16H17O2(2)
 Framework group  C1[X(C16H17O2)]
 Deg. of freedom    99
 Full point group                 C1      NOp   1
 Largest Abelian subgroup         C1      NOp   1
 Largest concise Abelian subgroup C1      NOp   1
                         Standard orientation:                         
 ---------------------------------------------------------------------
 Center     Atomic      Atomic             Coordinates (Angstroms)
 Number     Number       Type             X           Y           Z
 ---------------------------------------------------------------------
      1          6           0       -1.009558   -1.429484   -0.923388
      2          6           0        0.757856   -1.266886    0.976562
      3          8           0       -1.408175   -2.496782   -0.427185
      4          6           0       -0.008114   -1.466101   -2.059590
      5          1           0       -0.555889   -1.342397   -3.001524
      6          1           0        0.742117   -0.677057   -2.004582
      7          1           0        0.489721   -2.435399   -2.061979
      8          6           0       -0.239528   -1.206546    2.092455
      9          1           0       -0.687155   -0.220009    2.205364
     10          1           0       -1.046290   -1.921581    1.908039
     11          1           0        0.244579   -1.479945    3.039877
     12          6           0       -1.672910   -0.139287   -0.580358
     13          6           0       -2.815617   -0.167530    0.239243
     14          6           0       -1.198870    1.100769   -1.041249
     15          6           0       -3.462170    1.011392    0.596320
     16          1           0       -3.178998   -1.128989    0.584365
     17          6           0       -1.845849    2.281877   -0.680434
     18          1           0       -0.314804    1.152883   -1.665190
     19          6           0       -2.976454    2.241580    0.139040
     20          1           0       -4.344136    0.975696    1.228733
     21          1           0       -1.463245    3.234153   -1.034588
     22          1           0       -3.477986    3.163012    0.419441
     23          6           0        1.618542   -0.190435    0.594753
     24          6           0        2.714328   -0.414996   -0.284844
     25          6           0        1.391833    1.141976    1.034233
     26          6           0        3.524246    0.633708   -0.699696
     27          1           0        2.906057   -1.423379   -0.631646
     28          6           0        2.208518    2.182263    0.609860
     29          1           0        0.565210    1.359641    1.699858
     30          6           0        3.280214    1.941529   -0.259231
     31          1           0        4.354328    0.434349   -1.371558
     32          1           0        2.008252    3.191835    0.956976
     33          1           0        3.914556    2.758934   -0.587636
     34          8           0        1.146735   -2.517905    0.593873
     35          1           0        0.336390   -3.047233    0.460484
 ---------------------------------------------------------------------
 Rotational constants (GHZ):           0.5797535           0.3823145           0.2943135
 Leave Link  202 at Sat May 25 04:19:40 2019, MaxMem=   104857600 cpu:               2.0 elap:               0.1
 (Enter /opt/software/gaussian/g16.b01/l301.exe)
 Standard basis: 6-31G(d,p) (6D, 7F)
 Ernie: Thresh=  0.10000D-02 Tol=  0.10000D-05 Strict=F.
 There are   355 symmetry adapted cartesian basis functions of A   symmetry.
 There are   355 symmetry adapted basis functions of A   symmetry.
   355 basis functions,   623 primitive gaussians,   355 cartesian basis functions
    65 alpha electrons       64 beta electrons
       nuclear repulsion energy      1311.8447157847 Hartrees.
 IExCor=  402 DFT=T Ex+Corr=B3LYP ExCW=0 ScaHFX=  0.200000
 ScaDFX=  0.800000  0.720000  1.000000  0.810000 ScalE2=  1.000000  1.000000
 IRadAn=      5 IRanWt=     -1 IRanGd=            0 ICorTp=0 IEmpDi=131
 NAtoms=   35 NActive=   35 NUniq=   35 SFac= 1.00D+00 NAtFMM=   60 NAOKFM=F Big=F
 Integral buffers will be    131072 words long.
 Raffenetti 2 integral format.
 Two-electron integral symmetry is turned on.
 R6Disp:  Grimme-D3 Dispersion energy=       -0.0421239782 Hartrees.
 Nuclear repulsion after empirical dispersion term =     1311.8025918065 Hartrees.
 ------------------------------------------------------------------------------
 Polarizable Continuum Model (PCM)
 =================================
 Model                : PCM.
 Atomic radii         : UFF (Universal Force Field).
 Polarization charges : Total charges.
 Charge compensation  : None.
 Solution method      : On-the-fly selection.
 Cavity type          : Scaled VdW (van der Waals Surface) (Alpha=1.100).
 Cavity algorithm     : GePol (No added spheres)
                        Default sphere list used, NSphG=   35.
                        Lebedev-Laikov grids with approx.  5.0 points / Ang**2.
                        Smoothing algorithm: York/Karplus (Gamma=1.0000).
                        Polarization charges: spherical gaussians, with
                                              point-specific exponents (IZeta= 3).
                        Self-potential: point-specific (ISelfS= 7).
                        Self-field    : sphere-specific E.n sum rule (ISelfD= 2).
 Solvent              : Acetonitrile, Eps=  35.688000 Eps(inf)=   1.806874
 ------------------------------------------------------------------------------
 GePol: Number of generator spheres                  =      35
 GePol: Total number of spheres                      =      35
 GePol: Number of exposed spheres                    =      35 (100.00%)
 GePol: Number of points                             =    2417
 GePol: Average weight of points                     =       0.13
 GePol: Minimum weight of points                     =   0.19D-10
 GePol: Maximum weight of points                     =    0.20577
 GePol: Number of points with low weight             =     166
 GePol: Fraction of low-weight points (<1% of avg)   =       6.87%
 GePol: Cavity surface area                          =    311.776 Ang**2
 GePol: Cavity volume                                =    356.632 Ang**3
 Leave Link  301 at Sat May 25 04:19:40 2019, MaxMem=   104857600 cpu:               3.5 elap:               0.2
 (Enter /opt/software/gaussian/g16.b01/l302.exe)
 NPDir=0 NMtPBC=     1 NCelOv=     1 NCel=       1 NClECP=     1 NCelD=      1
         NCelK=      1 NCelE2=     1 NClLst=     1 CellRange=     0.0.
 One-electron integrals computed using PRISM.
 One-electron integral symmetry used in STVInt
 PrsmSu:  requested number of processors reduced to:  28 ShMem   1 Linda.
 NBasis=   355 RedAO= T EigKep=  4.57D-04  NBF=   355
 NBsUse=   355 1.00D-06 EigRej= -1.00D+00 NBFU=   355
 Precomputing XC quadrature grid using
 IXCGrd= 4 IRadAn=           5 IRanWt=          -1 IRanGd=           0 AccXCQ= 0.00D+00.
 Generated NRdTot=       0 NPtTot=           0 NUsed=           0 NTot=          32
 NSgBfM=   354   354   354   354   354 MxSgAt=    35 MxSgA2=    35.
 Leave Link  302 at Sat May 25 04:19:41 2019, MaxMem=   104857600 cpu:              16.4 elap:               0.6
 (Enter /opt/software/gaussian/g16.b01/l303.exe)
 DipDrv:  MaxL=1.
 Leave Link  303 at Sat May 25 04:19:41 2019, MaxMem=   104857600 cpu:               3.7 elap:               0.2
 (Enter /opt/software/gaussian/g16.b01/l308.exe)
 Leave Link  308 at Sat May 25 04:19:42 2019, MaxMem=   104857600 cpu:               3.4 elap:               0.2
 (Enter /opt/software/gaussian/g16.b01/l401.exe)
 ExpMin= 1.61D-01 ExpMax= 5.48D+03 ExpMxC= 8.25D+02 IAcc=3 IRadAn=         5 AccDes= 0.00D+00
 Harris functional with IExCor=  402 and IRadAn=       5 diagonalized for initial guess.
 HarFok:  IExCor=  402 AccDes= 0.00D+00 IRadAn=         5 IDoV= 1 UseB2=F ITyADJ=14
 ICtDFT=  3500011 ScaDFX=  1.000000  1.000000  1.000000  1.000000
 FoFCou: FMM=F IPFlag=           0 FMFlag=      100000 FMFlg1=           0
         NFxFlg=           0 DoJE=T BraDBF=F KetDBF=T FulRan=T
         wScrn=  0.000000 ICntrl=       500 IOpCl=  0 I1Cent=   200000004 NGrid=           0
         NMat0=    1 NMatS0=      1 NMatT0=    0 NMatD0=    1 NMtDS0=    0 NMtDT0=    0
 Petite list used in FoFCou.
 Harris En= -770.473874913640    
 JPrj=0 DoOrth=F DoCkMO=T.
 Mixing orbitals, IMix= 1 IMixAn=  0 NRI=1 NE=   65 Coef=  7.07106781D-01  7.07106781D-01
 Mixing orbitals, IMix= 1 IMixAn=  0 NRI=1 NE=   64 Coef= -7.07106781D-01  7.07106781D-01
 Initial guess <Sx>= 0.0000 <Sy>= 0.0000 <Sz>= 0.5000 <S**2>= 1.0000 S= 0.6180
 Leave Link  401 at Sat May 25 04:19:43 2019, MaxMem=   104857600 cpu:              28.2 elap:               1.0
 (Enter /opt/software/gaussian/g16.b01/l502.exe)
 Integral symmetry usage will be decided dynamically.
 UHF open shell SCF:
 Using DIIS extrapolation, IDIIS=  1040.
 NGot=   104857600 LenX=   104590331 LenY=   104463865
 Requested convergence on RMS density matrix=1.00D-08 within 128 cycles.
 Requested convergence on MAX density matrix=1.00D-06.
 Requested convergence on             energy=1.00D-06.
 No special actions if energy rises.
 Fock matrices will be formed incrementally for  20 cycles.

 Cycle   1  Pass 1  IDiag  1:
 FoFJK:  IHMeth= 1 ICntrl=       0 DoSepK=F KAlg= 0 I1Cent=           0 FoldK=F
 IRaf= 840000000 NMat=       1 IRICut=       1 DoRegI=T DoRafI=F ISym2E= 0 IDoP0=0 IntGTp=1.
 FoFCou: FMM=F IPFlag=           0 FMFlag=      100000 FMFlg1=           0
         NFxFlg=           0 DoJE=F BraDBF=F KetDBF=F FulRan=T
         wScrn=  0.000000 ICntrl=         0 IOpCl=  1 I1Cent=           0 NGrid=           0
         NMat0=    1 NMatS0=      1 NMatT0=    0 NMatD0=    1 NMtDS0=    0 NMtDT0=    0
 Symmetry not used in FoFCou.
 Inv3:  Mode=1 IEnd=    17525667.
 Iteration    1 A*A^-1 deviation from unit magnitude is 3.22D-15 for   1907.
 Iteration    1 A*A^-1 deviation from orthogonality  is 2.73D-15 for   1388     37.
 Iteration    1 A^-1*A deviation from unit magnitude is 3.22D-15 for   1907.
 Iteration    1 A^-1*A deviation from orthogonality  is 2.57D-14 for   1638   1587.
 E= -769.869113363440    
 DIIS: error= 2.30D-02 at cycle   1 NSaved=   1.
 NSaved= 1 IEnMin= 1 EnMin= -769.869113363440     IErMin= 1 ErrMin= 2.30D-02
 ErrMax= 2.30D-02  0.00D+00 EMaxC= 1.00D-01 BMatC= 1.82D+00 BMatP= 1.82D+00
 IDIUse=3 WtCom= 7.70D-01 WtEn= 2.30D-01
 Coeff-Com:  0.100D+01
 Coeff-En:   0.100D+01
 Coeff:      0.100D+01
 Gap=     0.003 Goal=   None    Shift=    0.000
 Gap=    -0.003 Goal=   None    Shift=    0.000
 GapD=   -0.003 DampG=0.250 DampE=0.500 DampFc=0.2500 IDamp=-1.
 Damping current iteration by 2.50D-01
 RMSDP=4.56D-03 MaxDP=1.59D-01              OVMax= 6.02D-01

 Cycle   2  Pass 1  IDiag  1:
 RMSU=  1.12D-03    CP:  9.86D-01
 E= -770.052342004415     Delta-E=       -0.183228640975 Rises=F Damp=T
 DIIS: error= 1.44D-02 at cycle   2 NSaved=   2.
 NSaved= 2 IEnMin= 2 EnMin= -770.052342004415     IErMin= 2 ErrMin= 1.44D-02
 ErrMax= 1.44D-02  0.00D+00 EMaxC= 1.00D-01 BMatC= 4.84D-01 BMatP= 1.82D+00
 IDIUse=3 WtCom= 8.56D-01 WtEn= 1.44D-01
 Coeff-Com: -0.830D+00 0.183D+01
 Coeff-En:   0.000D+00 0.100D+01
 Coeff:     -0.711D+00 0.171D+01
 Gap=     0.082 Goal=   None    Shift=    0.000
 Gap=     0.133 Goal=   None    Shift=    0.000
 RMSDP=2.07D-03 MaxDP=4.85D-02 DE=-1.83D-01 OVMax= 1.90D-01

 Cycle   3  Pass 1  IDiag  1:
 RMSU=  1.46D-03    CP:  9.57D-01  2.24D+00
 E= -770.388081282721     Delta-E=       -0.335739278306 Rises=F Damp=F
 DIIS: error= 7.16D-03 at cycle   3 NSaved=   3.
 NSaved= 3 IEnMin= 3 EnMin= -770.388081282721     IErMin= 3 ErrMin= 7.16D-03
 ErrMax= 7.16D-03  0.00D+00 EMaxC= 1.00D-01 BMatC= 1.51D-01 BMatP= 4.84D-01
 IDIUse=3 WtCom= 9.28D-01 WtEn= 7.16D-02
 Coeff-Com: -0.460D+00 0.971D+00 0.489D+00
 Coeff-En:   0.000D+00 0.000D+00 0.100D+01
 Coeff:     -0.427D+00 0.902D+00 0.526D+00
 Gap=     0.100 Goal=   None    Shift=    0.000
 Gap=     0.141 Goal=   None    Shift=    0.000
 RMSDP=8.46D-04 MaxDP=4.11D-02 DE=-3.36D-01 OVMax= 9.23D-02

 Cycle   4  Pass 1  IDiag  1:
 RMSU=  7.33D-04    CP:  9.60D-01  2.29D+00  7.16D-01
 E= -770.416396186062     Delta-E=       -0.028314903341 Rises=F Damp=F
 DIIS: error= 3.59D-03 at cycle   4 NSaved=   4.
 NSaved= 4 IEnMin= 4 EnMin= -770.416396186062     IErMin= 4 ErrMin= 3.59D-03
 ErrMax= 3.59D-03  0.00D+00 EMaxC= 1.00D-01 BMatC= 3.67D-02 BMatP= 1.51D-01
 IDIUse=3 WtCom= 9.64D-01 WtEn= 3.59D-02
 Coeff-Com: -0.486D-01 0.116D+00 0.325D+00 0.608D+00
 Coeff-En:   0.000D+00 0.000D+00 0.204D+00 0.796D+00
 Coeff:     -0.469D-01 0.112D+00 0.321D+00 0.615D+00
 Gap=     0.103 Goal=   None    Shift=    0.000
 Gap=     0.154 Goal=   None    Shift=    0.000
 RMSDP=3.42D-04 MaxDP=1.79D-02 DE=-2.83D-02 OVMax= 3.80D-02

 Cycle   5  Pass 1  IDiag  1:
 RMSU=  2.06D-04    CP:  9.59D-01  2.27D+00  8.39D-01  7.21D-01
 E= -770.424799183248     Delta-E=       -0.008402997186 Rises=F Damp=F
 DIIS: error= 8.30D-04 at cycle   5 NSaved=   5.
 NSaved= 5 IEnMin= 5 EnMin= -770.424799183248     IErMin= 5 ErrMin= 8.30D-04
 ErrMax= 8.30D-04  0.00D+00 EMaxC= 1.00D-01 BMatC= 1.99D-03 BMatP= 3.67D-02
 IDIUse=3 WtCom= 9.92D-01 WtEn= 8.30D-03
 Coeff-Com:  0.443D-02-0.288D-02 0.119D+00 0.297D+00 0.582D+00
 Coeff-En:   0.000D+00 0.000D+00 0.000D+00 0.000D+00 0.100D+01
 Coeff:      0.439D-02-0.286D-02 0.118D+00 0.295D+00 0.586D+00
 Gap=     0.107 Goal=   None    Shift=    0.000
 Gap=     0.157 Goal=   None    Shift=    0.000
 RMSDP=9.27D-05 MaxDP=4.12D-03 DE=-8.40D-03 OVMax= 9.68D-03

 Cycle   6  Pass 1  IDiag  1:
 RMSU=  8.30D-05    CP:  9.58D-01  2.28D+00  8.43D-01  7.67D-01  9.01D-01
 E= -770.425359471476     Delta-E=       -0.000560288229 Rises=F Damp=F
 DIIS: error= 4.91D-04 at cycle   6 NSaved=   6.
 NSaved= 6 IEnMin= 6 EnMin= -770.425359471476     IErMin= 6 ErrMin= 4.91D-04
 ErrMax= 4.91D-04  0.00D+00 EMaxC= 1.00D-01 BMatC= 3.78D-04 BMatP= 1.99D-03
 IDIUse=3 WtCom= 9.95D-01 WtEn= 4.91D-03
 Coeff-Com:  0.106D-01-0.208D-01-0.600D-02 0.187D-01 0.289D+00 0.708D+00
 Coeff-En:   0.000D+00 0.000D+00 0.000D+00 0.000D+00 0.000D+00 0.100D+01
 Coeff:      0.105D-01-0.207D-01-0.597D-02 0.186D-01 0.288D+00 0.710D+00
 Gap=     0.108 Goal=   None    Shift=    0.000
 Gap=     0.158 Goal=   None    Shift=    0.000
 RMSDP=5.15D-05 MaxDP=3.15D-03 DE=-5.60D-04 OVMax= 9.53D-03

 Cycle   7  Pass 1  IDiag  1:
 RMSU=  3.64D-05    CP:  9.58D-01  2.28D+00  8.46D-01  7.88D-01  1.06D+00
                    CP:  9.50D-01
 E= -770.425538432758     Delta-E=       -0.000178961281 Rises=F Damp=F
 DIIS: error= 2.67D-04 at cycle   7 NSaved=   7.
 NSaved= 7 IEnMin= 7 EnMin= -770.425538432758     IErMin= 7 ErrMin= 2.67D-04
 ErrMax= 2.67D-04  0.00D+00 EMaxC= 1.00D-01 BMatC= 6.50D-05 BMatP= 3.78D-04
 IDIUse=3 WtCom= 9.97D-01 WtEn= 2.67D-03
 Coeff-Com: -0.789D-04-0.463D-03-0.251D-01-0.630D-01-0.646D-01 0.223D+00
 Coeff-Com:  0.930D+00
 Coeff-En:   0.000D+00 0.000D+00 0.000D+00 0.000D+00 0.000D+00 0.000D+00
 Coeff-En:   0.100D+01
 Coeff:     -0.787D-04-0.462D-03-0.250D-01-0.628D-01-0.644D-01 0.222D+00
 Coeff:      0.930D+00
 Gap=     0.108 Goal=   None    Shift=    0.000
 Gap=     0.159 Goal=   None    Shift=    0.000
 RMSDP=3.07D-05 MaxDP=1.68D-03 DE=-1.79D-04 OVMax= 4.64D-03

 Cycle   8  Pass 1  IDiag  1:
 RMSU=  1.96D-05    CP:  9.58D-01  2.28D+00  8.50D-01  7.95D-01  1.12D+00
                    CP:  1.16D+00  1.14D+00
 E= -770.425589524075     Delta-E=       -0.000051091318 Rises=F Damp=F
 DIIS: error= 1.28D-04 at cycle   8 NSaved=   8.
 NSaved= 8 IEnMin= 8 EnMin= -770.425589524075     IErMin= 8 ErrMin= 1.28D-04
 ErrMax= 1.28D-04  0.00D+00 EMaxC= 1.00D-01 BMatC= 2.18D-05 BMatP= 6.50D-05
 IDIUse=3 WtCom= 9.99D-01 WtEn= 1.28D-03
 Coeff-Com: -0.179D-02 0.322D-02-0.119D-01-0.376D-01-0.897D-01-0.298D-01
 Coeff-Com:  0.480D+00 0.687D+00
 Coeff-En:   0.000D+00 0.000D+00 0.000D+00 0.000D+00 0.000D+00 0.000D+00
 Coeff-En:   0.000D+00 0.100D+01
 Coeff:     -0.179D-02 0.321D-02-0.119D-01-0.376D-01-0.896D-01-0.298D-01
 Coeff:      0.480D+00 0.688D+00
 Gap=     0.109 Goal=   None    Shift=    0.000
 Gap=     0.159 Goal=   None    Shift=    0.000
 RMSDP=1.47D-05 MaxDP=9.44D-04 DE=-5.11D-05 OVMax= 2.28D-03

 Cycle   9  Pass 1  IDiag  1:
 RMSU=  1.05D-05    CP:  9.58D-01  2.28D+00  8.49D-01  7.96D-01  1.14D+00
                    CP:  1.22D+00  1.37D+00  1.01D+00
 E= -770.425603830997     Delta-E=       -0.000014306922 Rises=F Damp=F
 DIIS: error= 8.20D-05 at cycle   9 NSaved=   9.
 NSaved= 9 IEnMin= 9 EnMin= -770.425603830997     IErMin= 9 ErrMin= 8.20D-05
 ErrMax= 8.20D-05  0.00D+00 EMaxC= 1.00D-01 BMatC= 4.52D-06 BMatP= 2.18D-05
 IDIUse=1 WtCom= 1.00D+00 WtEn= 0.00D+00
 Coeff-Com: -0.630D-03 0.126D-02 0.240D-02 0.266D-02-0.122D-01-0.697D-01
 Coeff-Com: -0.595D-01 0.271D+00 0.865D+00
 Coeff:     -0.630D-03 0.126D-02 0.240D-02 0.266D-02-0.122D-01-0.697D-01
 Coeff:     -0.595D-01 0.271D+00 0.865D+00
 Gap=     0.109 Goal=   None    Shift=    0.000
 Gap=     0.159 Goal=   None    Shift=    0.000
 RMSDP=8.69D-06 MaxDP=5.06D-04 DE=-1.43D-05 OVMax= 1.70D-03

 Cycle  10  Pass 1  IDiag  1:
 RMSU=  4.86D-06    CP:  9.58D-01  2.28D+00  8.49D-01  7.95D-01  1.14D+00
                    CP:  1.24D+00  1.46D+00  1.29D+00  1.24D+00
 E= -770.425608157907     Delta-E=       -0.000004326910 Rises=F Damp=F
 DIIS: error= 4.43D-05 at cycle  10 NSaved=  10.
 NSaved=10 IEnMin=10 EnMin= -770.425608157907     IErMin=10 ErrMin= 4.43D-05
 ErrMax= 4.43D-05  0.00D+00 EMaxC= 1.00D-01 BMatC= 1.78D-06 BMatP= 4.52D-06
 IDIUse=1 WtCom= 1.00D+00 WtEn= 0.00D+00
 Coeff-Com:  0.728D-04-0.349D-04 0.545D-02 0.139D-01 0.218D-01-0.357D-01
 Coeff-Com: -0.194D+00-0.430D-01 0.500D+00 0.732D+00
 Coeff:      0.728D-04-0.349D-04 0.545D-02 0.139D-01 0.218D-01-0.357D-01
 Coeff:     -0.194D+00-0.430D-01 0.500D+00 0.732D+00
 Gap=     0.109 Goal=   None    Shift=    0.000
 Gap=     0.159 Goal=   None    Shift=    0.000
 RMSDP=5.47D-06 MaxDP=3.23D-04 DE=-4.33D-06 OVMax= 8.94D-04

 Cycle  11  Pass 1  IDiag  1:
 RMSU=  2.28D-06    CP:  9.58D-01  2.28D+00  8.49D-01  7.94D-01  1.14D+00
                    CP:  1.25D+00  1.51D+00  1.44D+00  1.57D+00  1.04D+00
 E= -770.425609729405     Delta-E=       -0.000001571498 Rises=F Damp=F
 DIIS: error= 1.90D-05 at cycle  11 NSaved=  11.
 NSaved=11 IEnMin=11 EnMin= -770.425609729405     IErMin=11 ErrMin= 1.90D-05
 ErrMax= 1.90D-05  0.00D+00 EMaxC= 1.00D-01 BMatC= 2.88D-07 BMatP= 1.78D-06
 IDIUse=1 WtCom= 1.00D+00 WtEn= 0.00D+00
 Coeff-Com:  0.217D-03-0.429D-03 0.999D-03 0.351D-02 0.946D-02 0.440D-02
 Coeff-Com: -0.502D-01-0.755D-01-0.649D-01 0.259D+00 0.914D+00
 Coeff:      0.217D-03-0.429D-03 0.999D-03 0.351D-02 0.946D-02 0.440D-02
 Coeff:     -0.502D-01-0.755D-01-0.649D-01 0.259D+00 0.914D+00
 Gap=     0.109 Goal=   None    Shift=    0.000
 Gap=     0.159 Goal=   None    Shift=    0.000
 RMSDP=3.00D-06 MaxDP=1.91D-04 DE=-1.57D-06 OVMax= 5.61D-04

 Cycle  12  Pass 1  IDiag  1:
 RMSU=  1.13D-06    CP:  9.58D-01  2.28D+00  8.49D-01  7.94D-01  1.14D+00
                    CP:  1.25D+00  1.53D+00  1.52D+00  1.73D+00  1.31D+00
                    CP:  1.15D+00
 E= -770.425610072823     Delta-E=       -0.000000343418 Rises=F Damp=F
 DIIS: error= 8.25D-06 at cycle  12 NSaved=  12.
 NSaved=12 IEnMin=12 EnMin= -770.425610072823     IErMin=12 ErrMin= 8.25D-06
 ErrMax= 8.25D-06  0.00D+00 EMaxC= 1.00D-01 BMatC= 9.56D-08 BMatP= 2.88D-07
 IDIUse=1 WtCom= 1.00D+00 WtEn= 0.00D+00
 Coeff-Com:  0.105D-03-0.222D-03-0.573D-03-0.986D-03 0.429D-03 0.963D-02
 Coeff-Com:  0.141D-01-0.305D-01-0.141D+00-0.200D-01 0.471D+00 0.698D+00
 Coeff:      0.105D-03-0.222D-03-0.573D-03-0.986D-03 0.429D-03 0.963D-02
 Coeff:      0.141D-01-0.305D-01-0.141D+00-0.200D-01 0.471D+00 0.698D+00
 Gap=     0.109 Goal=   None    Shift=    0.000
 Gap=     0.159 Goal=   None    Shift=    0.000
 RMSDP=1.12D-06 MaxDP=7.55D-05 DE=-3.43D-07 OVMax= 1.88D-04

 Cycle  13  Pass 1  IDiag  1:
 RMSU=  4.84D-07    CP:  9.58D-01  2.28D+00  8.49D-01  7.94D-01  1.14D+00
                    CP:  1.25D+00  1.53D+00  1.54D+00  1.78D+00  1.40D+00
                    CP:  1.40D+00  9.31D-01
 E= -770.425610134304     Delta-E=       -0.000000061481 Rises=F Damp=F
 DIIS: error= 3.58D-06 at cycle  13 NSaved=  13.
 NSaved=13 IEnMin=13 EnMin= -770.425610134304     IErMin=13 ErrMin= 3.58D-06
 ErrMax= 3.58D-06  0.00D+00 EMaxC= 1.00D-01 BMatC= 1.78D-08 BMatP= 9.56D-08
 IDIUse=1 WtCom= 1.00D+00 WtEn= 0.00D+00
 Coeff-Com:  0.271D-05-0.848D-05-0.492D-03-0.127D-02-0.208D-02 0.355D-02
 Coeff-Com:  0.189D-01 0.222D-02-0.518D-01-0.663D-01 0.750D-02 0.324D+00
 Coeff-Com:  0.766D+00
 Coeff:      0.271D-05-0.848D-05-0.492D-03-0.127D-02-0.208D-02 0.355D-02
 Coeff:      0.189D-01 0.222D-02-0.518D-01-0.663D-01 0.750D-02 0.324D+00
 Coeff:      0.766D+00
 Gap=     0.109 Goal=   None    Shift=    0.000
 Gap=     0.159 Goal=   None    Shift=    0.000
 RMSDP=4.80D-07 MaxDP=3.16D-05 DE=-6.15D-08 OVMax= 7.56D-05

 Cycle  14  Pass 1  IDiag  1:
 RMSU=  2.56D-07    CP:  9.58D-01  2.28D+00  8.49D-01  7.94D-01  1.14D+00
                    CP:  1.25D+00  1.54D+00  1.54D+00  1.79D+00  1.44D+00
                    CP:  1.48D+00  1.13D+00  9.77D-01
 E= -770.425610144977     Delta-E=       -0.000000010673 Rises=F Damp=F
 DIIS: error= 1.63D-06 at cycle  14 NSaved=  14.
 NSaved=14 IEnMin=14 EnMin= -770.425610144977     IErMin=14 ErrMin= 1.63D-06
 ErrMax= 1.63D-06  0.00D+00 EMaxC= 1.00D-01 BMatC= 4.46D-09 BMatP= 1.78D-08
 IDIUse=1 WtCom= 1.00D+00 WtEn= 0.00D+00
 Coeff-Com: -0.174D-04 0.361D-04-0.147D-03-0.457D-03-0.120D-02 0.269D-05
 Coeff-Com:  0.699D-02 0.629D-02 0.119D-02-0.280D-01-0.882D-01 0.331D-01
 Coeff-Com:  0.394D+00 0.677D+00
 Coeff:     -0.174D-04 0.361D-04-0.147D-03-0.457D-03-0.120D-02 0.269D-05
 Coeff:      0.699D-02 0.629D-02 0.119D-02-0.280D-01-0.882D-01 0.331D-01
 Coeff:      0.394D+00 0.677D+00
 Gap=     0.109 Goal=   None    Shift=    0.000
 Gap=     0.159 Goal=   None    Shift=    0.000
 RMSDP=1.83D-07 MaxDP=8.98D-06 DE=-1.07D-08 OVMax= 2.64D-05

 Cycle  15  Pass 1  IDiag  1:
 RMSU=  1.13D-07    CP:  9.58D-01  2.28D+00  8.49D-01  7.94D-01  1.14D+00
                    CP:  1.25D+00  1.54D+00  1.55D+00  1.79D+00  1.45D+00
                    CP:  1.51D+00  1.18D+00  1.18D+00  9.43D-01
 E= -770.425610147026     Delta-E=       -0.000000002049 Rises=F Damp=F
 DIIS: error= 7.51D-07 at cycle  15 NSaved=  15.
 NSaved=15 IEnMin=15 EnMin= -770.425610147026     IErMin=15 ErrMin= 7.51D-07
 ErrMax= 7.51D-07  0.00D+00 EMaxC= 1.00D-01 BMatC= 1.24D-09 BMatP= 4.46D-09
 IDIUse=1 WtCom= 1.00D+00 WtEn= 0.00D+00
 Coeff-Com: -0.100D-04 0.224D-04 0.491D-04 0.894D-04-0.137D-03-0.909D-03
 Coeff-Com: -0.101D-02 0.265D-02 0.147D-01 0.175D-02-0.538D-01-0.639D-01
 Coeff-Com:  0.301D-01 0.389D+00 0.681D+00
 Coeff:     -0.100D-04 0.224D-04 0.491D-04 0.894D-04-0.137D-03-0.909D-03
 Coeff:     -0.101D-02 0.265D-02 0.147D-01 0.175D-02-0.538D-01-0.639D-01
 Coeff:      0.301D-01 0.389D+00 0.681D+00
 Gap=     0.109 Goal=   None    Shift=    0.000
 Gap=     0.159 Goal=   None    Shift=    0.000
 RMSDP=9.67D-08 MaxDP=4.17D-06 DE=-2.05D-09 OVMax= 1.32D-05

 Cycle  16  Pass 1  IDiag  1:
 RMSU=  5.78D-08    CP:  9.58D-01  2.28D+00  8.49D-01  7.94D-01  1.14D+00
                    CP:  1.25D+00  1.54D+00  1.55D+00  1.79D+00  1.45D+00
                    CP:  1.52D+00  1.21D+00  1.24D+00  1.13D+00  8.94D-01
 E= -770.425610147649     Delta-E=       -0.000000000623 Rises=F Damp=F
 DIIS: error= 3.88D-07 at cycle  16 NSaved=  16.
 NSaved=16 IEnMin=16 EnMin= -770.425610147649     IErMin=16 ErrMin= 3.88D-07
 ErrMax= 3.88D-07  0.00D+00 EMaxC= 1.00D-01 BMatC= 1.41D-10 BMatP= 1.24D-09
 IDIUse=1 WtCom= 1.00D+00 WtEn= 0.00D+00
 Coeff-Com:  0.923D-06-0.192D-05 0.408D-04 0.117D-03 0.195D-03-0.262D-03
 Coeff-Com: -0.173D-02-0.512D-03 0.434D-02 0.615D-02 0.169D-02-0.256D-01
 Coeff-Com: -0.753D-01-0.213D-01 0.216D+00 0.896D+00
 Coeff:      0.923D-06-0.192D-05 0.408D-04 0.117D-03 0.195D-03-0.262D-03
 Coeff:     -0.173D-02-0.512D-03 0.434D-02 0.615D-02 0.169D-02-0.256D-01
 Coeff:     -0.753D-01-0.213D-01 0.216D+00 0.896D+00
 Gap=     0.109 Goal=   None    Shift=    0.000
 Gap=     0.159 Goal=   None    Shift=    0.000
 RMSDP=4.93D-08 MaxDP=2.82D-06 DE=-6.23D-10 OVMax= 8.42D-06

 Cycle  17  Pass 1  IDiag  1:
 RMSU=  2.71D-08    CP:  9.58D-01  2.28D+00  8.49D-01  7.94D-01  1.14D+00
                    CP:  1.25D+00  1.54D+00  1.55D+00  1.79D+00  1.45D+00
                    CP:  1.52D+00  1.22D+00  1.28D+00  1.21D+00  1.12D+00
                    CP:  1.14D+00
 E= -770.425610147789     Delta-E=       -0.000000000140 Rises=F Damp=F
 DIIS: error= 2.30D-07 at cycle  17 NSaved=  17.
 NSaved=17 IEnMin=17 EnMin= -770.425610147789     IErMin=17 ErrMin= 2.30D-07
 ErrMax= 2.30D-07  0.00D+00 EMaxC= 1.00D-01 BMatC= 4.01D-11 BMatP= 1.41D-10
 IDIUse=1 WtCom= 1.00D+00 WtEn= 0.00D+00
 Coeff-Com:  0.828D-06-0.213D-05 0.617D-05 0.238D-04 0.919D-04 0.672D-04
 Coeff-Com: -0.408D-03-0.566D-03-0.120D-02 0.166D-02 0.105D-01 0.226D-02
 Coeff-Com: -0.321D-01-0.755D-01-0.452D-01 0.313D+00 0.827D+00
 Coeff:      0.828D-06-0.213D-05 0.617D-05 0.238D-04 0.919D-04 0.672D-04
 Coeff:     -0.408D-03-0.566D-03-0.120D-02 0.166D-02 0.105D-01 0.226D-02
 Coeff:     -0.321D-01-0.755D-01-0.452D-01 0.313D+00 0.827D+00
 Gap=     0.109 Goal=   None    Shift=    0.000
 Gap=     0.159 Goal=   None    Shift=    0.000
 RMSDP=2.53D-08 MaxDP=1.64D-06 DE=-1.40D-10 OVMax= 4.13D-06

 Cycle  18  Pass 1  IDiag  1:
 RMSU=  1.55D-08    CP:  9.58D-01  2.28D+00  8.49D-01  7.94D-01  1.14D+00
                    CP:  1.25D+00  1.54D+00  1.55D+00  1.79D+00  1.45D+00
                    CP:  1.52D+00  1.22D+00  1.29D+00  1.24D+00  1.19D+00
                    CP:  1.39D+00  1.22D+00
 E= -770.425610147828     Delta-E=       -0.000000000039 Rises=F Damp=F
 DIIS: error= 1.71D-07 at cycle  18 NSaved=  18.
 NSaved=18 IEnMin=18 EnMin= -770.425610147828     IErMin=18 ErrMin= 1.71D-07
 ErrMax= 1.71D-07  0.00D+00 EMaxC= 1.00D-01 BMatC= 2.11D-11 BMatP= 4.01D-11
 IDIUse=1 WtCom= 1.00D+00 WtEn= 0.00D+00
 Coeff-Com:  0.448D-06-0.123D-05-0.133D-04-0.353D-04-0.225D-04 0.147D-03
 Coeff-Com:  0.467D-03-0.459D-04-0.249D-02-0.169D-02 0.505D-02 0.113D-01
 Coeff-Com:  0.137D-01-0.322D-01-0.116D+00-0.204D+00 0.520D+00 0.806D+00
 Coeff:      0.448D-06-0.123D-05-0.133D-04-0.353D-04-0.225D-04 0.147D-03
 Coeff:      0.467D-03-0.459D-04-0.249D-02-0.169D-02 0.505D-02 0.113D-01
 Coeff:      0.137D-01-0.322D-01-0.116D+00-0.204D+00 0.520D+00 0.806D+00
 Gap=     0.109 Goal=   None    Shift=    0.000
 Gap=     0.159 Goal=   None    Shift=    0.000
 RMSDP=1.94D-08 MaxDP=1.26D-06 DE=-3.91D-11 OVMax= 3.94D-06

 Cycle  19  Pass 1  IDiag  1:
 RMSU=  7.81D-09    CP:  9.58D-01  2.28D+00  8.49D-01  7.94D-01  1.14D+00
                    CP:  1.25D+00  1.54D+00  1.55D+00  1.79D+00  1.45D+00
                    CP:  1.52D+00  1.22D+00  1.29D+00  1.25D+00  1.25D+00
                    CP:  1.55D+00  1.68D+00  1.05D+00
 E= -770.425610147850     Delta-E=       -0.000000000022 Rises=F Damp=F
 DIIS: error= 6.44D-08 at cycle  19 NSaved=  19.
 NSaved=19 IEnMin=19 EnMin= -770.425610147850     IErMin=19 ErrMin= 6.44D-08
 ErrMax= 6.44D-08  0.00D+00 EMaxC= 1.00D-01 BMatC= 3.63D-12 BMatP= 2.11D-11
 IDIUse=1 WtCom= 1.00D+00 WtEn= 0.00D+00
 Coeff-Com:  0.917D-07-0.175D-06-0.681D-05-0.209D-04-0.307D-04 0.450D-04
 Coeff-Com:  0.282D-03 0.149D-03-0.749D-03-0.110D-02-0.463D-03 0.391D-02
 Coeff-Com:  0.137D-01 0.530D-02-0.372D-01-0.163D+00 0.304D-01 0.325D+00
 Coeff-Com:  0.824D+00
 Coeff:      0.917D-07-0.175D-06-0.681D-05-0.209D-04-0.307D-04 0.450D-04
 Coeff:      0.282D-03 0.149D-03-0.749D-03-0.110D-02-0.463D-03 0.391D-02
 Coeff:      0.137D-01 0.530D-02-0.372D-01-0.163D+00 0.304D-01 0.325D+00
 Coeff:      0.824D+00
 Gap=     0.109 Goal=   None    Shift=    0.000
 Gap=     0.159 Goal=   None    Shift=    0.000
 RMSDP=9.05D-09 MaxDP=5.66D-07 DE=-2.18D-11 OVMax= 1.54D-06

 Error on total polarization charges =  0.00978
 SCF Done:  E(UB3LYP) =  -770.425610148     A.U. after   19 cycles
            NFock= 19  Conv=0.90D-08     -V/T= 2.0095
 <Sx>= 0.0000 <Sy>= 0.0000 <Sz>= 0.5000 <S**2>= 0.7698 S= 0.5098
 <L.S>=  0.00000000000    
 KE= 7.631546959763D+02 PE=-4.413769557352D+03 EE= 1.568386659422D+03
 Annihilation of the first spin contaminant:
 S**2 before annihilation     0.7698,   after     0.7503
 Leave Link  502 at Sat May 25 04:20:29 2019, MaxMem=   104857600 cpu:            1458.6 elap:              46.4
 (Enter /opt/software/gaussian/g16.b01/l801.exe)
 DoSCS=F DFT=T ScalE2(SS,OS)=  1.000000  1.000000
 ExpMin= 1.61D-01 ExpMax= 5.48D+03 ExpMxC= 8.25D+02 IAcc=3 IRadAn=         5 AccDes= 0.00D+00
 HarFok:  IExCor=  205 AccDes= 0.00D+00 IRadAn=         5 IDoV=-2 UseB2=F ITyADJ=14
 ICtDFT= 12500011 ScaDFX=  1.000000  1.000000  1.000000  1.000000
 Largest valence mixing into a core orbital is  5.82D-05
 Largest core mixing into a valence orbital is  1.21D-05
 Largest valence mixing into a core orbital is  6.38D-05
 Largest core mixing into a valence orbital is  1.22D-05
 Range of M.O.s used for correlation:    19   355
 NBasis=   355 NAE=    65 NBE=    64 NFC=    18 NFV=     0
 NROrb=    337 NOA=    47 NOB=    46 NVA=   290 NVB=   291
 Leave Link  801 at Sat May 25 04:20:30 2019, MaxMem=   104857600 cpu:               5.5 elap:               0.2
 (Enter /opt/software/gaussian/g16.b01/l914.exe)
 UHF ground state
 Ignoring spin specification with unrestricted ground state.
 Two-electron integrals replicated using symmetry.
 MDV=   104857600 DFT=T DoStab=F Mixed=T DoRPA=T DoScal=F NonHer=T
 NEqPCM:  Using non-equilibrium solvation (IEInf=1, Eps=  35.6880, EpsInf=   1.8069)
 Inv3:  Mode=1 IEnd=    17525667.
 Iteration    1 A*A^-1 deviation from unit magnitude is 3.89D-15 for    451.
 Iteration    1 A*A^-1 deviation from orthogonality  is 1.55D-15 for   2242    637.
 Iteration    1 A^-1*A deviation from unit magnitude is 3.66D-15 for    451.
 Iteration    1 A^-1*A deviation from orthogonality  is 2.05D-15 for   1430    490.
 Making orbital integer symmetry assigments:
 Orbital symmetries:
 Alpha Orbitals:
       Occupied  (A) (A) (A) (A) (A) (A) (A) (A) (A) (A) (A) (A)
                 (A) (A) (A) (A) (A) (A) (A) (A) (A) (A) (A) (A)
                 (A) (A) (A) (A) (A) (A) (A) (A) (A) (A) (A) (A)
                 (A) (A) (A) (A) (A) (A) (A) (A) (A) (A) (A) (A)
                 (A) (A) (A) (A) (A) (A) (A) (A) (A) (A) (A) (A)
                 (A) (A) (A) (A) (A)
       Virtual   (A) (A) (A) (A) (A) (A) (A) (A) (A) (A) (A) (A)
                 (A) (A) (A) (A) (A) (A) (A) (A) (A) (A) (A) (A)
                 (A) (A) (A) (A) (A) (A) (A) (A) (A) (A) (A) (A)
                 (A) (A) (A) (A) (A) (A) (A) (A) (A) (A) (A) (A)
                 (A) (A) (A) (A) (A) (A) (A) (A) (A) (A) (A) (A)
                 (A) (A) (A) (A) (A) (A) (A) (A) (A) (A) (A) (A)
                 (A) (A) (A) (A) (A) (A) (A) (A) (A) (A) (A) (A)
                 (A) (A) (A) (A) (A) (A) (A) (A) (A) (A) (A) (A)
                 (A) (A) (A) (A) (A) (A) (A) (A) (A) (A) (A) (A)
                 (A) (A) (A) (A) (A) (A) (A) (A) (A) (A) (A) (A)
                 (A) (A) (A) (A) (A) (A) (A) (A) (A) (A) (A) (A)
                 (A) (A) (A) (A) (A) (A) (A) (A) (A) (A) (A) (A)
                 (A) (A) (A) (A) (A) (A) (A) (A) (A) (A) (A) (A)
                 (A) (A) (A) (A) (A) (A) (A) (A) (A) (A) (A) (A)
                 (A) (A) (A) (A) (A) (A) (A) (A) (A) (A) (A) (A)
                 (A) (A) (A) (A) (A) (A) (A) (A) (A) (A) (A) (A)
                 (A) (A) (A) (A) (A) (A) (A) (A) (A) (A) (A) (A)
                 (A) (A) (A) (A) (A) (A) (A) (A) (A) (A) (A) (A)
                 (A) (A) (A) (A) (A) (A) (A) (A) (A) (A) (A) (A)
                 (A) (A) (A) (A) (A) (A) (A) (A) (A) (A) (A) (A)
                 (A) (A) (A) (A) (A) (A) (A) (A) (A) (A) (A) (A)
                 (A) (A) (A) (A) (A) (A) (A) (A) (A) (A) (A) (A)
                 (A) (A) (A) (A) (A) (A) (A) (A) (A) (A) (A) (A)
                 (A) (A) (A) (A) (A) (A) (A) (A) (A) (A) (A) (A)
                 (A) (A)
 Beta  Orbitals:
       Occupied  (A) (A) (A) (A) (A) (A) (A) (A) (A) (A) (A) (A)
                 (A) (A) (A) (A) (A) (A) (A) (A) (A) (A) (A) (A)
                 (A) (A) (A) (A) (A) (A) (A) (A) (A) (A) (A) (A)
                 (A) (A) (A) (A) (A) (A) (A) (A) (A) (A) (A) (A)
                 (A) (A) (A) (A) (A) (A) (A) (A) (A) (A) (A) (A)
                 (A) (A) (A) (A)
       Virtual   (A) (A) (A) (A) (A) (A) (A) (A) (A) (A) (A) (A)
                 (A) (A) (A) (A) (A) (A) (A) (A) (A) (A) (A) (A)
                 (A) (A) (A) (A) (A) (A) (A) (A) (A) (A) (A) (A)
                 (A) (A) (A) (A) (A) (A) (A) (A) (A) (A) (A) (A)
                 (A) (A) (A) (A) (A) (A) (A) (A) (A) (A) (A) (A)
                 (A) (A) (A) (A) (A) (A) (A) (A) (A) (A) (A) (A)
                 (A) (A) (A) (A) (A) (A) (A) (A) (A) (A) (A) (A)
                 (A) (A) (A) (A) (A) (A) (A) (A) (A) (A) (A) (A)
                 (A) (A) (A) (A) (A) (A) (A) (A) (A) (A) (A) (A)
                 (A) (A) (A) (A) (A) (A) (A) (A) (A) (A) (A) (A)
                 (A) (A) (A) (A) (A) (A) (A) (A) (A) (A) (A) (A)
                 (A) (A) (A) (A) (A) (A) (A) (A) (A) (A) (A) (A)
                 (A) (A) (A) (A) (A) (A) (A) (A) (A) (A) (A) (A)
                 (A) (A) (A) (A) (A) (A) (A) (A) (A) (A) (A) (A)
                 (A) (A) (A) (A) (A) (A) (A) (A) (A) (A) (A) (A)
                 (A) (A) (A) (A) (A) (A) (A) (A) (A) (A) (A) (A)
                 (A) (A) (A) (A) (A) (A) (A) (A) (A) (A) (A) (A)
                 (A) (A) (A) (A) (A) (A) (A) (A) (A) (A) (A) (A)
                 (A) (A) (A) (A) (A) (A) (A) (A) (A) (A) (A) (A)
                 (A) (A) (A) (A) (A) (A) (A) (A) (A) (A) (A) (A)
                 (A) (A) (A) (A) (A) (A) (A) (A) (A) (A) (A) (A)
                 (A) (A) (A) (A) (A) (A) (A) (A) (A) (A) (A) (A)
                 (A) (A) (A) (A) (A) (A) (A) (A) (A) (A) (A) (A)
                 (A) (A) (A) (A) (A) (A) (A) (A) (A) (A) (A) (A)
                 (A) (A) (A)
   144 initial guesses have been made.
 Convergence on wavefunction:    0.001000000000000
 Davidson Disk Diagonalization:  ConvIn= 1.00D-03 SkipCon=T Conv= 1.00D-03.
 Max sub-space:  2160 roots to seek:   144 dimension of matrix:        27016
 Iteration     1 Dimension   144 NMult     0 NNew    144
 CISAX will form     3 AO SS matrices at one time.
 NMat=     3 NSing=     3 JSym2X= 0.
 FoFJK:  IHMeth= 1 ICntrl=       0 DoSepK=F KAlg= 0 I1Cent=           0 FoldK=F
 IRaf= 840000000 NMat=       6 IRICut=       1 DoRegI=T DoRafI=F ISym2E= 0 IDoP0=0 IntGTp=1.
 NMat=     3 NSing=     3 JSym2X= 0.
 NMat=     3 NSing=     3 JSym2X= 0.
 NMat=     3 NSing=     3 JSym2X= 0.
 NMat=     3 NSing=     3 JSym2X= 0.
 NMat=     3 NSing=     3 JSym2X= 0.
 NMat=     3 NSing=     3 JSym2X= 0.
 NMat=     3 NSing=     3 JSym2X= 0.
 NMat=     3 NSing=     3 JSym2X= 0.
 NMat=     3 NSing=     3 JSym2X= 0.
 NMat=     3 NSing=     3 JSym2X= 0.
 NMat=     3 NSing=     3 JSym2X= 0.
 NMat=     3 NSing=     3 JSym2X= 0.
 NMat=     3 NSing=     3 JSym2X= 0.
 NMat=     3 NSing=     3 JSym2X= 0.
 NMat=     3 NSing=     3 JSym2X= 0.
 NMat=     3 NSing=     3 JSym2X= 0.
 NMat=     3 NSing=     3 JSym2X= 0.
 NMat=     3 NSing=     3 JSym2X= 0.
 NMat=     3 NSing=     3 JSym2X= 0.
 NMat=     3 NSing=     3 JSym2X= 0.
 NMat=     3 NSing=     3 JSym2X= 0.
 NMat=     3 NSing=     3 JSym2X= 0.
 NMat=     3 NSing=     3 JSym2X= 0.
 NMat=     3 NSing=     3 JSym2X= 0.
 NMat=     3 NSing=     3 JSym2X= 0.
 NMat=     3 NSing=     3 JSym2X= 0.
 NMat=     3 NSing=     3 JSym2X= 0.
 NMat=     3 NSing=     3 JSym2X= 0.
 NMat=     3 NSing=     3 JSym2X= 0.
 NMat=     3 NSing=     3 JSym2X= 0.
 NMat=     3 NSing=     3 JSym2X= 0.
 NMat=     3 NSing=     3 JSym2X= 0.
 NMat=     3 NSing=     3 JSym2X= 0.
 NMat=     3 NSing=     3 JSym2X= 0.
 NMat=     3 NSing=     3 JSym2X= 0.
 NMat=     3 NSing=     3 JSym2X= 0.
 NMat=     3 NSing=     3 JSym2X= 0.
 NMat=     3 NSing=     3 JSym2X= 0.
 NMat=     3 NSing=     3 JSym2X= 0.
 NMat=     3 NSing=     3 JSym2X= 0.
 NMat=     3 NSing=     3 JSym2X= 0.
 NMat=     3 NSing=     3 JSym2X= 0.
 NMat=     3 NSing=     3 JSym2X= 0.
 NMat=     3 NSing=     3 JSym2X= 0.
 NMat=     3 NSing=     3 JSym2X= 0.
 NMat=     3 NSing=     3 JSym2X= 0.
 NMat=     3 NSing=     3 JSym2X= 0.
 New state      2 was old state      6
 New state      3 was old state      2
 New state      4 was old state      5
 New state      5 was old state      7
 New state      6 was old state      8
 New state      7 was old state      4
 New state      8 was old state     10
 New state      9 was old state     11
 New state     10 was old state      9
 New state     11 was old state     12
 New state     12 was old state     15
 New state     13 was old state     32
 New state     14 was old state     28
 New state     15 was old state     17
 New state     16 was old state     14
 New state     17 was old state     13
 New state     18 was old state     16
 New state     19 was old state     20
 New state     20 was old state     19
 New state     21 was old state     27
 New state     22 was old state     18
 New state     23 was old state     36
 New state     24 was old state     34
 New state     25 was old state     21
 New state     27 was old state     25
 New state     28 was old state     29
 New state     29 was old state     30
 New state     30 was old state     64
 New state     31 was old state     22
 New state     32 was old state     38
 New state     33 was old state     47
 New state     34 was old state     45
 New state     35 was old state     33
 New state     36 was old state     31
 Excitation Energies [eV] at current iteration:
 Root      1 :     2.502259788143898
 Root      2 :     3.122122830901254
 Root      3 :     3.210030379265774
 Root      4 :     3.385731080958233
 Root      5 :     3.507881802579903
 Root      6 :     3.546766277859782
 Root      7 :     3.744080079633334
 Root      8 :     3.871901212731225
 Root      9 :     3.941116540875016
 Root     10 :     4.347800132133333
 Root     11 :     4.460298503796390
 Root     12 :     4.539588896223731
 Root     13 :     4.578690810996542
 Root     14 :     4.694611873195566
 Root     15 :     4.734952045690885
 Root     16 :     4.793408921490385
 Root     17 :     4.821824649631559
 Root     18 :     4.989296167616472
 Root     19 :     5.091450961590913
 Root     20 :     5.104950458860995
 Root     21 :     5.190118811378587
 Root     22 :     5.232966579622099
 Root     23 :     5.544438904839227
 Root     24 :     5.610465025785542
 Root     25 :     5.730946739075492
 Root     26 :     5.802094987031801
 Root     27 :     5.816652223339083
 Root     28 :     5.838422294724920
 Root     29 :     5.865510296742427
 Root     30 :     5.952363395015427
 Root     31 :     6.043338287148153
 Root     32 :     6.066733825003160
 Root     33 :     6.084410017874162
 Root     34 :     6.133458884843713
 Root     35 :     6.205945306455082
 Root     36 :     6.227097790204135
 Root     37 :     6.246444651977002
 Root     38 :     6.254020758084771
 Root     39 :     6.310924776666326
 Root     40 :     6.316661983693860
 Root     41 :     6.348872996445651
 Root     42 :     6.361173030911900
 Root     43 :     6.387583097300707
 Root     44 :     6.402038599952945
 Root     45 :     6.421253111479035
 Root     46 :     6.435194819764500
 Root     47 :     6.445981932088263
 Root     48 :     6.484337612203959
 Root     49 :     6.498026012930207
 Root     50 :     6.563800031037195
 Root     51 :     6.618508918424268
 Root     52 :     6.631843600076334
 Root     53 :     6.639389478739338
 Root     54 :     6.663577331273836
 Root     55 :     6.699561238439420
 Root     56 :     6.701689137429248
 Root     57 :     6.743822457770134
 Root     58 :     6.848534570767568
 Root     59 :     6.945772019325238
 Root     60 :     6.947821172378183
 Root     61 :     6.972268867431913
 Root     62 :     6.986195127580334
 Root     63 :     7.052815902931488
 Root     64 :     7.093342873025718
 Root     65 :     7.113317404240758
 Root     66 :     7.136657515994723
 Root     67 :     7.153422756650588
 Root     68 :     7.205236929881703
 Root     69 :     7.220389589095032
 Root     70 :     7.260415701624718
 Root     71 :     7.308998067968732
 Root     72 :     7.337537453725288
 Root     73 :     7.356553150944655
 Root     74 :     7.367417022938138
 Root     75 :     7.423417315850414
 Root     76 :     7.433057070833855
 Root     77 :     7.463385637419785
 Root     78 :     7.474227342102002
 Root     79 :     7.480724233958712
 Root     80 :     7.524192238658617
 Root     81 :     7.568827320580408
 Root     82 :     7.576184068785720
 Root     83 :     7.609220538835688
 Root     84 :     7.633984711202199
 Root     85 :     7.647957923529138
 Root     86 :     7.669299647517260
 Root     87 :     7.701241086666536
 Root     88 :     7.726791438132312
 Root     89 :     7.761107956302978
 Root     90 :     7.770443970421166
 Root     91 :     7.785513496438796
 Root     92 :     7.822236101503497
 Root     93 :     7.845134881219816
 Root     94 :     7.856159497825622
 Root     95 :     7.870579790108143
 Root     96 :     7.881633165275890
 Root     97 :     7.948571638050071
 Root     98 :     7.955816382511268
 Root     99 :     7.987663717128706
 Root    100 :     7.997607354756186
 Root    101 :     8.010775679348878
 Root    102 :     8.092702088248206
 Root    103 :     8.116150564380129
 Root    104 :     8.123300379934127
 Root    105 :     8.139575313521911
 Root    106 :     8.174808452390492
 Root    107 :     8.196217305840802
 Root    108 :     8.203821573339157
 Root    109 :     8.224046695823906
 Root    110 :     8.259034464401864
 Root    111 :     8.271094694099403
 Root    112 :     8.287020052550094
 Root    113 :     8.290495320875953
 Root    114 :     8.334832693034087
 Root    115 :     8.359364061482335
 Root    116 :     8.380265496342396
 Root    117 :     8.384115256552636
 Root    118 :     8.395520333117098
 Root    119 :     8.418407772184183
 Root    120 :     8.420274323129201
 Root    121 :     8.427516443152504
 Root    122 :     8.432416803516203
 Root    123 :     8.456051532677181
 Root    124 :     8.489362114592042
 Root    125 :     8.492805473189266
 Root    126 :     8.509753062713990
 Root    127 :     8.513889786988855
 Root    128 :     8.520906976241998
 Root    129 :     8.543717741711694
 Root    130 :     8.572353463234228
 Root    131 :     8.628016473285673
 Root    132 :     8.652062423109339
 Root    133 :     8.670651406904105
 Root    134 :     8.673199233824246
 Root    135 :     8.688940818967044
 Root    136 :     8.733124435154945
 Root    137 :     8.755735743241797
 Root    138 :     8.771767291646205
 Root    139 :     8.816312889465971
 Root    140 :     8.871563653347986
 Root    141 :     8.912964819157748
 Root    142 :     8.986748063581693
 Root    143 :     9.345437439738493
 Root    144 :     9.474770150753876
 Iteration     2 Dimension   216 NMult   144 NNew     72
 CISAX will form     3 AO SS matrices at one time.
 NMat=     3 NSing=     3 JSym2X= 0.
 NMat=     3 NSing=     3 JSym2X= 0.
 NMat=     3 NSing=     3 JSym2X= 0.
 NMat=     3 NSing=     3 JSym2X= 0.
 NMat=     3 NSing=     3 JSym2X= 0.
 NMat=     3 NSing=     3 JSym2X= 0.
 NMat=     3 NSing=     3 JSym2X= 0.
 NMat=     3 NSing=     3 JSym2X= 0.
 NMat=     3 NSing=     3 JSym2X= 0.
 NMat=     3 NSing=     3 JSym2X= 0.
 NMat=     3 NSing=     3 JSym2X= 0.
 NMat=     3 NSing=     3 JSym2X= 0.
 NMat=     3 NSing=     3 JSym2X= 0.
 NMat=     3 NSing=     3 JSym2X= 0.
 NMat=     3 NSing=     3 JSym2X= 0.
 NMat=     3 NSing=     3 JSym2X= 0.
 NMat=     3 NSing=     3 JSym2X= 0.
 NMat=     3 NSing=     3 JSym2X= 0.
 NMat=     3 NSing=     3 JSym2X= 0.
 NMat=     3 NSing=     3 JSym2X= 0.
 NMat=     3 NSing=     3 JSym2X= 0.
 NMat=     3 NSing=     3 JSym2X= 0.
 NMat=     3 NSing=     3 JSym2X= 0.
 NMat=     3 NSing=     3 JSym2X= 0.
 Root      1 not converged, maximum delta is    0.051339720221488
 Root      2 not converged, maximum delta is    0.029715849387917
 Root      3 not converged, maximum delta is    0.062244450890269
 Root      4 not converged, maximum delta is    0.197499358391165
 New state      5 was old state      6
 Root      5 not converged, maximum delta is    0.528297336141118
 New state      6 was old state      5
 Root      6 not converged, maximum delta is    0.343805442367001
 Root      7 not converged, maximum delta is    0.228533515861719
 Root      8 not converged, maximum delta is    0.192216054865803
 Root      9 not converged, maximum delta is    0.061144466287466
 Root     10 not converged, maximum delta is    0.162659158311963
 New state     11 was old state     13
 Root     11 not converged, maximum delta is    0.442740561410711
 New state     12 was old state     11
 Root     12 not converged, maximum delta is    0.392804457483893
 New state     13 was old state     12
 Root     13 not converged, maximum delta is    0.325069005738801
 Root     14 not converged, maximum delta is    0.155302286357505
 New state     15 was old state     17
 Root     15 not converged, maximum delta is    0.426876043946591
 New state     16 was old state     15
 Root     16 not converged, maximum delta is    0.463258506792656
 New state     17 was old state     16
 Root     17 not converged, maximum delta is    0.141752018641910
 Root     18 not converged, maximum delta is    0.102403781524154
 Root     19 not converged, maximum delta is    0.477264792819143
 Root     20 not converged, maximum delta is    0.587293502121865
 Root     21 not converged, maximum delta is    0.326907208649695
 Root     22 not converged, maximum delta is    0.272781995009256
 New state     23 was old state     24
 Root     23 not converged, maximum delta is    0.314234094134839
 New state     24 was old state     25
 Root     24 not converged, maximum delta is    0.293467616275026
 New state     25 was old state     23
 Root     25 not converged, maximum delta is    0.103845508139892
 New state     26 was old state     30
 Root     26 not converged, maximum delta is    0.647723087746469
 New state     27 was old state     28
 Root     27 not converged, maximum delta is    0.058842932881545
 New state     28 was old state     26
 Root     28 not converged, maximum delta is    0.276237485280840
 New state     29 was old state     27
 Root     29 not converged, maximum delta is    0.371456256575125
 New state     30 was old state     29
 Root     30 not converged, maximum delta is    0.337709836130824
 New state     31 was old state     33
 Root     31 not converged, maximum delta is    0.282486723351520
 New state     32 was old state     31
 Root     32 not converged, maximum delta is    0.240796944864626
 New state     33 was old state     32
 Root     33 not converged, maximum delta is    0.106453130706631
 Root     34 not converged, maximum delta is    0.358717668768333
 New state     35 was old state     36
 Root     35 not converged, maximum delta is    0.275080919191874
 New state     36 was old state     35
 Root     36 not converged, maximum delta is    0.436930168332372
 Excitation Energies [eV] at current iteration:
 Root      1 :     2.282338432727626   Change is   -0.219921355416271
 Root      2 :     3.057959272366057   Change is   -0.064163558535197
 Root      3 :     3.142357226677045   Change is   -0.067673152588729
 Root      4 :     3.231158977216234   Change is   -0.154572103741999
 Root      5 :     3.321457518089991   Change is   -0.225308759769791
 Root      6 :     3.474268901861528   Change is   -0.033612900718375
 Root      7 :     3.669455213051647   Change is   -0.074624866581687
 Root      8 :     3.776359334286894   Change is   -0.095541878444331
 Root      9 :     3.884711293116235   Change is   -0.056405247758781
 Root     10 :     4.144501248896059   Change is   -0.203298883237274
 Root     11 :     4.316739296406323   Change is   -0.261951514590220
 Root     12 :     4.341552204107689   Change is   -0.118746299688702
 Root     13 :     4.426214816933133   Change is   -0.113374079290598
 Root     14 :     4.592720531987982   Change is   -0.101891341207585
 Root     15 :     4.707680645801476   Change is   -0.114144003830082
 Root     16 :     4.712260473184390   Change is   -0.022691572506495
 Root     17 :     4.768687131991566   Change is   -0.024721789498819
 Root     18 :     4.910622460736474   Change is   -0.078673706879999
 Root     19 :     4.953032125604772   Change is   -0.138418835986141
 Root     20 :     5.049268568233188   Change is   -0.055681890627807
 Root     21 :     5.123112721499610   Change is   -0.067006089878977
 Root     22 :     5.175578016618387   Change is   -0.057388563003711
 Root     23 :     5.244427141142835   Change is   -0.366037884642706
 Root     24 :     5.304390366445306   Change is   -0.426556372630186
 Root     25 :     5.490850870549170   Change is   -0.053588034290058
 Root     26 :     5.521854684213023   Change is   -0.430508710802404
 Root     27 :     5.765966437546015   Change is   -0.072455857178904
 Root     28 :     5.788694391207526   Change is   -0.013400595824274
 Root     29 :     5.817774657777338   Change is    0.001122434438255
 Root     30 :     5.851955331157201   Change is   -0.013554965585226
 Root     31 :     5.987077893263465   Change is   -0.097332124610696
 Root     32 :     5.999898870160272   Change is   -0.043439416987881
 Root     33 :     6.022858068119589   Change is   -0.043875756883571
 Root     34 :     6.035080736376491   Change is   -0.098378148467222
 Root     35 :     6.125476361211864   Change is   -0.101621428992271
 Root     36 :     6.173717335455689   Change is   -0.032227970999394
 Iteration     3 Dimension   288 NMult   216 NNew     72
 CISAX will form     3 AO SS matrices at one time.
 NMat=     3 NSing=     3 JSym2X= 0.
 NMat=     3 NSing=     3 JSym2X= 0.
 NMat=     3 NSing=     3 JSym2X= 0.
 NMat=     3 NSing=     3 JSym2X= 0.
 NMat=     3 NSing=     3 JSym2X= 0.
 NMat=     3 NSing=     3 JSym2X= 0.
 NMat=     3 NSing=     3 JSym2X= 0.
 NMat=     3 NSing=     3 JSym2X= 0.
 NMat=     3 NSing=     3 JSym2X= 0.
 NMat=     3 NSing=     3 JSym2X= 0.
 NMat=     3 NSing=     3 JSym2X= 0.
 NMat=     3 NSing=     3 JSym2X= 0.
 NMat=     3 NSing=     3 JSym2X= 0.
 NMat=     3 NSing=     3 JSym2X= 0.
 NMat=     3 NSing=     3 JSym2X= 0.
 NMat=     3 NSing=     3 JSym2X= 0.
 NMat=     3 NSing=     3 JSym2X= 0.
 NMat=     3 NSing=     3 JSym2X= 0.
 NMat=     3 NSing=     3 JSym2X= 0.
 NMat=     3 NSing=     3 JSym2X= 0.
 NMat=     3 NSing=     3 JSym2X= 0.
 NMat=     3 NSing=     3 JSym2X= 0.
 NMat=     3 NSing=     3 JSym2X= 0.
 NMat=     3 NSing=     3 JSym2X= 0.
 Root      1 not converged, maximum delta is    0.004238110119991
 Root      2 not converged, maximum delta is    0.002329502278982
 Root      3 not converged, maximum delta is    0.003699141510837
 Root      4 not converged, maximum delta is    0.003944488102636
 Root      5 not converged, maximum delta is    0.004803662468440
 Root      6 not converged, maximum delta is    0.008777755794198
 Root      7 not converged, maximum delta is    0.011101544357579
 Root      8 not converged, maximum delta is    0.009899544205326
 Root      9 not converged, maximum delta is    0.003149018997092
 Root     10 not converged, maximum delta is    0.006799434531601
 Root     11 not converged, maximum delta is    0.022332630081150
 Root     12 not converged, maximum delta is    0.015288327960529
 Root     13 not converged, maximum delta is    0.014079706258757
 Root     14 not converged, maximum delta is    0.008028938389206
 Root     15 not converged, maximum delta is    0.252755773929787
 Root     16 not converged, maximum delta is    0.264868511919540
 Root     17 not converged, maximum delta is    0.004402040034477
 Root     18 not converged, maximum delta is    0.013543940839564
 Root     19 not converged, maximum delta is    0.012784601770666
 Root     20 not converged, maximum delta is    0.012749715049416
 Root     21 not converged, maximum delta is    0.018524290586167
 Root     22 not converged, maximum delta is    0.035197154649013
 Root     23 not converged, maximum delta is    0.045907013565277
 Root     24 not converged, maximum delta is    0.063645438350048
 Root     25 not converged, maximum delta is    0.019414503286836
 Root     26 not converged, maximum delta is    0.014829392905912
 Root     27 not converged, maximum delta is    0.011153459758228
 Root     28 not converged, maximum delta is    0.004132628999283
 Root     29 not converged, maximum delta is    0.003433286466761
 Root     30 not converged, maximum delta is    0.004936758578625
 Root     31 not converged, maximum delta is    0.033793609829048
 Root     32 not converged, maximum delta is    0.068941269806403
 Root     33 not converged, maximum delta is    0.070388975109982
 Root     34 not converged, maximum delta is    0.061411586540743
 Root     35 not converged, maximum delta is    0.018558281255802
 Root     36 not converged, maximum delta is    0.240228113659151
 Excitation Energies [eV] at current iteration:
 Root      1 :     2.274862095522084   Change is   -0.007476337205543
 Root      2 :     3.056234274127172   Change is   -0.001724998238885
 Root      3 :     3.138769660828871   Change is   -0.003587565848174
 Root      4 :     3.225005933066455   Change is   -0.006153044149779
 Root      5 :     3.314928528246284   Change is   -0.006528989843708
 Root      6 :     3.471789558800961   Change is   -0.002479343060567
 Root      7 :     3.665307594947651   Change is   -0.004147618103995
 Root      8 :     3.771988207355709   Change is   -0.004371126931185
 Root      9 :     3.883089383165600   Change is   -0.001621909950635
 Root     10 :     4.137859526974580   Change is   -0.006641721921479
 Root     11 :     4.310232298310352   Change is   -0.006506998095970
 Root     12 :     4.336531911436894   Change is   -0.005020292670795
 Root     13 :     4.421435234323035   Change is   -0.004779582610099
 Root     14 :     4.588534869256725   Change is   -0.004185662731256
 Root     15 :     4.701931630290070   Change is   -0.005749015511406
 Root     16 :     4.710521747885577   Change is   -0.001738725298813
 Root     17 :     4.767773696036207   Change is   -0.000913435955359
 Root     18 :     4.906089578434281   Change is   -0.004532882302193
 Root     19 :     4.941613158753196   Change is   -0.011418966851576
 Root     20 :     5.046508468215980   Change is   -0.002760100017208
 Root     21 :     5.119071284707141   Change is   -0.004041436792469
 Root     22 :     5.172502029226868   Change is   -0.003075987391519
 Root     23 :     5.225687348675637   Change is   -0.018739792467199
 Root     24 :     5.278428970473725   Change is   -0.025961395971581
 Root     25 :     5.486824077697669   Change is   -0.004026792851501
 Root     26 :     5.512586903589843   Change is   -0.009267780623180
 Root     27 :     5.759862794803726   Change is   -0.006103642742290
 Root     28 :     5.788080151467109   Change is   -0.000614239740418
 Root     29 :     5.817233075000297   Change is   -0.000541582777041
 Root     30 :     5.847011604236234   Change is   -0.004943726920967
 Root     31 :     5.974479423789088   Change is   -0.012598469474378
 Root     32 :     5.992881854915897   Change is   -0.007017015244375
 Root     33 :     6.019094788866364   Change is   -0.003763279253225
 Root     34 :     6.030710061108391   Change is   -0.004370675268099
 Root     35 :     6.119516151888488   Change is   -0.005960209323375
 Root     36 :     6.149842178836773   Change is   -0.023875156618916
 Iteration     4 Dimension   360 NMult   288 NNew     72
 CISAX will form     3 AO SS matrices at one time.
 NMat=     3 NSing=     3 JSym2X= 0.
 NMat=     3 NSing=     3 JSym2X= 0.
 NMat=     3 NSing=     3 JSym2X= 0.
 NMat=     3 NSing=     3 JSym2X= 0.
 NMat=     3 NSing=     3 JSym2X= 0.
 NMat=     3 NSing=     3 JSym2X= 0.
 NMat=     3 NSing=     3 JSym2X= 0.
 NMat=     3 NSing=     3 JSym2X= 0.
 NMat=     3 NSing=     3 JSym2X= 0.
 NMat=     3 NSing=     3 JSym2X= 0.
 NMat=     3 NSing=     3 JSym2X= 0.
 NMat=     3 NSing=     3 JSym2X= 0.
 NMat=     3 NSing=     3 JSym2X= 0.
 NMat=     3 NSing=     3 JSym2X= 0.
 NMat=     3 NSing=     3 JSym2X= 0.
 NMat=     3 NSing=     3 JSym2X= 0.
 NMat=     3 NSing=     3 JSym2X= 0.
 NMat=     3 NSing=     3 JSym2X= 0.
 NMat=     3 NSing=     3 JSym2X= 0.
 NMat=     3 NSing=     3 JSym2X= 0.
 NMat=     3 NSing=     3 JSym2X= 0.
 NMat=     3 NSing=     3 JSym2X= 0.
 NMat=     3 NSing=     3 JSym2X= 0.
 NMat=     3 NSing=     3 JSym2X= 0.
 Root      1 has converged.
 Root      2 has converged.
 Root      3 has converged.
 Root      4 has converged.
 Root      5 has converged.
 Root      6 has converged.
 Root      7 has converged.
 Root      8 has converged.
 Root      9 has converged.
 Root     10 has converged.
 Root     11 has converged.
 Root     12 has converged.
 Root     13 has converged.
 Root     14 has converged.
 Root     15 not converged, maximum delta is    0.009035098348578
 Root     16 not converged, maximum delta is    0.009568986495448
 Root     17 has converged.
 Root     18 has converged.
 Root     19 not converged, maximum delta is    0.001350156719191
 Root     20 has converged.
 Root     21 has converged.
 Root     22 not converged, maximum delta is    0.003246527454092
[...]
     7  H    0.000016   0.000003  -0.000005   0.000000  -0.000000  -0.000002
     8  C    0.000212   0.000011  -0.000018  -0.000017   0.000014   0.000000
     9  H   -0.000062   0.000000   0.000000   0.000007   0.000016  -0.000000
    10  H    0.000035   0.000000   0.000000  -0.000000  -0.000011  -0.000000
    11  H    0.000811  -0.000001   0.000001   0.000004   0.000030  -0.000002
    12  C   -0.000612   0.000000  -0.000000  -0.000008   0.000007   0.000007
    13  C    0.000152  -0.000000  -0.000000  -0.000000  -0.000005  -0.000000
    14  C    0.002938   0.000008   0.000000   0.000038   0.000000  -0.000085
    15  C    0.000001   0.000000  -0.000000   0.000000  -0.000001  -0.000000
    16  H    0.000000  -0.000000   0.000000  -0.000000   0.000000  -0.000000
    17  C    0.000003   0.000000  -0.000000  -0.000006  -0.000014  -0.000002
    18  H    0.000104  -0.000020  -0.000000  -0.000087   0.000001  -0.000003
    19  C   -0.000122  -0.000000   0.000000  -0.000002   0.000007   0.000001
    20  H   -0.000000   0.000000   0.000000   0.000000   0.000000   0.000000
    21  H   -0.000003   0.000000  -0.000000  -0.000008   0.000000   0.000000
    22  H    0.000000  -0.000000  -0.000000   0.000000  -0.000000  -0.000000
    23  C   -0.009831   0.000421   0.000910   0.000837   0.000566   0.000855
    24  C    0.006326   0.001637   0.000565   0.000666  -0.000013  -0.009646
    25  C    0.211558   0.000496   0.000016   0.003449   0.000896  -0.009191
    26  C    0.000496  -0.104622   0.000464  -0.000170  -0.000015  -0.001863
    27  H    0.000016   0.000464  -0.010222  -0.000015   0.000001   0.000005
    28  C    0.003449  -0.000170  -0.000015  -0.104617   0.000321  -0.004103
    29  H    0.000896  -0.000015   0.000001   0.000321  -0.010084   0.000012
    30  C   -0.009191  -0.001863   0.000005  -0.004103   0.000012   0.237666
    31  H   -0.000007   0.000378   0.000034   0.000000  -0.000000  -0.000468
    32  H   -0.000437  -0.000000  -0.000000   0.000445   0.000028  -0.000434
    33  H    0.000013   0.000091   0.000003   0.000092   0.000003   0.001174
    34  O    0.000291   0.000002   0.000040   0.000001  -0.000000  -0.000003
    35  H    0.000024   0.000002  -0.000002  -0.000000  -0.000000  -0.000000
              31         32         33         34         35
     1  C    0.000000  -0.000000  -0.000000  -0.005352  -0.003041
     2  C   -0.000003  -0.000003   0.000000  -0.075333  -0.012142
     3  O   -0.000000   0.000000   0.000000   0.002755   0.004315
     4  C    0.000000   0.000000  -0.000000   0.000011   0.000134
     5  H    0.000000  -0.000000  -0.000000  -0.000061  -0.000034
     6  H   -0.000004  -0.000000   0.000000   0.000450   0.000093
     7  H   -0.000000  -0.000000   0.000000   0.000952   0.000574
     8  C    0.000000   0.000000   0.000000   0.000692   0.001304
     9  H   -0.000000  -0.000000   0.000000  -0.000015   0.000065
    10  H   -0.000000  -0.000000   0.000000  -0.000641   0.002516
    11  H    0.000000   0.000000  -0.000000   0.002652  -0.001096
    12  C    0.000000   0.000000  -0.000000   0.000123   0.000183
    13  C   -0.000000  -0.000000   0.000000   0.000012   0.000028
    14  C   -0.000000  -0.000001   0.000000   0.000030   0.000015
    15  C    0.000000   0.000000  -0.000000   0.000000   0.000000
    16  H   -0.000000  -0.000000   0.000000   0.000000   0.000001
    17  C    0.000000  -0.000001   0.000000  -0.000000  -0.000000
    18  H   -0.000000  -0.000000   0.000000   0.000002   0.000001
    19  C    0.000000   0.000000  -0.000000  -0.000000  -0.000000
    20  H    0.000000   0.000000  -0.000000  -0.000000  -0.000000
    21  H    0.000000   0.000000  -0.000000  -0.000000  -0.000000
    22  H   -0.000000   0.000000   0.000000   0.000000   0.000000
    23  C    0.000002  -0.000014  -0.000031   0.000374   0.000282
    24  C   -0.000411  -0.000006   0.000012   0.002026   0.000114
    25  C   -0.000007  -0.000437   0.000013   0.000291   0.000024
    26  C    0.000378  -0.000000   0.000091   0.000002   0.000002
    27  H    0.000034  -0.000000   0.000003   0.000040  -0.000002
    28  C    0.000000   0.000445   0.000092   0.000001  -0.000000
    29  H   -0.000000   0.000028   0.000003  -0.000000  -0.000000
    30  C   -0.000468  -0.000434   0.001174  -0.000003  -0.000000
    31  H    0.004118  -0.000000   0.000057  -0.000000  -0.000000
    32  H   -0.000000   0.004029   0.000060   0.000000  -0.000000
    33  H    0.000057   0.000060  -0.011305   0.000000   0.000000
    34  O   -0.000000   0.000000   0.000000   0.139565  -0.001033
    35  H   -0.000000  -0.000000   0.000000  -0.001033   0.016562
 Mulliken charges and spin densities:
               1          2
     1  C    0.366789   0.037206
     2  C    0.228611   0.565870
     3  O   -0.561007   0.054737
     4  C   -0.375381  -0.002596
     5  H    0.141114   0.001664
     6  H    0.135804   0.001365
     7  H    0.125192   0.000558
     8  C   -0.360459  -0.040808
     9  H    0.131194   0.002563
    10  H    0.128799   0.012979
    11  H    0.132960   0.032766
    12  C    0.073209  -0.018413
    13  C   -0.114913   0.029918
    14  C   -0.115820   0.024568
    15  C   -0.101437  -0.014740
    16  H    0.109256  -0.001392
    17  C   -0.107546  -0.015052
    18  H    0.108409  -0.001020
    19  C   -0.090965   0.031860
    20  H    0.107007   0.000523
    21  H    0.107913   0.000537
    22  H    0.108879  -0.001435
    23  C    0.100802  -0.151814
    24  C   -0.133839   0.195210
    25  C   -0.130723   0.190284
    26  C   -0.100368  -0.103342
    27  H    0.106635  -0.008494
    28  C   -0.108576  -0.103250
    29  H    0.098709  -0.008262
    30  C   -0.104683   0.214080
    31  H    0.100509   0.003695
    32  H    0.100993   0.003665
    33  H    0.099693  -0.009831
    34  O   -0.547828   0.067540
    35  H    0.341068   0.008861
 Sum of Mulliken charges =  -0.00000   1.00000
 Mulliken charges and spin densities with hydrogens summed into heavy atoms:
               1          2
     1  C    0.366789   0.037206
     2  C    0.228611   0.565870
     3  O   -0.561007   0.054737
     4  C    0.026728   0.000990
     8  C    0.032496   0.007500
    12  C    0.073209  -0.018413
    13  C   -0.005657   0.028527
    14  C   -0.007412   0.023548
    15  C    0.005570  -0.014218
    17  C    0.000367  -0.014515
    19  C    0.017914   0.030425
    23  C    0.100802  -0.151814
    24  C   -0.027204   0.186716
    25  C   -0.032014   0.182022
    26  C    0.000140  -0.099647
    28  C   -0.007583  -0.099586
    30  C   -0.004990   0.204249
    34  O   -0.206761   0.076401
 Electronic spatial extent (au):  <R**2>=           4092.4663
 Charge=              0.0000 electrons
 Dipole moment (field-independent basis, Debye):
    X=             -0.5041    Y=              3.3535    Z=             -0.0963  Tot=              3.3925
 Quadrupole moment (field-independent basis, Debye-Ang):
   XX=           -103.8454   YY=           -103.1130   ZZ=           -100.7032
   XY=             -2.7611   XZ=             -7.8650   YZ=             -0.2347
 Traceless Quadrupole moment (field-independent basis, Debye-Ang):
   XX=             -1.2915   YY=             -0.5592   ZZ=              1.8507
   XY=             -2.7611   XZ=             -7.8650   YZ=             -0.2347
 Octapole moment (field-independent basis, Debye-Ang**2):
  XXX=            -10.3086  YYY=             21.0798  ZZZ=             -1.0534  XYY=              3.7250
  XXY=             19.2578  XXZ=             -1.3706  XZZ=             -2.7219  YZZ=            -13.6663
  YYZ=              3.9436  XYZ=             -0.0645
 Hexadecapole moment (field-independent basis, Debye-Ang**3):
 XXXX=          -2875.1595 YYYY=          -1636.6145 ZZZZ=           -770.9395 XXXY=             -9.3774
 XXXZ=           -145.4998 YYYX=            -32.0190 YYYZ=            -12.9992 ZZZX=             -0.8493
 ZZZY=              0.3749 XXYY=           -756.6528 XXZZ=           -634.5776 YYZZ=           -411.0258
 XXYZ=              6.4922 YYXZ=            -24.4863 ZZXY=              2.8048
 N-N= 1.311802591807D+03 E-N=-4.413769552316D+03  KE= 7.631546959763D+02
 Leave Link  601 at Sat May 25 04:47:38 2019, MaxMem=   104857600 cpu:               3.4 elap:               0.2
 (Enter /opt/software/gaussian/g16.b01/l9999.exe)
 Electronic transition elements 
                 1             2             3             4             5 
      1  -0.770342D+03 -0.770313D+03 -0.770310D+03 -0.770307D+03 -0.770304D+03
      2  -0.150529D+01 -0.443256D-01 -0.539936D-01 -0.544169D+00 -0.403563D-01
      3  -0.715974D-01 -0.617330D-01  0.854776D-01  0.124800D-01  0.757488D-01
      4  -0.533351D+00 -0.628778D-01  0.364973D-01 -0.837366D-01  0.237088D-01
      5   0.120388D+00  0.255005D-02  0.586997D-02  0.611008D-01  0.635410D-02
      6   0.608098D-02  0.547157D-02 -0.126555D-01 -0.135534D-02 -0.670179D-02
      7   0.436414D-01  0.754405D-02 -0.285264D-02  0.953037D-02 -0.413732D-02
      8  -0.197597D+00 -0.958902D-01 -0.191206D+00 -0.168044D+00  0.144979D-01
      9   0.509728D-01 -0.379274D+00  0.102952D+00 -0.397261D-02 -0.106748D+00
     10   0.371424D+00  0.254055D+00 -0.169887D+00  0.462989D+00  0.592130D-01
     11   0.615081D-01  0.450975D-01  0.518493D-01  0.731859D-02 -0.572282D-01
     12  -0.497709D-01 -0.902236D-02 -0.220968D-01 -0.170457D-01  0.277843D-01
     13   0.102052D-01 -0.201351D-01 -0.785602D-02  0.206737D-01 -0.166363D-01
     14   0.157655D+00 -0.776995D-02  0.224617D-01  0.253367D+00  0.311027D-01
     15  -0.948280D-02 -0.544586D-02 -0.215233D-01  0.320104D-02  0.220301D-01
     16  -0.851741D-01 -0.220858D-01 -0.852799D-03  0.143427D-01  0.160524D-01
                 6             7             8             9            10 
      1  -0.770298D+03 -0.770291D+03 -0.770287D+03 -0.770283D+03 -0.770274D+03
      2  -0.161771D+00 -0.189199D+00  0.501185D-01  0.316188D-01 -0.704530D+00
      3   0.904790D-01  0.150393D+00 -0.770333D-01 -0.229381D-01 -0.138841D+00
      4   0.101278D+00  0.160901D+00 -0.101556D+00  0.577663D-02  0.214679D+00
      5   0.237920D-01  0.250577D-01 -0.794490D-02 -0.615554D-02  0.105008D+00
      6  -0.167850D-01 -0.209123D-01  0.139490D-01  0.120249D-02  0.212092D-01
      7  -0.157095D-01 -0.230148D-01  0.148785D-01 -0.846985D-03 -0.334952D-01
      8  -0.164828D+00 -0.440670D+00  0.123817D+00 -0.127619D+00 -0.328865D+00
      9   0.945242D-01  0.145613D+00 -0.346453D+00 -0.477988D+00  0.167091D+00
     10  -0.437214D+00 -0.839891D+00  0.219893D+00  0.191677D+00  0.579720D+00
     11   0.149754D+00  0.285421D-01 -0.325273D+00  0.112714D+00  0.283394D+00
     12  -0.475057D-01 -0.146727D-01  0.787767D-01 -0.916485D-02 -0.472440D-01
     13  -0.382525D-01  0.219195D-01  0.691407D-01 -0.676205D-01 -0.972761D-01
     14  -0.469079D-01 -0.172037D+00  0.467868D-01 -0.299565D-01  0.503062D+00
     15  -0.589128D-01 -0.410530D-01  0.100878D+00 -0.233771D-01 -0.327777D-01
     16  -0.340453D-01 -0.920021D-01 -0.240715D-02 -0.174183D-01  0.133276D+00
                11            12            13            14            15 
      1  -0.770267D+03 -0.770266D+03 -0.770263D+03 -0.770257D+03 -0.770253D+03
      2  -0.320304D+00  0.211511D+00  0.429978D+00 -0.960347D-01  0.115127D+00
      3  -0.529192D+00  0.479496D+00  0.505167D+00  0.598666D+00  0.122449D+00
      4   0.702025D-01 -0.580948D-01 -0.183111D+00  0.111042D-01 -0.335795D+00
      5   0.493135D-01 -0.318713D-01 -0.697924D-01  0.160382D-01 -0.162196D-01
      6   0.801586D-01 -0.718336D-01 -0.810680D-01 -0.968341D-01 -0.221054D-01
      7  -0.102088D-01  0.811304D-02  0.301121D-01 -0.289622D-02  0.569157D-01
      8  -0.665519D-01  0.493572D-01  0.210129D+00 -0.796610D-01  0.252248D-01
      9   0.283518D+00 -0.245779D+00  0.782226D-01 -0.151837D+00 -0.934852D-01
     10   0.379433D+00 -0.293299D+00 -0.315098D-02  0.121404D+00 -0.197784D+00
     11   0.567363D+00 -0.523499D+00 -0.580157D-01 -0.412749D+00 -0.160664D+00
     12  -0.845892D-01  0.664663D-01 -0.476604D-01  0.207985D-01  0.120621D-01
     13  -0.156852D+00  0.133959D+00  0.603945D-01  0.117096D+00  0.584016D-01
     14   0.184662D+00 -0.158019D+00 -0.176764D+00  0.132198D+00 -0.346241D+00
     15  -0.851247D-01  0.937432D-01 -0.467059D-01  0.560698D-01  0.221996D-01
     16   0.797460D-01 -0.644673D-01 -0.211500D-01  0.731180D-02 -0.215273D+00
                16            17            18            19            20 
      1  -0.770253D+03 -0.770250D+03 -0.770245D+03 -0.770244D+03 -0.770240D+03
      2  -0.927934D-01 -0.423650D-01 -0.902435D-01  0.308994D+00  0.196107D+00
      3  -0.621063D-02  0.309906D-01 -0.462250D+00 -0.898288D-01  0.283364D+00
      4  -0.973286D-01 -0.320834D-01  0.195954D-01 -0.893772D-01 -0.206045D+00
      5   0.169373D-01  0.570610D-02  0.142640D-01 -0.521151D-01 -0.346231D-01
      6   0.237301D-02 -0.514167D-02  0.849482D-01  0.143320D-01 -0.514310D-01
      7   0.165927D-01  0.550278D-02 -0.410927D-02  0.209185D-01  0.383315D-01
      8   0.171918D-01  0.143574D-01  0.635020D-01 -0.783686D-01  0.182546D-01
      9   0.174983D+00  0.100563D+00 -0.116744D+00 -0.407509D+00 -0.153490D+00
     10  -0.176506D-01  0.100605D+00  0.111363D+00 -0.288100D+00 -0.855248D-01
     11  -0.121012D+00  0.370674D-01 -0.149157D+00  0.139407D-02 -0.340511D+00
     12   0.161247D-01 -0.663937D-02  0.144484D+00 -0.104405D+00  0.121592D-01
     13   0.585388D-01 -0.460442D-02 -0.337873D-01  0.803966D-01  0.112719D+00
     14  -0.172411D-01  0.783306D-01  0.106847D+00 -0.782835D-01 -0.126565D+00
     15   0.271787D-01 -0.105114D-01  0.116996D+00  0.749418D-03  0.558590D-01
     16  -0.549495D-01  0.270177D-01  0.343318D-01 -0.366849D-01 -0.818877D-01
                21            22            23            24            25 
      1  -0.770237D+03 -0.770236D+03 -0.770234D+03 -0.770232D+03 -0.770224D+03
      2   0.263676D+00  0.612271D-01  0.990895D-01 -0.227305D+00 -0.166591D+00
      3   0.765850D-01  0.960278D-01 -0.999390D+00 -0.822527D+00  0.165698D+00
      4  -0.323241D+00 -0.172869D+00  0.211891D-01  0.865287D-01  0.144131D+00
      5  -0.521766D-01 -0.146854D-01 -0.183095D-01  0.408442D-01  0.338997D-01
      6  -0.144709D-01 -0.182673D-01  0.186133D+00  0.153949D+00 -0.331627D-01
      7   0.601710D-01  0.325770D-01 -0.500701D-02 -0.159329D-01 -0.294608D-01
      8   0.240078D+00  0.163298D+00  0.954328D-01  0.173848D+00 -0.798918D-01
      9  -0.264909D-02 -0.727476D-01  0.513794D+00  0.200512D+00  0.231974D-01
     10   0.137822D+00  0.326418D-01 -0.143259D+00 -0.208669D-01  0.220425D-01
     11  -0.645035D-01 -0.972174D-01  0.987022D+00  0.806299D+00  0.260432D-01
     12   0.100559D-01 -0.196355D-01  0.162299D-01 -0.103126D+00 -0.437559D-01
     13   0.209340D-01  0.544463D-01 -0.273869D+00 -0.116357D+00  0.242224D-02
     14  -0.395120D-01 -0.308739D-01 -0.174451D+00 -0.110254D-01  0.128352D+00
     15   0.135487D-01  0.136725D-01 -0.159627D+00 -0.134408D+00 -0.330749D-01
     16  -0.666413D-02 -0.224257D-01  0.178936D-01  0.252614D-01  0.223283D-01
                26            27            28            29            30 
      1  -0.770223D+03 -0.770214D+03 -0.770213D+03 -0.770212D+03 -0.770211D+03
      2   0.440390D+00  0.389691D-01 -0.339351D-01  0.144570D+00 -0.141587D-01
      3  -0.223732D+00 -0.535818D-01  0.292830D-01 -0.804769D-01 -0.379239D-01
      4  -0.383755D+00 -0.218662D-01  0.118194D-01 -0.643558D-01  0.565765D-01
      5  -0.896104D-01 -0.612554D-02  0.687573D-02 -0.303621D-01  0.945153D-02
      6   0.415955D-01  0.948971D-02 -0.533144D-02  0.143401D-01 -0.104391D-02
      7   0.768952D-01  0.617022D-02 -0.179900D-02  0.117251D-01 -0.217929D-02
      8   0.241190D+00 -0.132380D+00 -0.119445D-02  0.416260D-01 -0.872588D-01
      9   0.869734D-01 -0.171930D+00  0.205056D-01 -0.255189D-01  0.163334D-01
     10  -0.662322D+00  0.453986D-02  0.522005D-01 -0.121770D+00  0.957476D-01
     11   0.700183D-01  0.234602D-01 -0.782174D-02  0.645673D-01  0.983795D-01
     12  -0.224941D-01 -0.101302D+00 -0.865131D-03  0.110492D-02 -0.273281D-02
     13   0.461533D-01  0.976477D-01 -0.112366D-01  0.188967D-01  0.123741D+00
     14  -0.845229D+00  0.384166D-01  0.510927D-01 -0.164575D+00  0.305110D-01
     15  -0.343337D-01 -0.591668D-02 -0.844234D-02  0.169412D-01  0.873242D-01
     16  -0.260589D+00 -0.101289D-01  0.185223D-01 -0.471120D-01 -0.309245D-01
                31            32            33            34            35 
      1  -0.770206D+03 -0.770205D+03 -0.770204D+03 -0.770204D+03 -0.770201D+03
      2  -0.505120D+00 -0.566375D+00  0.153133D+00 -0.301003D-01  0.811940D-01
      3  -0.591334D-01  0.826845D-01  0.294263D-01  0.516965D-01  0.243764D-01
      4   0.237350D+00  0.210452D+00 -0.753088D-01  0.750135D-01  0.110253D-01
      5   0.113268D+00  0.122849D+00 -0.329205D-01  0.723447D-02 -0.152517D-01
      6   0.134443D-01 -0.178356D-01 -0.686505D-02 -0.103874D-01 -0.534802D-02
      7  -0.549104D-01 -0.494784D-01  0.179138D-01 -0.178803D-01 -0.799772D-03
      8  -0.364740D+00 -0.119820D+00 -0.290196D-01 -0.478125D-01 -0.238247D+00
      9   0.123683D+00 -0.230003D+00 -0.178257D-01 -0.100533D+00  0.752184D-01
     10  -0.484168D-01 -0.173142D+00  0.192529D+00 -0.505328D+00 -0.133499D+00
     11  -0.912365D-01 -0.253544D+00  0.252353D-01 -0.197748D+00 -0.427350D-01
     12  -0.176365D-02  0.459046D-01 -0.172085D-01  0.554818D-01 -0.389040D-01
     13   0.204969D-01  0.316347D-01  0.136078D-01  0.279199D-01  0.499161D-01
     14   0.300862D+00  0.306869D+00 -0.583186D-02 -0.268722D+00 -0.107681D+00
     15   0.160212D-01  0.830215D-01 -0.714712D-02  0.340168D-01 -0.136397D-01
     16  -0.434762D-02 -0.739129D-01  0.290355D-01 -0.115427D+00 -0.264674D-01
                36 
      1  -0.770200D+03
      2  -0.505052D+00
      3  -0.920255D-01
      4   0.261986D+00
      5   0.113113D+00
      6   0.210981D-01
      7  -0.614782D-01
      8  -0.197604D+00
      9  -0.268640D+00
     10  -0.513189D+00
     11  -0.500171D+00
     12   0.189684D+00
     13   0.250025D-01
     14   0.324334D-01
     15   0.164434D+00
     16  -0.157195D+00
 1\1\GINC-GRA610\SP\UB3LYP TD-FC\6-31G(d,p)\C16H17O2(2)\RZK\25-May-2019
 \0\\#p td=(50-50,nstates=36) ub3lyp/6-31g(d,p) scrf=(iefpcm,solvent=ac
 etonitrile) guess=(mix,always) empiricaldispersion=gd3\\Title Card Req
 uired\\0,2\C,0,-1.009558,-1.429484,-0.923388\C,0,0.757856,-1.266886,0.
 976562\O,0,-1.408175,-2.496782,-0.427185\C,0,-0.008114,-1.466101,-2.05
 959\H,0,-0.555889,-1.342397,-3.001524\H,0,0.742117,-0.677057,-2.004582
 \H,0,0.489721,-2.435399,-2.061979\C,0,-0.239528,-1.206546,2.092455\H,0
 ,-0.687155,-0.220009,2.205364\H,0,-1.04629,-1.921581,1.908039\H,0,0.24
 4579,-1.479945,3.039877\C,0,-1.67291,-0.139287,-0.580358\C,0,-2.815617
 ,-0.16753,0.239243\C,0,-1.19887,1.100769,-1.041249\C,0,-3.46217,1.0113
 92,0.59632\H,0,-3.178998,-1.128989,0.584365\C,0,-1.845849,2.281877,-0.
 680434\H,0,-0.314804,1.152883,-1.66519\C,0,-2.976454,2.24158,0.13904\H
 ,0,-4.344136,0.975696,1.228733\H,0,-1.463245,3.234153,-1.034588\H,0,-3
 .477986,3.163012,0.419441\C,0,1.618542,-0.190435,0.594753\C,0,2.714328
 ,-0.414996,-0.284844\C,0,1.391833,1.141976,1.034233\C,0,3.524246,0.633
 708,-0.699696\H,0,2.906057,-1.423379,-0.631646\C,0,2.208518,2.182263,0
 .60986\H,0,0.56521,1.359641,1.699858\C,0,3.280214,1.941529,-0.259231\H
 ,0,4.354328,0.434349,-1.371558\H,0,2.008252,3.191835,0.956976\H,0,3.91
 4556,2.758934,-0.587636\O,0,1.146735,-2.517905,0.593873\H,0,0.33639,-3
 .047233,0.460484\\Version=ES64L-G16RevB.01\State=2-A\HF=-770.4256101\S
 2=0.769796\S2-1=0.\S2A=0.75028\RMSD=9.045e-09\PG=C01 [X(C16H17O2)]\\@


 TIME GOES, YOU SAY?  AH NO!
 ALAS, TIME STAYS, WE GO.
    -- A. DOBSON (1840-1921)
 Job cpu time:       0 days 14 hours 53 minutes 13.6 seconds.
 Elapsed time:       0 days  0 hours 27 minutes 57.4 seconds.
 File lengths (MBytes):  RWF=   2184 Int=      0 D2E=      0 Chk=    178 Scr=      1
 Normal termination of Gaussian 16 at Sat May 25 04:47:39 2019.
