 Entering Gaussian System, Link 0=g16
 Initial command:
 /opt/software/gaussian/g16.b01/l1.exe "/localscratch/rzk.15153363.0/Gau-27183.inp" -scrdir="/localscratch/rzk.15153363.0/"
 Entering Link 1 = /opt/software/gaussian/g16.b01/l1.exe PID=     27187.
  
 Copyright (c) 1988-2017, Gaussian, Inc.  All Rights Reserved.
  
 This is part of the Gaussian(R) 16 program.  It is based on
 the Gaussian(R) 09 system (copyright 2009, Gaussian, Inc.),
 the Gaussian(R) 03 system (copyright 2003, Gaussian, Inc.),
 the Gaussian(R) 98 system (copyright 1998, Gaussian, Inc.),
 the Gaussian(R) 94 system (copyright 1995, Gaussian, Inc.),
 the Gaussian 92(TM) system (copyright 1992, Gaussian, Inc.),
 the Gaussian 90(TM) system (copyright 1990, Gaussian, Inc.),
 the Gaussian 88(TM) system (copyright 1988, Gaussian, Inc.),
 the Gaussian 86(TM) system (copyright 1986, Carnegie Mellon
 University), and the Gaussian 82(TM) system (copyright 1983,
 Carnegie Mellon University). Gaussian is a federally registered
 trademark of Gaussian, Inc.
  
 This software contains proprietary and confidential information,
 including trade secrets, belonging to Gaussian, Inc.
  
 This software is provided under written license and may be
 used, copied, transmitted, or stored only in accord with that
 written license.
  
 The following legend is applicable only to US Government
 contracts under FAR:
  
                    RESTRICTED RIGHTS LEGEND
  
 Use, reproduction and disclosure by the US Government is
 subject to restrictions as set forth in subparagraphs (a)
 and (c) of the Commercial Computer Software - Restricted
 Rights clause in FAR 52.227-19.
  
 Gaussian, Inc.
 340 Quinnipiac St., Bldg. 40, Wallingford CT 06492
  
  
 ---------------------------------------------------------------
 Warning -- This program may not be used in any manner that
 competes with the business of Gaussian, Inc. or will provide
 assistance to any competitor of Gaussian, Inc.  The licensee
 of this program is prohibited from giving any competitor of
 Gaussian, Inc. access to this program.  By using this program,
 the user acknowledges that Gaussian, Inc. is engaged in the
 business of creating and licensing software in the field of
 computational chemistry and represents and warrants to the
 licensee that it is not a competitor of Gaussian, Inc. and that
 it will not use this program in any manner prohibited above.
 ---------------------------------------------------------------
  

 Cite this work as:
 Gaussian 16, Revision B.01,
 M. J. Frisch, G. W. Trucks, H. B. Schlegel, G. E. Scuseria, 
 M. A. Robb, J. R. Cheeseman, G. Scalmani, V. Barone, 
 G. A. Petersson, H. Nakatsuji, X. Li, M. Caricato, A. V. Marenich, 
 J. Bloino, B. G. Janesko, R. Gomperts, B. Mennucci, H. P. Hratchian, 
 J. V. Ortiz, A. F. Izmaylov, J. L. Sonnenberg, D. Williams-Young, 
 F. Ding, F. Lipparini, F. Egidi, J. Goings, B. Peng, A. Petrone, 
 T. Henderson, D. Ranasinghe, V. G. Zakrzewski, J. Gao, N. Rega, 
 G. Zheng, W. Liang, M. Hada, M. Ehara, K. Toyota, R. Fukuda, 
 J. Hasegawa, M. Ishida, T. Nakajima, Y. Honda, O. Kitao, H. Nakai, 
 T. Vreven, K. Throssell, J. A. Montgomery, Jr., J. E. Peralta, 
 F. Ogliaro, M. J. Bearpark, J. J. Heyd, E. N. Brothers, K. N. Kudin, 
 V. N. Staroverov, T. A. Keith, R. Kobayashi, J. Normand, 
 K. Raghavachari, A. P. Rendell, J. C. Burant, S. S. Iyengar, 
 J. Tomasi, M. Cossi, J. M. Millam, M. Klene, C. Adamo, R. Cammi, 
 J. W. Ochterski, R. L. Martin, K. Morokuma, O. Farkas, 
 J. B. Foresman, and D. J. Fox, Gaussian, Inc., Wallingford CT, 2016.
 
 ******************************************
 Gaussian 16:  ES64L-G16RevB.01 20-Dec-2017
                25-May-2019 
 ******************************************
 %NProcShared=32
 Will use up to   32 processors via shared memory.
 %chk=AH-A_1.chk
 ----------------------------------------------------------------------
 #p td=(50-50,nstates=36) ub3lyp/6-31g(d,p) scrf=(iefpcm,solvent=aceton
 itrile) guess=(mix,always) empiricaldispersion=gd3
 ----------------------------------------------------------------------
 1/38=1,172=1/1;
 2/12=2,17=6,18=5,40=1/2;
 3/5=1,6=6,7=101,11=2,25=1,30=1,70=2201,72=2,74=-5,116=2,124=31/1,2,3,8;
 4/13=-1/1;
 5/5=2,38=5,53=2/2;
 8/6=1,10=2,108=36/1;
 9/41=36,42=1,48=2,70=2/14;
 6/7=2,8=2,9=2,10=2/1;
 99/5=1,9=1/99;
 Leave Link    1 at Sat May 25 04:17:44 2019, MaxMem=           0 cpu:               3.2 elap:               0.1
 (Enter /opt/software/gaussian/g16.b01/l101.exe)
 -------------------
 Title Card Required
 -------------------
 Symbolic Z-matrix:
 Charge =  0 Multiplicity = 2
 C                    -1.60827  -1.34912  -0.96227 
 C                     0.75022  -1.38145   1.20025 
 O                    -2.086    -2.23622  -0.2511 
 C                    -0.79367  -1.7044   -2.18487 
 H                    -1.15377  -1.17416  -3.07149 
 H                     0.25098  -1.4151   -2.02622 
 H                    -0.84361  -2.7812   -2.34714 
 C                    -0.20688  -1.17818   2.32747 
 H                    -0.31518  -0.12938   2.60215 
 H                    -1.1995   -1.54577   2.03523 
 H                     0.10212  -1.74118   3.21867 
 C                    -1.78172   0.0873   -0.6013 
 C                    -2.6818    0.42187   0.42491 
 C                    -1.04205   1.10682  -1.22267 
 C                    -2.83765   1.74568   0.82358 
 H                    -3.24829  -0.37311   0.89722 
 C                    -1.19121   2.43145  -0.81502 
 H                    -0.32854   0.86993  -2.00364 
 C                    -2.08918   2.75352   0.20554 
 H                    -3.5378    1.99531   1.61492 
 H                    -0.60241   3.21043  -1.28894 
 H                    -2.20506   3.7863    0.52035 
 C                     1.64257  -0.42824   0.64913 
 C                     2.44795  -0.75688  -0.48428 
 C                     1.75589   0.89659   1.16474 
 C                     3.28348   0.18587  -1.06645 
 H                     2.39508  -1.7609   -0.88887 
 C                     2.59768   1.82563   0.57117 
 H                     1.17153   1.19252   2.02874 
 C                     3.36869   1.48709  -0.55085 
 H                     3.87845  -0.09285  -1.93212 
 H                     2.65505   2.82932   0.98347 
 H                     4.02317   2.22076  -1.01084 
 O                     0.76121  -2.63092   0.63714 
 H                    -0.12826  -3.01507   0.70586 
 
 ITRead=  0  0  0  0  0  0  0  0  0  0  0  0  0  0  0  0  0  0  0  0
 ITRead=  0  0  0  0  0  0  0  0  0  0  0  0  0  0  0
 MicOpt= -1 -1 -1 -1 -1 -1 -1 -1 -1 -1 -1 -1 -1 -1 -1 -1 -1 -1 -1 -1
 MicOpt= -1 -1 -1 -1 -1 -1 -1 -1 -1 -1 -1 -1 -1 -1 -1
 NAtoms=     35 NQM=       35 NQMF=       0 NMMI=      0 NMMIF=      0
                NMic=       0 NMicF=      0.
                    Isotopes and Nuclear Properties:
 (Nuclear quadrupole moments (NQMom) in fm**2, nuclear magnetic moments (NMagM)
  in nuclear magnetons)

  Atom         1           2           3           4           5           6           7           8           9          10
 IAtWgt=          12          12          16          12           1           1           1          12           1           1
 AtmWgt=  12.0000000  12.0000000  15.9949146  12.0000000   1.0078250   1.0078250   1.0078250  12.0000000   1.0078250   1.0078250
 NucSpn=           0           0           0           0           1           1           1           0           1           1
 AtZEff=  -0.0000000  -0.0000000  -0.0000000  -0.0000000  -0.0000000  -0.0000000  -0.0000000  -0.0000000  -0.0000000  -0.0000000
 NQMom=    0.0000000   0.0000000   0.0000000   0.0000000   0.0000000   0.0000000   0.0000000   0.0000000   0.0000000   0.0000000
 NMagM=    0.0000000   0.0000000   0.0000000   0.0000000   2.7928460   2.7928460   2.7928460   0.0000000   2.7928460   2.7928460
 AtZNuc=   6.0000000   6.0000000   8.0000000   6.0000000   1.0000000   1.0000000   1.0000000   6.0000000   1.0000000   1.0000000

  Atom        11          12          13          14          15          16          17          18          19          20
 IAtWgt=           1          12          12          12          12           1          12           1          12           1
 AtmWgt=   1.0078250  12.0000000  12.0000000  12.0000000  12.0000000   1.0078250  12.0000000   1.0078250  12.0000000   1.0078250
 NucSpn=           1           0           0           0           0           1           0           1           0           1
 AtZEff=  -0.0000000  -0.0000000  -0.0000000  -0.0000000  -0.0000000  -0.0000000  -0.0000000  -0.0000000  -0.0000000  -0.0000000
 NQMom=    0.0000000   0.0000000   0.0000000   0.0000000   0.0000000   0.0000000   0.0000000   0.0000000   0.0000000   0.0000000
 NMagM=    2.7928460   0.0000000   0.0000000   0.0000000   0.0000000   2.7928460   0.0000000   2.7928460   0.0000000   2.7928460
 AtZNuc=   1.0000000   6.0000000   6.0000000   6.0000000   6.0000000   1.0000000   6.0000000   1.0000000   6.0000000   1.0000000

  Atom        21          22          23          24          25          26          27          28          29          30
 IAtWgt=           1           1          12          12          12          12           1          12           1          12
 AtmWgt=   1.0078250   1.0078250  12.0000000  12.0000000  12.0000000  12.0000000   1.0078250  12.0000000   1.0078250  12.0000000
 NucSpn=           1           1           0           0           0           0           1           0           1           0
 AtZEff=  -0.0000000  -0.0000000  -0.0000000  -0.0000000  -0.0000000  -0.0000000  -0.0000000  -0.0000000  -0.0000000  -0.0000000
 NQMom=    0.0000000   0.0000000   0.0000000   0.0000000   0.0000000   0.0000000   0.0000000   0.0000000   0.0000000   0.0000000
 NMagM=    2.7928460   2.7928460   0.0000000   0.0000000   0.0000000   0.0000000   2.7928460   0.0000000   2.7928460   0.0000000
 AtZNuc=   1.0000000   1.0000000   6.0000000   6.0000000   6.0000000   6.0000000   1.0000000   6.0000000   1.0000000   6.0000000

  Atom        31          32          33          34          35
 IAtWgt=           1           1           1          16           1
 AtmWgt=   1.0078250   1.0078250   1.0078250  15.9949146   1.0078250
 NucSpn=           1           1           1           0           1
 AtZEff=  -0.0000000  -0.0000000  -0.0000000  -0.0000000  -0.0000000
 NQMom=    0.0000000   0.0000000   0.0000000   0.0000000   0.0000000
 NMagM=    2.7928460   2.7928460   2.7928460   0.0000000   2.7928460
 AtZNuc=   1.0000000   1.0000000   1.0000000   8.0000000   1.0000000
 Leave Link  101 at Sat May 25 04:17:44 2019, MaxMem=   104857600 cpu:               5.8 elap:               0.2
 (Enter /opt/software/gaussian/g16.b01/l202.exe)
                          Input orientation:                          
 ---------------------------------------------------------------------
 Center     Atomic      Atomic             Coordinates (Angstroms)
 Number     Number       Type             X           Y           Z
 ---------------------------------------------------------------------
      1          6           0       -1.608270   -1.349123   -0.962268
      2          6           0        0.750216   -1.381453    1.200254
      3          8           0       -2.085995   -2.236219   -0.251104
      4          6           0       -0.793665   -1.704399   -2.184867
      5          1           0       -1.153771   -1.174157   -3.071487
      6          1           0        0.250977   -1.415102   -2.026222
      7          1           0       -0.843612   -2.781195   -2.347143
      8          6           0       -0.206880   -1.178180    2.327468
      9          1           0       -0.315182   -0.129376    2.602152
     10          1           0       -1.199496   -1.545770    2.035227
     11          1           0        0.102119   -1.741178    3.218672
     12          6           0       -1.781718    0.087298   -0.601303
     13          6           0       -2.681800    0.421866    0.424908
     14          6           0       -1.042048    1.106822   -1.222674
     15          6           0       -2.837652    1.745677    0.823579
     16          1           0       -3.248286   -0.373114    0.897216
     17          6           0       -1.191211    2.431445   -0.815020
     18          1           0       -0.328538    0.869925   -2.003642
     19          6           0       -2.089183    2.753522    0.205539
     20          1           0       -3.537798    1.995307    1.614915
     21          1           0       -0.602405    3.210427   -1.288943
     22          1           0       -2.205059    3.786303    0.520350
     23          6           0        1.642568   -0.428236    0.649129
     24          6           0        2.447953   -0.756883   -0.484284
     25          6           0        1.755889    0.896592    1.164740
     26          6           0        3.283480    0.185868   -1.066453
     27          1           0        2.395081   -1.760899   -0.888871
     28          6           0        2.597677    1.825627    0.571170
     29          1           0        1.171535    1.192521    2.028739
     30          6           0        3.368694    1.487093   -0.550848
     31          1           0        3.878445   -0.092851   -1.932119
     32          1           0        2.655046    2.829319    0.983467
     33          1           0        4.023167    2.220758   -1.010838
     34          8           0        0.761214   -2.630915    0.637135
     35          1           0       -0.128263   -3.015067    0.705863
 ---------------------------------------------------------------------
                    Distance matrix (angstroms):
                    1          2          3          4          5
     1  C    0.000000
     2  C    3.200000   0.000000
     3  O    1.233254   3.298660   0.000000
     4  C    1.511473   3.734556   2.385873   0.000000
     5  H    2.164714   4.681443   3.154612   1.094042   0.000000
     6  H    2.143164   3.265045   3.047411   1.095508   1.767470
     7  H    2.133872   4.133230   2.496777   1.090100   1.789817
     8  C    3.579871   1.492637   3.361481   4.580654   5.481362
     9  H    3.983083   2.160576   3.964295   5.062133   5.829664
    10  H    3.031624   2.127336   2.547530   4.242529   5.120421
    11  H    4.534247   2.150219   4.131858   5.477410   6.439322
    12  C    1.491203   3.437081   2.369379   2.587296   2.843835
    13  C    2.492614   3.953714   2.806669   3.859661   4.136054
    14  C    2.533789   3.908235   3.634515   2.981690   2.938274
    15  C    3.778679   4.774267   4.192306   5.013148   5.150963
    16  H    2.664569   4.134803   2.478048   4.158933   4.558428
    17  C    3.806352   4.729552   4.785993   4.374898   4.253635
    18  H    2.765203   4.061695   3.975950   2.622276   2.449403
    19  C    4.292639   5.113674   5.010594   5.221635   5.200054
    20  H    4.642215   5.473711   4.847223   5.971301   6.139336
    21  H    4.680596   5.395465   5.739695   4.999477   4.765086
    22  H    5.378375   5.991796   6.072898   6.281564   6.213909
    23  C    3.743338   1.417270   4.240449   3.949096   4.713692
    24  C    4.127004   2.471855   4.774881   3.781251   4.454229
    25  C    4.570007   2.490407   5.155501   4.948257   5.540735
    26  C    5.127989   3.743245   5.946643   4.631098   5.055594
    27  H    4.025142   2.685890   4.551123   3.442513   4.207425
    28  C    5.488211   3.754227   6.253920   5.617653   6.028351
    29  H    4.809719   2.736647   5.250280   5.478014   6.084449
    30  C    5.743131   4.260439   6.611091   5.493712   5.821388
    31  H    5.711644   4.610648   6.557010   4.948695   5.271677
    32  H    6.278624   4.626659   7.047078   6.518171   6.854018
    33  H    6.667795   5.345752   7.600243   6.323533   6.524754
    34  O    3.132975   1.370540   3.008547   3.352577   4.420768
    35  H    2.783604   1.919594   2.314110   3.242982   4.325389
                    6          7          8          9         10
     6  H    0.000000
     7  H    1.779698   0.000000
     8  C    4.384106   4.982677   0.000000
     9  H    4.836887   5.639761   1.089574   0.000000
    10  H    4.314663   4.567066   1.098096   1.763402   0.000000
    11  H    5.257128   5.740587   1.098495   1.775427   1.770008
    12  C    2.901629   3.486582   3.557984   3.529844   3.155501
    13  C    4.240716   4.617662   3.507864   3.262689   2.943118
    14  C    2.945794   4.052220   4.303748   4.084827   4.204159
    15  C    5.258471   5.875563   4.210889   3.611371   3.871081
    16  H    4.677293   4.701827   3.455995   3.401369   2.620636
    17  C    4.282854   5.444248   4.886055   4.359162   4.893078
    18  H    2.357477   3.703238   4.792499   4.712974   4.786085
    19  C    5.275844   6.220991   4.848085   4.147521   4.756387
    20  H    6.264470   6.765465   4.655509   3.984240   4.264217
    21  H    4.761025   6.089130   5.700416   5.135893   5.833355
    22  H    6.290609   7.294387   5.648406   4.820589   5.633561
    23  C    3.173001   4.549193   2.607623   2.781439   3.353726
    24  C    2.763608   4.289812   3.889933   4.189841   4.502684
    25  C    4.217929   5.711116   3.083679   2.721782   3.931562
    26  C    3.560946   5.241805   5.055882   5.148632   5.719796
    27  H    2.451596   3.695496   4.177870   4.711118   4.638708
    28  C    4.770301   6.448397   4.469114   4.053600   5.284724
    29  H    4.908140   6.244964   2.758530   2.070396   3.622163
    30  C    4.507729   6.260070   5.307835   5.111294   6.062541
    31  H    3.862088   5.449519   6.000992   6.176363   6.605777
    32  H    5.731744   7.403475   5.104606   4.494026   5.924955
    33  H    5.336656   7.105687   6.371057   6.115398   7.123304
    34  O    2.971870   3.391750   2.429994   3.358216   2.641323
    35  H    3.188730   3.144402   2.451517   3.458043   2.252461
                   11         12         13         14         15
    11  H    0.000000
    12  C    4.635124   0.000000
    13  C    4.498231   1.405415   0.000000
    14  C    5.398683   1.404508   2.423320   0.000000
    15  C    5.151396   2.428066   1.391296   2.796333   0.000000
    16  H    4.299531   2.146709   1.084424   3.398769   2.159472
    17  C    5.945936   2.426808   2.792433   1.393936   2.421993
    18  H    5.854561   2.165824   3.411225   1.084033   3.880177
    19  C    5.838074   2.802549   2.415768   2.418244   1.399261
    20  H    5.457321   3.411149   2.150480   3.882021   1.085694
    21  H    6.733004   3.408455   3.877788   2.150077   3.406548
    22  H    6.569403   3.888439   3.399386   3.401521   2.157841
    23  C    3.270986   3.681724   4.412834   3.614860   4.982841
    24  C    4.492623   4.314679   5.341390   4.024764   5.992573
    25  C    3.729802   4.035905   4.523914   3.684073   4.683797
    26  C    5.674228   5.087466   6.153407   4.425241   6.593442
    27  H    4.704251   4.576481   5.680246   4.488775   6.527638
    28  C    5.095015   4.855469   5.464871   4.120941   5.441774
    29  H    3.341584   4.106135   4.244334   3.934334   4.222792
    30  C    5.941509   5.337482   6.220554   4.477790   6.361969
    31  H    6.596080   5.817299   6.989801   5.114077   7.488659
    32  H    5.692365   5.451151   5.881305   4.637085   5.600855
    33  H    6.997164   6.198069   7.089003   5.190581   7.117698
    34  O    2.808980   3.922871   4.606393   4.547672   5.669317
    35  H    2.826673   3.750635   4.290920   4.641576   5.478990
                   16         17         18         19         20
    16  H    0.000000
    17  C    3.876707   0.000000
    18  H    4.299425   2.143682   0.000000
    19  C    3.405553   1.397007   3.395333   0.000000
    20  H    2.491651   3.406064   4.965862   2.158638   0.000000
    21  H    4.962030   1.085407   2.462468   2.157023   4.304119
    22  H    4.304776   2.155630   4.289187   1.085896   2.486349
    23  C    4.897452   4.283901   3.550729   4.924055   5.800215
    24  C    5.873922   4.849571   3.558631   5.777924   6.914507
    25  C    5.169670   3.867896   3.792650   4.376395   5.425215
    26  C    6.843422   5.012853   3.793802   6.089033   7.549413
    27  H    6.079773   5.517490   3.947411   6.456497   7.455004
    28  C    6.254283   4.079732   4.013198   4.791798   6.225934
    29  H    4.823523   3.899291   4.314439   4.048835   4.795157
    30  C    7.024364   4.664153   4.020079   5.653705   7.255925
    31  H    7.672938   5.772468   4.316336   6.948669   8.481893
    32  H    6.716572   4.264569   4.654441   4.808183   6.280575
    33  H    7.952539   5.222305   4.663448   6.254937   8.007097
    34  O    4.608839   5.616779   4.518533   6.107635   6.390578
    35  H    4.092808   5.753906   4.740748   6.113277   6.128226
                   21         22         23         24         25
    21  H    0.000000
    22  H    2.484688   0.000000
    23  C    4.694241   5.708166   0.000000
    24  C    5.068699   6.580300   1.428733   0.000000
    25  C    4.115330   4.945177   1.426137   2.435613   0.000000
    26  C    4.929256   6.753158   2.452129   1.387734   2.795869
    27  H    5.818854   7.342931   2.169726   1.083759   3.418793
    28  C    3.951989   5.187784   2.449124   2.793879   1.387097
    29  H    4.269171   4.517115   2.179920   3.427055   1.084222
    30  C    4.391388   6.123770   2.843931   2.426442   2.427565
    31  H    5.603868   7.620463   3.431395   2.140904   3.882625
    32  H    3.989997   4.975029   3.427617   3.880467   2.139340
    33  H    4.738428   6.601990   3.929365   3.409531   3.409854
    34  O    6.300040   7.070580   2.372493   2.759468   3.702844
    35  H    6.554452   7.113799   3.135404   3.626670   4.365968
                   26         27         28         29         30
    26  C    0.000000
    27  H    2.147252   0.000000
    28  C    2.416805   3.877620   0.000000
    29  H    3.879932   4.328071   2.135231   0.000000
    30  C    1.402247   3.407585   1.402853   3.401257   0.000000
    31  H    1.086759   2.463964   3.404024   4.966683   2.159625
    32  H    3.403665   4.964205   1.086590   2.443871   2.159858
    33  H    2.165873   4.303386   2.165848   4.292797   1.085445
    34  O    4.147084   2.398988   4.820551   4.089448   5.016796
    35  H    5.002707   3.237805   5.557086   4.598181   5.837592
                   31         32         33         34         35
    31  H    0.000000
    32  H    4.305395   0.000000
    33  H    2.494492   2.493863   0.000000
    34  O    4.770740   5.789706   6.074116   0.000000
    35  H    5.617117   6.479253   6.898934   0.971322   0.000000
 Stoichiometry    C16H17O2(2)
 Framework group  C1[X(C16H17O2)]
 Deg. of freedom    99
 Full point group                 C1      NOp   1
 Largest Abelian subgroup         C1      NOp   1
 Largest concise Abelian subgroup C1      NOp   1
                         Standard orientation:                         
 ---------------------------------------------------------------------
 Center     Atomic      Atomic             Coordinates (Angstroms)
 Number     Number       Type             X           Y           Z
 ---------------------------------------------------------------------
      1          6           0       -1.608270   -1.349123   -0.962268
      2          6           0        0.750216   -1.381453    1.200254
      3          8           0       -2.085995   -2.236219   -0.251104
      4          6           0       -0.793665   -1.704399   -2.184867
      5          1           0       -1.153771   -1.174157   -3.071487
      6          1           0        0.250977   -1.415102   -2.026222
      7          1           0       -0.843612   -2.781195   -2.347143
      8          6           0       -0.206880   -1.178180    2.327468
      9          1           0       -0.315182   -0.129376    2.602152
     10          1           0       -1.199496   -1.545770    2.035227
     11          1           0        0.102119   -1.741178    3.218672
     12          6           0       -1.781718    0.087298   -0.601303
     13          6           0       -2.681800    0.421866    0.424908
     14          6           0       -1.042048    1.106822   -1.222674
     15          6           0       -2.837652    1.745677    0.823579
     16          1           0       -3.248286   -0.373114    0.897216
     17          6           0       -1.191211    2.431445   -0.815020
     18          1           0       -0.328538    0.869925   -2.003642
     19          6           0       -2.089183    2.753522    0.205539
     20          1           0       -3.537798    1.995307    1.614915
     21          1           0       -0.602405    3.210427   -1.288943
     22          1           0       -2.205059    3.786303    0.520350
     23          6           0        1.642568   -0.428236    0.649129
     24          6           0        2.447953   -0.756883   -0.484284
     25          6           0        1.755889    0.896592    1.164740
     26          6           0        3.283480    0.185868   -1.066453
     27          1           0        2.395081   -1.760899   -0.888871
     28          6           0        2.597677    1.825627    0.571170
     29          1           0        1.171535    1.192521    2.028739
     30          6           0        3.368694    1.487093   -0.550848
     31          1           0        3.878445   -0.092851   -1.932119
     32          1           0        2.655046    2.829319    0.983467
     33          1           0        4.023167    2.220758   -1.010838
     34          8           0        0.761214   -2.630915    0.637135
     35          1           0       -0.128263   -3.015067    0.705863
 ---------------------------------------------------------------------
 Rotational constants (GHZ):           0.5227446           0.3887859           0.3052356
 Leave Link  202 at Sat May 25 04:17:44 2019, MaxMem=   104857600 cpu:               1.0 elap:               0.1
 (Enter /opt/software/gaussian/g16.b01/l301.exe)
 Standard basis: 6-31G(d,p) (6D, 7F)
 Ernie: Thresh=  0.10000D-02 Tol=  0.10000D-05 Strict=F.
 There are   355 symmetry adapted cartesian basis functions of A   symmetry.
 There are   355 symmetry adapted basis functions of A   symmetry.
   355 basis functions,   623 primitive gaussians,   355 cartesian basis functions
    65 alpha electrons       64 beta electrons
       nuclear repulsion energy      1295.4895349652 Hartrees.
 IExCor=  402 DFT=T Ex+Corr=B3LYP ExCW=0 ScaHFX=  0.200000
 ScaDFX=  0.800000  0.720000  1.000000  0.810000 ScalE2=  1.000000  1.000000
 IRadAn=      5 IRanWt=     -1 IRanGd=            0 ICorTp=0 IEmpDi=131
 NAtoms=   35 NActive=   35 NUniq=   35 SFac= 1.00D+00 NAtFMM=   60 NAOKFM=F Big=F
 Integral buffers will be    131072 words long.
 Raffenetti 2 integral format.
 Two-electron integral symmetry is turned on.
 R6Disp:  Grimme-D3 Dispersion energy=       -0.0391351559 Hartrees.
 Nuclear repulsion after empirical dispersion term =     1295.4503998094 Hartrees.
 ------------------------------------------------------------------------------
 Polarizable Continuum Model (PCM)
 =================================
 Model                : PCM.
 Atomic radii         : UFF (Universal Force Field).
 Polarization charges : Total charges.
 Charge compensation  : None.
 Solution method      : On-the-fly selection.
 Cavity type          : Scaled VdW (van der Waals Surface) (Alpha=1.100).
 Cavity algorithm     : GePol (No added spheres)
                        Default sphere list used, NSphG=   35.
                        Lebedev-Laikov grids with approx.  5.0 points / Ang**2.
                        Smoothing algorithm: York/Karplus (Gamma=1.0000).
                        Polarization charges: spherical gaussians, with
                                              point-specific exponents (IZeta= 3).
                        Self-potential: point-specific (ISelfS= 7).
                        Self-field    : sphere-specific E.n sum rule (ISelfD= 2).
 Solvent              : Acetonitrile, Eps=  35.688000 Eps(inf)=   1.806874
 ------------------------------------------------------------------------------
 GePol: Number of generator spheres                  =      35
 GePol: Total number of spheres                      =      35
 GePol: Number of exposed spheres                    =      35 (100.00%)
 GePol: Number of points                             =    2507
 GePol: Average weight of points                     =       0.13
 GePol: Minimum weight of points                     =   0.48D-09
 GePol: Maximum weight of points                     =    0.20577
 GePol: Number of points with low weight             =     199
 GePol: Fraction of low-weight points (<1% of avg)   =       7.94%
 GePol: Cavity surface area                          =    320.420 Ang**2
 GePol: Cavity volume                                =    364.592 Ang**3
 Leave Link  301 at Sat May 25 04:17:45 2019, MaxMem=   104857600 cpu:               3.4 elap:               0.1
 (Enter /opt/software/gaussian/g16.b01/l302.exe)
 NPDir=0 NMtPBC=     1 NCelOv=     1 NCel=       1 NClECP=     1 NCelD=      1
         NCelK=      1 NCelE2=     1 NClLst=     1 CellRange=     0.0.
 One-electron integrals computed using PRISM.
 One-electron integral symmetry used in STVInt
 PrsmSu:  requested number of processors reduced to:  28 ShMem   1 Linda.
 NBasis=   355 RedAO= T EigKep=  4.66D-04  NBF=   355
 NBsUse=   355 1.00D-06 EigRej= -1.00D+00 NBFU=   355
 Precomputing XC quadrature grid using
 IXCGrd= 4 IRadAn=           5 IRanWt=          -1 IRanGd=           0 AccXCQ= 0.00D+00.
 Generated NRdTot=       0 NPtTot=           0 NUsed=           0 NTot=          32
 NSgBfM=   354   354   354   354   354 MxSgAt=    35 MxSgA2=    35.
 Leave Link  302 at Sat May 25 04:17:45 2019, MaxMem=   104857600 cpu:              14.3 elap:               0.5
 (Enter /opt/software/gaussian/g16.b01/l303.exe)
 DipDrv:  MaxL=1.
 Leave Link  303 at Sat May 25 04:17:45 2019, MaxMem=   104857600 cpu:               3.4 elap:               0.1
 (Enter /opt/software/gaussian/g16.b01/l308.exe)
 Leave Link  308 at Sat May 25 04:17:46 2019, MaxMem=   104857600 cpu:               2.7 elap:               0.1
 (Enter /opt/software/gaussian/g16.b01/l401.exe)
 ExpMin= 1.61D-01 ExpMax= 5.48D+03 ExpMxC= 8.25D+02 IAcc=3 IRadAn=         5 AccDes= 0.00D+00
 Harris functional with IExCor=  402 and IRadAn=       5 diagonalized for initial guess.
 HarFok:  IExCor=  402 AccDes= 0.00D+00 IRadAn=         5 IDoV= 1 UseB2=F ITyADJ=14
 ICtDFT=  3500011 ScaDFX=  1.000000  1.000000  1.000000  1.000000
 FoFCou: FMM=F IPFlag=           0 FMFlag=      100000 FMFlg1=           0
         NFxFlg=           0 DoJE=T BraDBF=F KetDBF=T FulRan=T
         wScrn=  0.000000 ICntrl=       500 IOpCl=  0 I1Cent=   200000004 NGrid=           0
         NMat0=    1 NMatS0=      1 NMatT0=    0 NMatD0=    1 NMtDS0=    0 NMtDT0=    0
 Petite list used in FoFCou.
 Harris En= -770.481008707523    
 JPrj=0 DoOrth=F DoCkMO=T.
 Mixing orbitals, IMix= 1 IMixAn=  0 NRI=1 NE=   65 Coef=  7.07106781D-01  7.07106781D-01
 Mixing orbitals, IMix= 1 IMixAn=  0 NRI=1 NE=   64 Coef= -7.07106781D-01  7.07106781D-01
 Initial guess <Sx>= 0.0000 <Sy>= 0.0000 <Sz>= 0.5000 <S**2>= 1.0000 S= 0.6180
 Leave Link  401 at Sat May 25 04:17:47 2019, MaxMem=   104857600 cpu:              27.9 elap:               0.9
 (Enter /opt/software/gaussian/g16.b01/l502.exe)
 Integral symmetry usage will be decided dynamically.
 UHF open shell SCF:
 Using DIIS extrapolation, IDIIS=  1040.
 NGot=   104857600 LenX=   104590331 LenY=   104463865
 Requested convergence on RMS density matrix=1.00D-08 within 128 cycles.
 Requested convergence on MAX density matrix=1.00D-06.
 Requested convergence on             energy=1.00D-06.
 No special actions if energy rises.
 Fock matrices will be formed incrementally for  20 cycles.

 Cycle   1  Pass 1  IDiag  1:
 FoFJK:  IHMeth= 1 ICntrl=       0 DoSepK=F KAlg= 0 I1Cent=           0 FoldK=F
 IRaf= 830000000 NMat=       1 IRICut=       1 DoRegI=T DoRafI=F ISym2E= 0 IDoP0=0 IntGTp=1.
 FoFCou: FMM=F IPFlag=           0 FMFlag=      100000 FMFlg1=           0
         NFxFlg=           0 DoJE=F BraDBF=F KetDBF=F FulRan=T
         wScrn=  0.000000 ICntrl=         0 IOpCl=  1 I1Cent=           0 NGrid=           0
         NMat0=    1 NMatS0=      1 NMatT0=    0 NMatD0=    1 NMtDS0=    0 NMtDT0=    0
 Symmetry not used in FoFCou.
 Inv3:  Mode=1 IEnd=    18855147.
 Iteration    1 A*A^-1 deviation from unit magnitude is 3.11D-15 for   1464.
 Iteration    1 A*A^-1 deviation from orthogonality  is 2.66D-15 for   1252    865.
 Iteration    1 A^-1*A deviation from unit magnitude is 2.78D-15 for    586.
 Iteration    1 A^-1*A deviation from orthogonality  is 2.45D-15 for   1707   1114.
 E= -769.868109051659    
 DIIS: error= 2.81D-02 at cycle   1 NSaved=   1.
 NSaved= 1 IEnMin= 1 EnMin= -769.868109051659     IErMin= 1 ErrMin= 2.81D-02
 ErrMax= 2.81D-02  0.00D+00 EMaxC= 1.00D-01 BMatC= 1.80D+00 BMatP= 1.80D+00
 IDIUse=3 WtCom= 7.19D-01 WtEn= 2.81D-01
 Coeff-Com:  0.100D+01
 Coeff-En:   0.100D+01
 Coeff:      0.100D+01
 Gap=     0.002 Goal=   None    Shift=    0.000
 Gap=    -0.006 Goal=   None    Shift=    0.000
 GapD=   -0.006 DampG=0.250 DampE=0.500 DampFc=0.2500 IDamp=-1.
 Damping current iteration by 2.50D-01
 RMSDP=4.59D-03 MaxDP=1.59D-01              OVMax= 6.70D-01

 Cycle   2  Pass 1  IDiag  1:
 RMSU=  1.12D-03    CP:  9.86D-01
 E= -770.052049507787     Delta-E=       -0.183940456128 Rises=F Damp=T
 DIIS: error= 1.56D-02 at cycle   2 NSaved=   2.
 NSaved= 2 IEnMin= 2 EnMin= -770.052049507787     IErMin= 2 ErrMin= 1.56D-02
 ErrMax= 1.56D-02  0.00D+00 EMaxC= 1.00D-01 BMatC= 4.84D-01 BMatP= 1.80D+00
 IDIUse=3 WtCom= 8.44D-01 WtEn= 1.56D-01
 Coeff-Com: -0.845D+00 0.184D+01
 Coeff-En:   0.000D+00 0.100D+01
 Coeff:     -0.713D+00 0.171D+01
 Gap=     0.049 Goal=   None    Shift=    0.000
 Gap=     0.160 Goal=   None    Shift=    0.000
 RMSDP=2.10D-03 MaxDP=5.20D-02 DE=-1.84D-01 OVMax= 2.53D-01

 Cycle   3  Pass 1  IDiag  1:
 RMSU=  1.48D-03    CP:  9.57D-01  2.25D+00
 E= -770.397226874017     Delta-E=       -0.345177366230 Rises=F Damp=F
 DIIS: error= 6.73D-03 at cycle   3 NSaved=   3.
 NSaved= 3 IEnMin= 3 EnMin= -770.397226874017     IErMin= 3 ErrMin= 6.73D-03
 ErrMax= 6.73D-03  0.00D+00 EMaxC= 1.00D-01 BMatC= 1.26D-01 BMatP= 4.84D-01
 IDIUse=3 WtCom= 9.33D-01 WtEn= 6.73D-02
 Coeff-Com: -0.438D+00 0.927D+00 0.511D+00
 Coeff-En:   0.000D+00 0.000D+00 0.100D+01
 Coeff:     -0.408D+00 0.864D+00 0.544D+00
 Gap=     0.076 Goal=   None    Shift=    0.000
 Gap=     0.160 Goal=   None    Shift=    0.000
 RMSDP=7.74D-04 MaxDP=3.85D-02 DE=-3.45D-01 OVMax= 9.87D-02

 Cycle   4  Pass 1  IDiag  1:
 RMSU=  6.84D-04    CP:  9.59D-01  2.31D+00  7.60D-01
 E= -770.422194751587     Delta-E=       -0.024967877569 Rises=F Damp=F
 DIIS: error= 3.73D-03 at cycle   4 NSaved=   4.
 NSaved= 4 IEnMin= 4 EnMin= -770.422194751587     IErMin= 4 ErrMin= 3.73D-03
 ErrMax= 3.73D-03  0.00D+00 EMaxC= 1.00D-01 BMatC= 3.21D-02 BMatP= 1.26D-01
 IDIUse=3 WtCom= 9.63D-01 WtEn= 3.73D-02
 Coeff-Com: -0.479D-01 0.116D+00 0.330D+00 0.602D+00
 Coeff-En:   0.000D+00 0.000D+00 0.193D+00 0.807D+00
 Coeff:     -0.461D-01 0.112D+00 0.324D+00 0.610D+00
 Gap=     0.085 Goal=   None    Shift=    0.000
 Gap=     0.170 Goal=   None    Shift=    0.000
 RMSDP=3.17D-04 MaxDP=1.76D-02 DE=-2.50D-02 OVMax= 2.84D-02

 Cycle   5  Pass 1  IDiag  1:
 RMSU=  2.07D-04    CP:  9.58D-01  2.29D+00  8.60D-01  7.27D-01
 E= -770.429573060338     Delta-E=       -0.007378308752 Rises=F Damp=F
 DIIS: error= 9.26D-04 at cycle   5 NSaved=   5.
 NSaved= 5 IEnMin= 5 EnMin= -770.429573060338     IErMin= 5 ErrMin= 9.26D-04
 ErrMax= 9.26D-04  0.00D+00 EMaxC= 1.00D-01 BMatC= 2.59D-03 BMatP= 3.21D-02
 IDIUse=3 WtCom= 9.91D-01 WtEn= 9.26D-03
 Coeff-Com:  0.366D-02-0.552D-03 0.131D+00 0.319D+00 0.548D+00
 Coeff-En:   0.000D+00 0.000D+00 0.000D+00 0.000D+00 0.100D+01
 Coeff:      0.363D-02-0.547D-03 0.129D+00 0.316D+00 0.552D+00
 Gap=     0.088 Goal=   None    Shift=    0.000
 Gap=     0.172 Goal=   None    Shift=    0.000
 RMSDP=1.00D-04 MaxDP=4.81D-03 DE=-7.38D-03 OVMax= 9.72D-03

 Cycle   6  Pass 1  IDiag  1:
 RMSU=  8.94D-05    CP:  9.58D-01  2.29D+00  8.71D-01  7.67D-01  8.47D-01
 E= -770.430257152757     Delta-E=       -0.000684092418 Rises=F Damp=F
 DIIS: error= 5.28D-04 at cycle   6 NSaved=   6.
 NSaved= 6 IEnMin= 6 EnMin= -770.430257152757     IErMin= 6 ErrMin= 5.28D-04
 ErrMax= 5.28D-04  0.00D+00 EMaxC= 1.00D-01 BMatC= 4.68D-04 BMatP= 2.59D-03
 IDIUse=3 WtCom= 9.95D-01 WtEn= 5.28D-03
 Coeff-Com:  0.110D-01-0.212D-01-0.106D-01 0.715D-02 0.274D+00 0.740D+00
 Coeff-En:   0.000D+00 0.000D+00 0.000D+00 0.000D+00 0.000D+00 0.100D+01
 Coeff:      0.109D-01-0.211D-01-0.105D-01 0.712D-02 0.272D+00 0.741D+00
 Gap=     0.091 Goal=   None    Shift=    0.000
 Gap=     0.172 Goal=   None    Shift=    0.000
 RMSDP=5.65D-05 MaxDP=4.13D-03 DE=-6.84D-04 OVMax= 9.70D-03

 Cycle   7  Pass 1  IDiag  1:
 RMSU=  4.12D-05    CP:  9.58D-01  2.30D+00  8.71D-01  7.91D-01  1.01D+00
                    CP:  9.45D-01
 E= -770.430491140236     Delta-E=       -0.000233987479 Rises=F Damp=F
 DIIS: error= 3.64D-04 at cycle   7 NSaved=   7.
 NSaved= 7 IEnMin= 7 EnMin= -770.430491140236     IErMin= 7 ErrMin= 3.64D-04
 ErrMax= 3.64D-04  0.00D+00 EMaxC= 1.00D-01 BMatC= 8.87D-05 BMatP= 4.68D-04
 IDIUse=3 WtCom= 9.96D-01 WtEn= 3.64D-03
 Coeff-Com:  0.422D-03-0.167D-02-0.303D-01-0.758D-01-0.719D-01 0.237D+00
 Coeff-Com:  0.942D+00
 Coeff-En:   0.000D+00 0.000D+00 0.000D+00 0.000D+00 0.000D+00 0.000D+00
 Coeff-En:   0.100D+01
 Coeff:      0.420D-03-0.167D-02-0.302D-01-0.756D-01-0.717D-01 0.236D+00
 Coeff:      0.942D+00
 Gap=     0.091 Goal=   None    Shift=    0.000
 Gap=     0.173 Goal=   None    Shift=    0.000
 RMSDP=3.57D-05 MaxDP=1.99D-03 DE=-2.34D-04 OVMax= 7.49D-03

 Cycle   8  Pass 1  IDiag  1:
 RMSU=  2.18D-05    CP:  9.58D-01  2.30D+00  8.76D-01  7.94D-01  1.08D+00
                    CP:  1.19D+00  1.23D+00
 E= -770.430563670831     Delta-E=       -0.000072530596 Rises=F Damp=F
 DIIS: error= 2.85D-04 at cycle   8 NSaved=   8.
 NSaved= 8 IEnMin= 8 EnMin= -770.430563670831     IErMin= 8 ErrMin= 2.85D-04
 ErrMax= 2.85D-04  0.00D+00 EMaxC= 1.00D-01 BMatC= 3.92D-05 BMatP= 8.87D-05
 IDIUse=3 WtCom= 9.97D-01 WtEn= 2.85D-03
 Coeff-Com: -0.227D-02 0.413D-02-0.151D-01-0.474D-01-0.104D+00-0.179D-01
 Coeff-Com:  0.558D+00 0.625D+00
 Coeff-En:   0.000D+00 0.000D+00 0.000D+00 0.000D+00 0.000D+00 0.000D+00
 Coeff-En:   0.000D+00 0.100D+01
 Coeff:     -0.226D-02 0.412D-02-0.151D-01-0.472D-01-0.104D+00-0.178D-01
 Coeff:      0.556D+00 0.626D+00
 Gap=     0.091 Goal=   None    Shift=    0.000
 Gap=     0.173 Goal=   None    Shift=    0.000
 RMSDP=1.73D-05 MaxDP=1.13D-03 DE=-7.25D-05 OVMax= 3.57D-03

 Cycle   9  Pass 1  IDiag  1:
 RMSU=  1.18D-05    CP:  9.58D-01  2.30D+00  8.75D-01  7.97D-01  1.10D+00
                    CP:  1.25D+00  1.48D+00  1.00D+00
 E= -770.430585728999     Delta-E=       -0.000022058168 Rises=F Damp=F
 DIIS: error= 1.52D-04 at cycle   9 NSaved=   9.
 NSaved= 9 IEnMin= 9 EnMin= -770.430585728999     IErMin= 9 ErrMin= 1.52D-04
 ErrMax= 1.52D-04  0.00D+00 EMaxC= 1.00D-01 BMatC= 7.61D-06 BMatP= 3.92D-05
 IDIUse=3 WtCom= 9.98D-01 WtEn= 1.52D-03
 Coeff-Com: -0.998D-03 0.203D-02 0.202D-02 0.895D-03-0.246D-01-0.765D-01
 Coeff-Com: -0.215D-01 0.295D+00 0.824D+00
 Coeff-En:   0.000D+00 0.000D+00 0.000D+00 0.000D+00 0.000D+00 0.000D+00
 Coeff-En:   0.000D+00 0.000D+00 0.100D+01
 Coeff:     -0.996D-03 0.202D-02 0.202D-02 0.894D-03-0.246D-01-0.764D-01
 Coeff:     -0.215D-01 0.295D+00 0.824D+00
 Gap=     0.091 Goal=   None    Shift=    0.000
 Gap=     0.173 Goal=   None    Shift=    0.000
 RMSDP=1.10D-05 MaxDP=5.74D-04 DE=-2.21D-05 OVMax= 2.64D-03

 Cycle  10  Pass 1  IDiag  1:
 RMSU=  5.98D-06    CP:  9.58D-01  2.30D+00  8.74D-01  7.94D-01  1.10D+00
                    CP:  1.29D+00  1.60D+00  1.31D+00  1.15D+00
 E= -770.430592442121     Delta-E=       -0.000006713122 Rises=F Damp=F
 DIIS: error= 6.54D-05 at cycle  10 NSaved=  10.
 NSaved=10 IEnMin=10 EnMin= -770.430592442121     IErMin=10 ErrMin= 6.54D-05
 ErrMax= 6.54D-05  0.00D+00 EMaxC= 1.00D-01 BMatC= 2.25D-06 BMatP= 7.61D-06
 IDIUse=1 WtCom= 1.00D+00 WtEn= 0.00D+00
 Coeff-Com:  0.574D-04-0.741D-04 0.545D-02 0.147D-01 0.175D-01-0.388D-01
 Coeff-Com: -0.183D+00-0.211D-01 0.436D+00 0.770D+00
 Coeff:      0.574D-04-0.741D-04 0.545D-02 0.147D-01 0.175D-01-0.388D-01
 Coeff:     -0.183D+00-0.211D-01 0.436D+00 0.770D+00
 Gap=     0.091 Goal=   None    Shift=    0.000
 Gap=     0.173 Goal=   None    Shift=    0.000
 RMSDP=6.49D-06 MaxDP=3.50D-04 DE=-6.71D-06 OVMax= 1.24D-03

 Cycle  11  Pass 1  IDiag  1:
 RMSU=  2.64D-06    CP:  9.58D-01  2.29D+00  8.74D-01  7.94D-01  1.10D+00
                    CP:  1.30D+00  1.66D+00  1.47D+00  1.46D+00  1.05D+00
 E= -770.430594492205     Delta-E=       -0.000002050084 Rises=F Damp=F
 DIIS: error= 1.94D-05 at cycle  11 NSaved=  11.
 NSaved=11 IEnMin=11 EnMin= -770.430594492205     IErMin=11 ErrMin= 1.94D-05
 ErrMax= 1.94D-05  0.00D+00 EMaxC= 1.00D-01 BMatC= 2.95D-07 BMatP= 2.25D-06
 IDIUse=1 WtCom= 1.00D+00 WtEn= 0.00D+00
 Coeff-Com:  0.167D-03-0.352D-03 0.102D-02 0.394D-02 0.101D-01 0.337D-02
 Coeff-Com: -0.431D-01-0.648D-01-0.651D-01 0.200D+00 0.954D+00
 Coeff:      0.167D-03-0.352D-03 0.102D-02 0.394D-02 0.101D-01 0.337D-02
 Coeff:     -0.431D-01-0.648D-01-0.651D-01 0.200D+00 0.954D+00
 Gap=     0.091 Goal=   None    Shift=    0.000
 Gap=     0.173 Goal=   None    Shift=    0.000
 RMSDP=3.09D-06 MaxDP=1.31D-04 DE=-2.05D-06 OVMax= 5.69D-04

 Cycle  12  Pass 1  IDiag  1:
 RMSU=  1.30D-06    CP:  9.58D-01  2.29D+00  8.74D-01  7.94D-01  1.10D+00
                    CP:  1.31D+00  1.68D+00  1.54D+00  1.58D+00  1.30D+00
                    CP:  1.20D+00
 E= -770.430594834575     Delta-E=       -0.000000342371 Rises=F Damp=F
 DIIS: error= 7.51D-06 at cycle  12 NSaved=  12.
 NSaved=12 IEnMin=12 EnMin= -770.430594834575     IErMin=12 ErrMin= 7.51D-06
 ErrMax= 7.51D-06  0.00D+00 EMaxC= 1.00D-01 BMatC= 1.44D-07 BMatP= 2.95D-07
 IDIUse=1 WtCom= 1.00D+00 WtEn= 0.00D+00
 Coeff-Com:  0.864D-04-0.206D-03-0.687D-03-0.107D-02 0.189D-02 0.968D-02
 Coeff-Com:  0.170D-01-0.318D-01-0.135D+00-0.539D-01 0.556D+00 0.639D+00
 Coeff:      0.864D-04-0.206D-03-0.687D-03-0.107D-02 0.189D-02 0.968D-02
 Coeff:      0.170D-01-0.318D-01-0.135D+00-0.539D-01 0.556D+00 0.639D+00
 Gap=     0.091 Goal=   None    Shift=    0.000
 Gap=     0.173 Goal=   None    Shift=    0.000
 RMSDP=1.16D-06 MaxDP=4.73D-05 DE=-3.42D-07 OVMax= 1.90D-04

 Cycle  13  Pass 1  IDiag  1:
 RMSU=  5.42D-07    CP:  9.58D-01  2.29D+00  8.75D-01  7.94D-01  1.10D+00
                    CP:  1.31D+00  1.69D+00  1.56D+00  1.62D+00  1.36D+00
                    CP:  1.44D+00  9.00D-01
 E= -770.430594903254     Delta-E=       -0.000000068678 Rises=F Damp=F
 DIIS: error= 3.42D-06 at cycle  13 NSaved=  13.
 NSaved=13 IEnMin=13 EnMin= -770.430594903254     IErMin=13 ErrMin= 3.42D-06
 ErrMax= 3.42D-06  0.00D+00 EMaxC= 1.00D-01 BMatC= 1.63D-08 BMatP= 1.44D-07
 IDIUse=1 WtCom= 1.00D+00 WtEn= 0.00D+00
 Coeff-Com:  0.988D-05-0.286D-04-0.483D-03-0.116D-02-0.861D-03 0.359D-02
 Coeff-Com:  0.165D-01-0.305D-02-0.514D-01-0.612D-01 0.698D-01 0.278D+00
 Coeff-Com:  0.751D+00
 Coeff:      0.988D-05-0.286D-04-0.483D-03-0.116D-02-0.861D-03 0.359D-02
 Coeff:      0.165D-01-0.305D-02-0.514D-01-0.612D-01 0.698D-01 0.278D+00
 Coeff:      0.751D+00
 Gap=     0.091 Goal=   None    Shift=    0.000
 Gap=     0.173 Goal=   None    Shift=    0.000
 RMSDP=4.40D-07 MaxDP=1.85D-05 DE=-6.87D-08 OVMax= 7.17D-05

 Cycle  14  Pass 1  IDiag  1:
 RMSU=  2.39D-07    CP:  9.58D-01  2.29D+00  8.75D-01  7.94D-01  1.10D+00
                    CP:  1.31D+00  1.69D+00  1.56D+00  1.63D+00  1.38D+00
                    CP:  1.52D+00  1.06D+00  9.99D-01
 E= -770.430594912221     Delta-E=       -0.000000008968 Rises=F Damp=F
 DIIS: error= 1.49D-06 at cycle  14 NSaved=  14.
 NSaved=14 IEnMin=14 EnMin= -770.430594912221     IErMin=14 ErrMin= 1.49D-06
 ErrMax= 1.49D-06  0.00D+00 EMaxC= 1.00D-01 BMatC= 3.28D-09 BMatP= 1.63D-08
 IDIUse=1 WtCom= 1.00D+00 WtEn= 0.00D+00
 Coeff-Com: -0.954D-05 0.222D-04-0.107D-03-0.339D-03-0.627D-03 0.192D-03
 Coeff-Com:  0.500D-02 0.291D-02-0.361D-02-0.181D-01-0.511D-01 0.252D-01
 Coeff-Com:  0.347D+00 0.694D+00
 Coeff:     -0.954D-05 0.222D-04-0.107D-03-0.339D-03-0.627D-03 0.192D-03
 Coeff:      0.500D-02 0.291D-02-0.361D-02-0.181D-01-0.511D-01 0.252D-01
 Coeff:      0.347D+00 0.694D+00
 Gap=     0.091 Goal=   None    Shift=    0.000
 Gap=     0.173 Goal=   None    Shift=    0.000
 RMSDP=1.63D-07 MaxDP=8.84D-06 DE=-8.97D-09 OVMax= 2.71D-05

 Cycle  15  Pass 1  IDiag  1:
 RMSU=  1.02D-07    CP:  9.58D-01  2.29D+00  8.75D-01  7.94D-01  1.10D+00
                    CP:  1.31D+00  1.69D+00  1.56D+00  1.63D+00  1.39D+00
                    CP:  1.54D+00  1.10D+00  1.17D+00  1.02D+00
 E= -770.430594913989     Delta-E=       -0.000000001768 Rises=F Damp=F
 DIIS: error= 6.59D-07 at cycle  15 NSaved=  15.
 NSaved=15 IEnMin=15 EnMin= -770.430594913989     IErMin=15 ErrMin= 6.59D-07
 ErrMax= 6.59D-07  0.00D+00 EMaxC= 1.00D-01 BMatC= 7.13D-10 BMatP= 3.28D-09
 IDIUse=1 WtCom= 1.00D+00 WtEn= 0.00D+00
 Coeff-Com: -0.382D-05 0.117D-04 0.701D-04 0.143D-03-0.479D-04-0.770D-03
 Coeff-Com: -0.191D-02 0.165D-02 0.105D-01 0.744D-02-0.367D-01-0.542D-01
 Coeff-Com: -0.224D-01 0.299D+00 0.797D+00
 Coeff:     -0.382D-05 0.117D-04 0.701D-04 0.143D-03-0.479D-04-0.770D-03
 Coeff:     -0.191D-02 0.165D-02 0.105D-01 0.744D-02-0.367D-01-0.542D-01
 Coeff:     -0.224D-01 0.299D+00 0.797D+00
 Gap=     0.091 Goal=   None    Shift=    0.000
 Gap=     0.173 Goal=   None    Shift=    0.000
 RMSDP=9.32D-08 MaxDP=5.08D-06 DE=-1.77D-09 OVMax= 1.49D-05

 Cycle  16  Pass 1  IDiag  1:
 RMSU=  5.76D-08    CP:  9.58D-01  2.29D+00  8.75D-01  7.94D-01  1.10D+00
                    CP:  1.31D+00  1.69D+00  1.56D+00  1.63D+00  1.39D+00
                    CP:  1.54D+00  1.13D+00  1.23D+00  1.22D+00  1.15D+00
 E= -770.430594914605     Delta-E=       -0.000000000616 Rises=F Damp=F
 DIIS: error= 4.06D-07 at cycle  16 NSaved=  16.
 NSaved=16 IEnMin=16 EnMin= -770.430594914605     IErMin=16 ErrMin= 4.06D-07
 ErrMax= 4.06D-07  0.00D+00 EMaxC= 1.00D-01 BMatC= 1.71D-10 BMatP= 7.13D-10
 IDIUse=1 WtCom= 1.00D+00 WtEn= 0.00D+00
 Coeff-Com:  0.294D-05-0.495D-05 0.472D-04 0.126D-03 0.135D-03-0.262D-03
 Coeff-Com: -0.188D-02-0.194D-03 0.441D-02 0.693D-02 0.104D-02-0.239D-01
 Coeff-Com: -0.985D-01-0.848D-01 0.262D+00 0.935D+00
 Coeff:      0.294D-05-0.495D-05 0.472D-04 0.126D-03 0.135D-03-0.262D-03
 Coeff:     -0.188D-02-0.194D-03 0.441D-02 0.693D-02 0.104D-02-0.239D-01
 Coeff:     -0.985D-01-0.848D-01 0.262D+00 0.935D+00
 Gap=     0.091 Goal=   None    Shift=    0.000
 Gap=     0.173 Goal=   None    Shift=    0.000
 RMSDP=6.35D-08 MaxDP=3.28D-06 DE=-6.16D-10 OVMax= 1.10D-05

 Cycle  17  Pass 1  IDiag  1:
 RMSU=  3.19D-08    CP:  9.58D-01  2.29D+00  8.75D-01  7.94D-01  1.10D+00
                    CP:  1.31D+00  1.69D+00  1.56D+00  1.63D+00  1.39D+00
                    CP:  1.54D+00  1.13D+00  1.27D+00  1.33D+00  1.48D+00
                    CP:  1.38D+00
 E= -770.430594914862     Delta-E=       -0.000000000257 Rises=F Damp=F
 DIIS: error= 2.56D-07 at cycle  17 NSaved=  17.
 NSaved=17 IEnMin=17 EnMin= -770.430594914862     IErMin=17 ErrMin= 2.56D-07
 ErrMax= 2.56D-07  0.00D+00 EMaxC= 1.00D-01 BMatC= 5.92D-11 BMatP= 1.71D-10
 IDIUse=1 WtCom= 1.00D+00 WtEn= 0.00D+00
 Coeff-Com:  0.711D-06-0.239D-05-0.184D-05 0.353D-05 0.570D-04 0.127D-03
 Coeff-Com: -0.132D-03-0.513D-03-0.147D-02 0.172D-03 0.110D-01 0.808D-02
 Coeff-Com: -0.285D-01-0.116D+00-0.128D+00 0.355D+00 0.900D+00
 Coeff:      0.711D-06-0.239D-05-0.184D-05 0.353D-05 0.570D-04 0.127D-03
 Coeff:     -0.132D-03-0.513D-03-0.147D-02 0.172D-03 0.110D-01 0.808D-02
 Coeff:     -0.285D-01-0.116D+00-0.128D+00 0.355D+00 0.900D+00
 Gap=     0.091 Goal=   None    Shift=    0.000
 Gap=     0.173 Goal=   None    Shift=    0.000
 RMSDP=3.91D-08 MaxDP=2.01D-06 DE=-2.57D-10 OVMax= 7.39D-06

 Cycle  18  Pass 1  IDiag  1:
 RMSU=  1.63D-08    CP:  9.58D-01  2.29D+00  8.75D-01  7.94D-01  1.10D+00
                    CP:  1.31D+00  1.69D+00  1.56D+00  1.63D+00  1.39D+00
                    CP:  1.54D+00  1.14D+00  1.28D+00  1.38D+00  1.66D+00
                    CP:  1.80D+00  1.35D+00
 E= -770.430594914940     Delta-E=       -0.000000000079 Rises=F Damp=F
 DIIS: error= 1.47D-07 at cycle  18 NSaved=  18.
 NSaved=18 IEnMin=18 EnMin= -770.430594914940     IErMin=18 ErrMin= 1.47D-07
 ErrMax= 1.47D-07  0.00D+00 EMaxC= 1.00D-01 BMatC= 2.16D-11 BMatP= 5.92D-11
 IDIUse=1 WtCom= 1.00D+00 WtEn= 0.00D+00
 Coeff-Com: -0.576D-06 0.311D-06-0.197D-04-0.490D-04-0.198D-04 0.180D-03
 Coeff-Com:  0.683D-03-0.158D-03-0.246D-02-0.284D-02 0.463D-02 0.135D-01
 Coeff-Com:  0.255D-01-0.253D-01-0.175D+00-0.204D+00 0.469D+00 0.896D+00
 Coeff:     -0.576D-06 0.311D-06-0.197D-04-0.490D-04-0.198D-04 0.180D-03
 Coeff:      0.683D-03-0.158D-03-0.246D-02-0.284D-02 0.463D-02 0.135D-01
 Coeff:      0.255D-01-0.253D-01-0.175D+00-0.204D+00 0.469D+00 0.896D+00
 Gap=     0.091 Goal=   None    Shift=    0.000
 Gap=     0.173 Goal=   None    Shift=    0.000
 RMSDP=2.86D-08 MaxDP=1.39D-06 DE=-7.89D-11 OVMax= 4.81D-06

 Cycle  19  Pass 1  IDiag  1:
 RMSU=  8.01D-09    CP:  9.58D-01  2.29D+00  8.75D-01  7.94D-01  1.10D+00
                    CP:  1.31D+00  1.69D+00  1.56D+00  1.63D+00  1.39D+00
                    CP:  1.54D+00  1.14D+00  1.28D+00  1.41D+00  1.78D+00
                    CP:  2.10D+00  1.80D+00  1.09D+00
 E= -770.430594914960     Delta-E=       -0.000000000020 Rises=F Damp=F
 DIIS: error= 5.41D-08 at cycle  19 NSaved=  19.
 NSaved=19 IEnMin=19 EnMin= -770.430594914960     IErMin=19 ErrMin= 5.41D-08
 ErrMax= 5.41D-08  0.00D+00 EMaxC= 1.00D-01 BMatC= 4.61D-12 BMatP= 2.16D-11
 IDIUse=1 WtCom= 1.00D+00 WtEn= 0.00D+00
 Coeff-Com: -0.547D-06 0.759D-06-0.940D-05-0.257D-04-0.241D-04 0.552D-04
 Coeff-Com:  0.353D-03 0.511D-04-0.824D-03-0.139D-02-0.201D-04 0.464D-02
 Coeff-Com:  0.174D-01 0.972D-02-0.589D-01-0.166D+00 0.443D-01 0.438D+00
 Coeff-Com:  0.713D+00
 Coeff:     -0.547D-06 0.759D-06-0.940D-05-0.257D-04-0.241D-04 0.552D-04
 Coeff:      0.353D-03 0.511D-04-0.824D-03-0.139D-02-0.201D-04 0.464D-02
 Coeff:      0.174D-01 0.972D-02-0.589D-01-0.166D+00 0.443D-01 0.438D+00
 Coeff:      0.713D+00
 Gap=     0.091 Goal=   None    Shift=    0.000
 Gap=     0.173 Goal=   None    Shift=    0.000
 RMSDP=9.49D-09 MaxDP=4.96D-07 DE=-2.00D-11 OVMax= 1.85D-06

 Error on total polarization charges =  0.00966
 SCF Done:  E(UB3LYP) =  -770.430594915     A.U. after   19 cycles
            NFock= 19  Conv=0.95D-08     -V/T= 2.0096
 <Sx>= 0.0000 <Sy>= 0.0000 <Sz>= 0.5000 <S**2>= 0.7745 S= 0.5122
 <L.S>=  0.00000000000    
 KE= 7.630712078212D+02 PE=-4.381066171517D+03 EE= 1.552113968971D+03
 Annihilation of the first spin contaminant:
 S**2 before annihilation     0.7745,   after     0.7504
 Leave Link  502 at Sat May 25 04:18:35 2019, MaxMem=   104857600 cpu:            1490.2 elap:              47.5
 (Enter /opt/software/gaussian/g16.b01/l801.exe)
 DoSCS=F DFT=T ScalE2(SS,OS)=  1.000000  1.000000
 ExpMin= 1.61D-01 ExpMax= 5.48D+03 ExpMxC= 8.25D+02 IAcc=3 IRadAn=         5 AccDes= 0.00D+00
 HarFok:  IExCor=  205 AccDes= 0.00D+00 IRadAn=         5 IDoV=-2 UseB2=F ITyADJ=14
 ICtDFT= 12500011 ScaDFX=  1.000000  1.000000  1.000000  1.000000
 Largest valence mixing into a core orbital is  5.78D-05
 Largest core mixing into a valence orbital is  1.22D-05
 Largest valence mixing into a core orbital is  6.36D-05
 Largest core mixing into a valence orbital is  1.22D-05
 Range of M.O.s used for correlation:    19   355
 NBasis=   355 NAE=    65 NBE=    64 NFC=    18 NFV=     0
 NROrb=    337 NOA=    47 NOB=    46 NVA=   290 NVB=   291

 **** Warning!!: The smallest alpha delta epsilon is  0.91140070D-01

 Leave Link  801 at Sat May 25 04:18:35 2019, MaxMem=   104857600 cpu:               4.7 elap:               0.2
 (Enter /opt/software/gaussian/g16.b01/l914.exe)
 UHF ground state
 Ignoring spin specification with unrestricted ground state.
 Two-electron integrals replicated using symmetry.
 MDV=   104857600 DFT=T DoStab=F Mixed=T DoRPA=T DoScal=F NonHer=T
 NEqPCM:  Using non-equilibrium solvation (IEInf=1, Eps=  35.6880, EpsInf=   1.8069)
 Inv3:  Mode=1 IEnd=    18855147.
 Iteration    1 A*A^-1 deviation from unit magnitude is 3.77D-15 for    358.
 Iteration    1 A*A^-1 deviation from orthogonality  is 2.02D-15 for   1297   1036.
 Iteration    1 A^-1*A deviation from unit magnitude is 3.77D-15 for    358.
 Iteration    1 A^-1*A deviation from orthogonality  is 2.40D-15 for   1802   1458.
 Making orbital integer symmetry assigments:
 Orbital symmetries:
 Alpha Orbitals:
       Occupied  (A) (A) (A) (A) (A) (A) (A) (A) (A) (A) (A) (A)
                 (A) (A) (A) (A) (A) (A) (A) (A) (A) (A) (A) (A)
                 (A) (A) (A) (A) (A) (A) (A) (A) (A) (A) (A) (A)
                 (A) (A) (A) (A) (A) (A) (A) (A) (A) (A) (A) (A)
                 (A) (A) (A) (A) (A) (A) (A) (A) (A) (A) (A) (A)
                 (A) (A) (A) (A) (A)
       Virtual   (A) (A) (A) (A) (A) (A) (A) (A) (A) (A) (A) (A)
                 (A) (A) (A) (A) (A) (A) (A) (A) (A) (A) (A) (A)
                 (A) (A) (A) (A) (A) (A) (A) (A) (A) (A) (A) (A)
                 (A) (A) (A) (A) (A) (A) (A) (A) (A) (A) (A) (A)
                 (A) (A) (A) (A) (A) (A) (A) (A) (A) (A) (A) (A)
                 (A) (A) (A) (A) (A) (A) (A) (A) (A) (A) (A) (A)
                 (A) (A) (A) (A) (A) (A) (A) (A) (A) (A) (A) (A)
                 (A) (A) (A) (A) (A) (A) (A) (A) (A) (A) (A) (A)
                 (A) (A) (A) (A) (A) (A) (A) (A) (A) (A) (A) (A)
                 (A) (A) (A) (A) (A) (A) (A) (A) (A) (A) (A) (A)
                 (A) (A) (A) (A) (A) (A) (A) (A) (A) (A) (A) (A)
                 (A) (A) (A) (A) (A) (A) (A) (A) (A) (A) (A) (A)
                 (A) (A) (A) (A) (A) (A) (A) (A) (A) (A) (A) (A)
                 (A) (A) (A) (A) (A) (A) (A) (A) (A) (A) (A) (A)
                 (A) (A) (A) (A) (A) (A) (A) (A) (A) (A) (A) (A)
                 (A) (A) (A) (A) (A) (A) (A) (A) (A) (A) (A) (A)
                 (A) (A) (A) (A) (A) (A) (A) (A) (A) (A) (A) (A)
                 (A) (A) (A) (A) (A) (A) (A) (A) (A) (A) (A) (A)
                 (A) (A) (A) (A) (A) (A) (A) (A) (A) (A) (A) (A)
                 (A) (A) (A) (A) (A) (A) (A) (A) (A) (A) (A) (A)
                 (A) (A) (A) (A) (A) (A) (A) (A) (A) (A) (A) (A)
                 (A) (A) (A) (A) (A) (A) (A) (A) (A) (A) (A) (A)
                 (A) (A) (A) (A) (A) (A) (A) (A) (A) (A) (A) (A)
                 (A) (A) (A) (A) (A) (A) (A) (A) (A) (A) (A) (A)
                 (A) (A)
 Beta  Orbitals:
       Occupied  (A) (A) (A) (A) (A) (A) (A) (A) (A) (A) (A) (A)
                 (A) (A) (A) (A) (A) (A) (A) (A) (A) (A) (A) (A)
                 (A) (A) (A) (A) (A) (A) (A) (A) (A) (A) (A) (A)
                 (A) (A) (A) (A) (A) (A) (A) (A) (A) (A) (A) (A)
                 (A) (A) (A) (A) (A) (A) (A) (A) (A) (A) (A) (A)
                 (A) (A) (A) (A)
       Virtual   (A) (A) (A) (A) (A) (A) (A) (A) (A) (A) (A) (A)
                 (A) (A) (A) (A) (A) (A) (A) (A) (A) (A) (A) (A)
                 (A) (A) (A) (A) (A) (A) (A) (A) (A) (A) (A) (A)
                 (A) (A) (A) (A) (A) (A) (A) (A) (A) (A) (A) (A)
                 (A) (A) (A) (A) (A) (A) (A) (A) (A) (A) (A) (A)
                 (A) (A) (A) (A) (A) (A) (A) (A) (A) (A) (A) (A)
                 (A) (A) (A) (A) (A) (A) (A) (A) (A) (A) (A) (A)
                 (A) (A) (A) (A) (A) (A) (A) (A) (A) (A) (A) (A)
                 (A) (A) (A) (A) (A) (A) (A) (A) (A) (A) (A) (A)
                 (A) (A) (A) (A) (A) (A) (A) (A) (A) (A) (A) (A)
                 (A) (A) (A) (A) (A) (A) (A) (A) (A) (A) (A) (A)
                 (A) (A) (A) (A) (A) (A) (A) (A) (A) (A) (A) (A)
                 (A) (A) (A) (A) (A) (A) (A) (A) (A) (A) (A) (A)
                 (A) (A) (A) (A) (A) (A) (A) (A) (A) (A) (A) (A)
                 (A) (A) (A) (A) (A) (A) (A) (A) (A) (A) (A) (A)
                 (A) (A) (A) (A) (A) (A) (A) (A) (A) (A) (A) (A)
                 (A) (A) (A) (A) (A) (A) (A) (A) (A) (A) (A) (A)
                 (A) (A) (A) (A) (A) (A) (A) (A) (A) (A) (A) (A)
                 (A) (A) (A) (A) (A) (A) (A) (A) (A) (A) (A) (A)
                 (A) (A) (A) (A) (A) (A) (A) (A) (A) (A) (A) (A)
                 (A) (A) (A) (A) (A) (A) (A) (A) (A) (A) (A) (A)
                 (A) (A) (A) (A) (A) (A) (A) (A) (A) (A) (A) (A)
                 (A) (A) (A) (A) (A) (A) (A) (A) (A) (A) (A) (A)
                 (A) (A) (A) (A) (A) (A) (A) (A) (A) (A) (A) (A)
                 (A) (A) (A)
   144 initial guesses have been made.
 Convergence on wavefunction:    0.001000000000000
 Davidson Disk Diagonalization:  ConvIn= 1.00D-03 SkipCon=T Conv= 1.00D-03.
 Max sub-space:  2160 roots to seek:   144 dimension of matrix:        27016
 Iteration     1 Dimension   144 NMult     0 NNew    144
 CISAX will form     3 AO SS matrices at one time.
 NMat=     3 NSing=     3 JSym2X= 0.
 FoFJK:  IHMeth= 1 ICntrl=       0 DoSepK=F KAlg= 0 I1Cent=           0 FoldK=F
 IRaf= 830000000 NMat=       6 IRICut=       1 DoRegI=T DoRafI=F ISym2E= 0 IDoP0=0 IntGTp=1.
 NMat=     3 NSing=     3 JSym2X= 0.
 NMat=     3 NSing=     3 JSym2X= 0.
 NMat=     3 NSing=     3 JSym2X= 0.
 NMat=     3 NSing=     3 JSym2X= 0.
 NMat=     3 NSing=     3 JSym2X= 0.
 NMat=     3 NSing=     3 JSym2X= 0.
 NMat=     3 NSing=     3 JSym2X= 0.
 NMat=     3 NSing=     3 JSym2X= 0.
 NMat=     3 NSing=     3 JSym2X= 0.
 NMat=     3 NSing=     3 JSym2X= 0.
 NMat=     3 NSing=     3 JSym2X= 0.
 NMat=     3 NSing=     3 JSym2X= 0.
 NMat=     3 NSing=     3 JSym2X= 0.
 NMat=     3 NSing=     3 JSym2X= 0.
 NMat=     3 NSing=     3 JSym2X= 0.
 NMat=     3 NSing=     3 JSym2X= 0.
 NMat=     3 NSing=     3 JSym2X= 0.
 NMat=     3 NSing=     3 JSym2X= 0.
 NMat=     3 NSing=     3 JSym2X= 0.
 NMat=     3 NSing=     3 JSym2X= 0.
 NMat=     3 NSing=     3 JSym2X= 0.
 NMat=     3 NSing=     3 JSym2X= 0.
 NMat=     3 NSing=     3 JSym2X= 0.
 NMat=     3 NSing=     3 JSym2X= 0.
 NMat=     3 NSing=     3 JSym2X= 0.
 NMat=     3 NSing=     3 JSym2X= 0.
 NMat=     3 NSing=     3 JSym2X= 0.
 NMat=     3 NSing=     3 JSym2X= 0.
 NMat=     3 NSing=     3 JSym2X= 0.
 NMat=     3 NSing=     3 JSym2X= 0.
 NMat=     3 NSing=     3 JSym2X= 0.
 NMat=     3 NSing=     3 JSym2X= 0.
 NMat=     3 NSing=     3 JSym2X= 0.
 NMat=     3 NSing=     3 JSym2X= 0.
 NMat=     3 NSing=     3 JSym2X= 0.
 NMat=     3 NSing=     3 JSym2X= 0.
 NMat=     3 NSing=     3 JSym2X= 0.
 NMat=     3 NSing=     3 JSym2X= 0.
 NMat=     3 NSing=     3 JSym2X= 0.
 NMat=     3 NSing=     3 JSym2X= 0.
 NMat=     3 NSing=     3 JSym2X= 0.
 NMat=     3 NSing=     3 JSym2X= 0.
 NMat=     3 NSing=     3 JSym2X= 0.
 NMat=     3 NSing=     3 JSym2X= 0.
 NMat=     3 NSing=     3 JSym2X= 0.
 NMat=     3 NSing=     3 JSym2X= 0.
 NMat=     3 NSing=     3 JSym2X= 0.
 New state      2 was old state      3
 New state      3 was old state      2
 New state      4 was old state      7
 New state      5 was old state      6
 New state      6 was old state     11
 New state      7 was old state     13
 New state      8 was old state      9
 New state      9 was old state      4
 New state     10 was old state      8
 New state     11 was old state      5
 New state     13 was old state     33
 New state     14 was old state     30
 New state     15 was old state     31
 New state     16 was old state     17
 New state     17 was old state     10
 New state     20 was old state     16
 New state     21 was old state     35
 New state     22 was old state     21
 New state     23 was old state     20
 New state     24 was old state     34
 New state     25 was old state     27
 New state     26 was old state     46
 New state     27 was old state     22
 New state     28 was old state     64
 New state     30 was old state     26
 New state     31 was old state     23
 New state     32 was old state     24
 New state     33 was old state     28
 New state     34 was old state     40
 New state     35 was old state     42
 New state     36 was old state     53
 Excitation Energies [eV] at current iteration:
 Root      1 :     1.876681605247803
 Root      2 :     3.057754793983208
 Root      3 :     3.221537377169098
 Root      4 :     3.412253861411247
 Root      5 :     3.531849251085446
 Root      6 :     3.638590776269390
 Root      7 :     3.867173269008065
 Root      8 :     3.912998003405268
 Root      9 :     4.044592488133785
 Root     10 :     4.357399192360646
 Root     11 :     4.506409859125483
 Root     12 :     4.565338812990396
 Root     13 :     4.597835884068050
 Root     14 :     4.619162187040715
 Root     15 :     4.657034750434354
 Root     16 :     4.688971215928571
 Root     17 :     4.713796241215228
 Root     18 :     4.791021384428805
 Root     19 :     4.947782518015485
 Root     20 :     5.005538168046701
 Root     21 :     5.198592649786670
 Root     22 :     5.381589606369083
 Root     23 :     5.483663189474206
 Root     24 :     5.546720463147916
 Root     25 :     5.672003027032814
 Root     26 :     5.711261099036621
 Root     27 :     5.836951509133524
 Root     28 :     5.861290008710122
 Root     29 :     5.897541564939809
 Root     30 :     5.926381107648597
 Root     31 :     6.010816962306277
 Root     32 :     6.042591444611090
 Root     33 :     6.115108271776590
 Root     34 :     6.131999980865219
 Root     35 :     6.214475766902489
 Root     36 :     6.253558169559003
 Root     37 :     6.256911777134669
 Root     38 :     6.380175378311451
 Root     39 :     6.394981343873130
 Root     40 :     6.433418374488579
 Root     41 :     6.456314153572504
 Root     42 :     6.468973846703706
 Root     43 :     6.496905892959727
 Root     44 :     6.510908435936866
 Root     45 :     6.532732799340982
 Root     46 :     6.537075737186277
 Root     47 :     6.562379844795700
 Root     48 :     6.583069262735534
 Root     49 :     6.588896827477372
 Root     50 :     6.619583344850917
 Root     51 :     6.625407908485278
 Root     52 :     6.630842284819018
 Root     53 :     6.635204424434276
 Root     54 :     6.677910504382197
 Root     55 :     6.721838140367491
 Root     56 :     6.785344533745664
 Root     57 :     6.833536460757569
 Root     58 :     6.854501701908563
 Root     59 :     6.871142941526555
 Root     60 :     6.912378408260931
 Root     61 :     6.927043511873019
 Root     62 :     6.943112185530972
 Root     63 :     7.002837622848862
 Root     64 :     7.051967532626402
 Root     65 :     7.130967019923550
 Root     66 :     7.156671872744718
 Root     67 :     7.192675070974834
 Root     68 :     7.221505916460791
 Root     69 :     7.233772181043966
 Root     70 :     7.243433679960118
 Root     71 :     7.250342601048167
 Root     72 :     7.271023375897558
 Root     73 :     7.294073360820023
 Root     74 :     7.323582642564385
 Root     75 :     7.338816928133643
 Root     76 :     7.354432890430068
 Root     77 :     7.451569172428716
 Root     78 :     7.459021630359719
 Root     79 :     7.478201574953935
 Root     80 :     7.561430265382932
 Root     81 :     7.575820372769527
 Root     82 :     7.581036281449169
 Root     83 :     7.588443582370737
 Root     84 :     7.608146900301628
 Root     85 :     7.610792167435281
 Root     86 :     7.631772104302629
 Root     87 :     7.693652492233186
 Root     88 :     7.697619650809620
 Root     89 :     7.723120789716715
 Root     90 :     7.750865551545679
 Root     91 :     7.760179246468705
 Root     92 :     7.803408219783474
 Root     93 :     7.834884207603157
 Root     94 :     7.851205007020007
 Root     95 :     7.862635478378428
 Root     96 :     7.866291444262210
 Root     97 :     7.898434177408847
 Root     98 :     7.903236093027513
 Root     99 :     7.953154896672023
 Root    100 :     7.978687616745890
 Root    101 :     8.005436981850861
 Root    102 :     8.036781583283688
 Root    103 :     8.059468956570724
 Root    104 :     8.068937914587741
 Root    105 :     8.103972998884609
 Root    106 :     8.140465574305185
 Root    107 :     8.152055065951416
 Root    108 :     8.171521702872246
 Root    109 :     8.179056206073327
 Root    110 :     8.228439870629543
 Root    111 :     8.232638132605608
 Root    112 :     8.244146632071967
 Root    113 :     8.263225941960002
 Root    114 :     8.276947309974814
 Root    115 :     8.318968547280589
 Root    116 :     8.324407574356496
 Root    117 :     8.347376584294171
 Root    118 :     8.368624150435366
 Root    119 :     8.379566900857073
 Root    120 :     8.397586080854975
 Root    121 :     8.404345390265746
 Root    122 :     8.417873584508849
 Root    123 :     8.448600273986379
 Root    124 :     8.456826760081757
 Root    125 :     8.487675282926132
 Root    126 :     8.501781491133015
 Root    127 :     8.535865919199933
 Root    128 :     8.542161938771660
 Root    129 :     8.594139296744922
 Root    130 :     8.607609328038823
 Root    131 :     8.635951558279272
 Root    132 :     8.690810117819009
 Root    133 :     8.713302698509553
 Root    134 :     8.758269970325028
 Root    135 :     8.767087322085089
 Root    136 :     8.781874993078450
 Root    137 :     8.818844036539092
 Root    138 :     8.834804784508806
 Root    139 :     8.839765181373432
 Root    140 :     8.871570331525282
 Root    141 :     9.048946930536022
 Root    142 :     9.073824122574193
 Root    143 :     9.388465765733789
 Root    144 :     9.545916478308861
 Iteration     2 Dimension   216 NMult   144 NNew     72
 CISAX will form     3 AO SS matrices at one time.
 NMat=     3 NSing=     3 JSym2X= 0.
 NMat=     3 NSing=     3 JSym2X= 0.
 NMat=     3 NSing=     3 JSym2X= 0.
 NMat=     3 NSing=     3 JSym2X= 0.
 NMat=     3 NSing=     3 JSym2X= 0.
 NMat=     3 NSing=     3 JSym2X= 0.
 NMat=     3 NSing=     3 JSym2X= 0.
 NMat=     3 NSing=     3 JSym2X= 0.
 NMat=     3 NSing=     3 JSym2X= 0.
 NMat=     3 NSing=     3 JSym2X= 0.
 NMat=     3 NSing=     3 JSym2X= 0.
 NMat=     3 NSing=     3 JSym2X= 0.
 NMat=     3 NSing=     3 JSym2X= 0.
 NMat=     3 NSing=     3 JSym2X= 0.
 NMat=     3 NSing=     3 JSym2X= 0.
 NMat=     3 NSing=     3 JSym2X= 0.
 NMat=     3 NSing=     3 JSym2X= 0.
 NMat=     3 NSing=     3 JSym2X= 0.
 NMat=     3 NSing=     3 JSym2X= 0.
 NMat=     3 NSing=     3 JSym2X= 0.
 NMat=     3 NSing=     3 JSym2X= 0.
 NMat=     3 NSing=     3 JSym2X= 0.
 NMat=     3 NSing=     3 JSym2X= 0.
 NMat=     3 NSing=     3 JSym2X= 0.
 Root      1 not converged, maximum delta is    0.017041127285899
 Root      2 not converged, maximum delta is    0.046598141506715
 Root      3 not converged, maximum delta is    0.116351588381369
 Root      4 not converged, maximum delta is    0.221049496457026
 Root      5 not converged, maximum delta is    0.225638823842492
 Root      6 not converged, maximum delta is    0.381380497084942
 Root      7 not converged, maximum delta is    0.194402746914597
 Root      8 not converged, maximum delta is    0.210276992269007
 Root      9 not converged, maximum delta is    0.240718638773532
 Root     10 not converged, maximum delta is    0.433986001100661
 New state     11 was old state     14
 Root     11 not converged, maximum delta is    0.471765276213969
 New state     12 was old state     11
 Root     12 not converged, maximum delta is    0.345106695651405
 Root     13 not converged, maximum delta is    0.383303561109443
 New state     14 was old state     12
 Root     14 not converged, maximum delta is    0.324318992673663
 Root     15 not converged, maximum delta is    0.417989481888004
 Root     16 not converged, maximum delta is    0.379503712410081
 Root     17 not converged, maximum delta is    0.463307146301760
 Root     18 not converged, maximum delta is    0.293665527336430
 New state     19 was old state     20
 Root     19 not converged, maximum delta is    0.581015632550012
 New state     20 was old state     19
 Root     20 not converged, maximum delta is    0.396026627877649
 New state     21 was old state     22
 Root     21 not converged, maximum delta is    0.653617568393702
 New state     22 was old state     21
 Root     22 not converged, maximum delta is    0.103945465060457
 New state     23 was old state     25
 Root     23 not converged, maximum delta is    0.293724895792586
 New state     24 was old state     23
 Root     24 not converged, maximum delta is    0.350902004377346
 New state     25 was old state     28
 Root     25 not converged, maximum delta is    0.142548355127222
 New state     26 was old state     24
 Root     26 not converged, maximum delta is    0.079689551444391
 New state     27 was old state     26
 Root     27 not converged, maximum delta is    0.112887893999617
 New state     28 was old state     27
 Root     28 not converged, maximum delta is    0.062225624493005
 Root     29 not converged, maximum delta is    0.031910536746454
 Root     30 not converged, maximum delta is    0.057160006826965
 Root     31 not converged, maximum delta is    0.229986213374737
 New state     32 was old state     34
 Root     32 not converged, maximum delta is    0.360286641468324
 New state     33 was old state     32
 Root     33 not converged, maximum delta is    0.044080026872074
 New state     34 was old state     33
 Root     34 not converged, maximum delta is    0.276487374553124
 New state     35 was old state     36
 Root     35 not converged, maximum delta is    0.333267853204489
 New state     36 was old state     35
 Root     36 not converged, maximum delta is    0.054629311189024
 Excitation Energies [eV] at current iteration:
 Root      1 :     1.809449893958259   Change is   -0.067231711289545
 Root      2 :     2.964343224000189   Change is   -0.093411569983018
 Root      3 :     3.203139371452316   Change is   -0.018398005716783
 Root      4 :     3.276747084034892   Change is   -0.135506777376355
 Root      5 :     3.385943199372488   Change is   -0.145906051712958
 Root      6 :     3.408568524540212   Change is   -0.230022251729177
 Root      7 :     3.816798047586440   Change is   -0.050375221421625
 Root      8 :     3.839929149396417   Change is   -0.073068854008851
 Root      9 :     3.919511409575110   Change is   -0.125081078558674
 Root     10 :     4.304172753669473   Change is   -0.053226438691173
 Root     11 :     4.377584728218466   Change is   -0.241577458822249
 Root     12 :     4.386020673761847   Change is   -0.120389185363635
 Root     13 :     4.455831520435829   Change is   -0.142004363632221
 Root     14 :     4.531818250918612   Change is   -0.033520562071784
 Root     15 :     4.536668921958596   Change is   -0.120365828475757
 Root     16 :     4.660031219940865   Change is   -0.028939995987706
 Root     17 :     4.676096425655442   Change is   -0.037699815559786
 Root     18 :     4.746290138799471   Change is   -0.044731245629334
 Root     19 :     4.877462525282010   Change is   -0.128075642764690
 Root     20 :     4.936671505616470   Change is   -0.011111012399015
 Root     21 :     5.021634387170493   Change is   -0.359955219198590
 Root     22 :     5.155623113827030   Change is   -0.042969535959640
 Root     23 :     5.236683458764580   Change is   -0.435319568268235
 Root     24 :     5.381069217351503   Change is   -0.102593972122703
 Root     25 :     5.427689909136673   Change is   -0.433600099573448
 Root     26 :     5.487006522033661   Change is   -0.059713941114256
 Root     27 :     5.579092876182269   Change is   -0.132168222854352
 Root     28 :     5.829755255785527   Change is   -0.007196253347997
 Root     29 :     5.879571728192423   Change is   -0.017969836747386
 Root     30 :     5.905413302629186   Change is   -0.020967805019411
 Root     31 :     5.982186281508367   Change is   -0.028630680797910
 Root     32 :     5.995625916487096   Change is   -0.136374064378124
 Root     33 :     6.031137540573346   Change is   -0.011453904037744
 Root     34 :     6.105645101342773   Change is   -0.009463170433816
 Root     35 :     6.126734368981759   Change is   -0.126823800577245
 Root     36 :     6.163483373362078   Change is   -0.050992393540411
 Iteration     3 Dimension   288 NMult   216 NNew     72
 CISAX will form     3 AO SS matrices at one time.
 NMat=     3 NSing=     3 JSym2X= 0.
 NMat=     3 NSing=     3 JSym2X= 0.
 NMat=     3 NSing=     3 JSym2X= 0.
 NMat=     3 NSing=     3 JSym2X= 0.
 NMat=     3 NSing=     3 JSym2X= 0.
 NMat=     3 NSing=     3 JSym2X= 0.
 NMat=     3 NSing=     3 JSym2X= 0.
 NMat=     3 NSing=     3 JSym2X= 0.
 NMat=     3 NSing=     3 JSym2X= 0.
 NMat=     3 NSing=     3 JSym2X= 0.
 NMat=     3 NSing=     3 JSym2X= 0.
 NMat=     3 NSing=     3 JSym2X= 0.
 NMat=     3 NSing=     3 JSym2X= 0.
 NMat=     3 NSing=     3 JSym2X= 0.
 NMat=     3 NSing=     3 JSym2X= 0.
 NMat=     3 NSing=     3 JSym2X= 0.
 NMat=     3 NSing=     3 JSym2X= 0.
 NMat=     3 NSing=     3 JSym2X= 0.
 NMat=     3 NSing=     3 JSym2X= 0.
 NMat=     3 NSing=     3 JSym2X= 0.
 NMat=     3 NSing=     3 JSym2X= 0.
 NMat=     3 NSing=     3 JSym2X= 0.
 NMat=     3 NSing=     3 JSym2X= 0.
 NMat=     3 NSing=     3 JSym2X= 0.
 Root      1 not converged, maximum delta is    0.002774590449588
 Root      2 not converged, maximum delta is    0.006006753274173
 Root      3 not converged, maximum delta is    0.010953579401218
 Root      4 not converged, maximum delta is    0.011039278404540
 Root      5 not converged, maximum delta is    0.033177357455811
 Root      6 not converged, maximum delta is    0.033152661638661
 Root      7 not converged, maximum delta is    0.029926808675425
 Root      8 not converged, maximum delta is    0.026516460146323
 Root      9 not converged, maximum delta is    0.020711399993403
 Root     10 not converged, maximum delta is    0.049224235243586
 Root     11 not converged, maximum delta is    0.021529357729012
 Root     12 not converged, maximum delta is    0.021303422119686
 Root     13 not converged, maximum delta is    0.012975112746836
 Root     14 not converged, maximum delta is    0.411253860465338
 Root     15 not converged, maximum delta is    0.293030907081933
 Root     16 not converged, maximum delta is    0.011981056905065
 Root     17 not converged, maximum delta is    0.009333696573143
 Root     18 not converged, maximum delta is    0.011147968931414
 Root     19 not converged, maximum delta is    0.033319750563014
 Root     20 not converged, maximum delta is    0.010227868199009
 Root     21 not converged, maximum delta is    0.029194084589202
 Root     22 not converged, maximum delta is    0.023621932334912
 Root     23 not converged, maximum delta is    0.017198640153623
 Root     24 not converged, maximum delta is    0.033502261807070
 Root     25 not converged, maximum delta is    0.074018630424012
 Root     26 not converged, maximum delta is    0.011812257227806
 Root     27 not converged, maximum delta is    0.012246783302824
 Root     28 not converged, maximum delta is    0.003133257286745
 Root     29 not converged, maximum delta is    0.003360403525383
 Root     30 not converged, maximum delta is    0.014436612684457
 Root     31 not converged, maximum delta is    0.155026964502279
 Root     32 not converged, maximum delta is    0.210624577631869
 Root     33 not converged, maximum delta is    0.008198483513159
 Root     34 not converged, maximum delta is    0.080922786486347
 Root     35 not converged, maximum delta is    0.116531150177511
 Root     36 not converged, maximum delta is    0.022268705466919
 Excitation Energies [eV] at current iteration:
 Root      1 :     1.807133737980180   Change is   -0.002316155978078
 Root      2 :     2.957939674082094   Change is   -0.006403549918095
 Root      3 :     3.201636661724208   Change is   -0.001502709728108
 Root      4 :     3.272243678329675   Change is   -0.004503405705218
 Root      5 :     3.380796195527050   Change is   -0.005147003845438
 Root      6 :     3.402866330537684   Change is   -0.005702194002529
 Root      7 :     3.814781249090994   Change is   -0.002016798495446
 Root      8 :     3.836312608773053   Change is   -0.003616540623364
 Root      9 :     3.915130371190892   Change is   -0.004381038384218
 Root     10 :     4.297762832293724   Change is   -0.006409921375749
 Root     11 :     4.372359235597990   Change is   -0.005225492620475
 Root     12 :     4.382228447690796   Change is   -0.003792226071052
 Root     13 :     4.451526435779479   Change is   -0.004305084656351
 Root     14 :     4.528645332159933   Change is   -0.003172918758678
 Root     15 :     4.532814035411362   Change is   -0.003854886547234
 Root     16 :     4.658610198535156   Change is   -0.001421021405709
 Root     17 :     4.675050573614220   Change is   -0.001045852041223
 Root     18 :     4.744606826786552   Change is   -0.001683312012919
 Root     19 :     4.867933456152095   Change is   -0.009529069129915
 Root     20 :     4.935140093459037   Change is   -0.001531412157433
 Root     21 :     5.012558997090913   Change is   -0.009075390079579
 Root     22 :     5.153615008278859   Change is   -0.002008105548171
 Root     23 :     5.226023710078393   Change is   -0.010659748686187
 Root     24 :     5.375817532666957   Change is   -0.005251684684546
 Root     25 :     5.398777352705509   Change is   -0.028912556431164
 Root     26 :     5.482699744033469   Change is   -0.004306778000191
 Root     27 :     5.568152395780077   Change is   -0.010940480402192
 Root     28 :     5.829385845031838   Change is   -0.000369410753689
 Root     29 :     5.878794727077356   Change is   -0.000777001115068
 Root     30 :     5.904229454996592   Change is   -0.001183847632593
 Root     31 :     5.977054515316457   Change is   -0.005131766191910
 Root     32 :     5.986829777214846   Change is   -0.008796139272249
 Root     33 :     6.029874452769744   Change is   -0.001263087803602
 Root     34 :     6.104391519580885   Change is   -0.001253581761889
 Root     35 :     6.108945305081859   Change is   -0.017789063899900
 Root     36 :     6.160137974128390   Change is   -0.003345399233688
 Iteration     4 Dimension   360 NMult   288 NNew     72
 CISAX will form     3 AO SS matrices at one time.
 NMat=     3 NSing=     3 JSym2X= 0.
 NMat=     3 NSing=     3 JSym2X= 0.
 NMat=     3 NSing=     3 JSym2X= 0.
 NMat=     3 NSing=     3 JSym2X= 0.
 NMat=     3 NSing=     3 JSym2X= 0.
 NMat=     3 NSing=     3 JSym2X= 0.
 NMat=     3 NSing=     3 JSym2X= 0.
 NMat=     3 NSing=     3 JSym2X= 0.
 NMat=     3 NSing=     3 JSym2X= 0.
 NMat=     3 NSing=     3 JSym2X= 0.
 NMat=     3 NSing=     3 JSym2X= 0.
 NMat=     3 NSing=     3 JSym2X= 0.
 NMat=     3 NSing=     3 JSym2X= 0.
 NMat=     3 NSing=     3 JSym2X= 0.
 NMat=     3 NSing=     3 JSym2X= 0.
 NMat=     3 NSing=     3 JSym2X= 0.
 NMat=     3 NSing=     3 JSym2X= 0.
 NMat=     3 NSing=     3 JSym2X= 0.
 NMat=     3 NSing=     3 JSym2X= 0.
 NMat=     3 NSing=     3 JSym2X= 0.
 NMat=     3 NSing=     3 JSym2X= 0.
 NMat=     3 NSing=     3 JSym2X= 0.
 NMat=     3 NSing=     3 JSym2X= 0.
 NMat=     3 NSing=     3 JSym2X= 0.
 Root      1 has converged.
 Root      2 has converged.
 Root      3 has converged.
 Root      4 has converged.
 Root      5 not converged, maximum delta is    0.002888154584324
 Root      6 not converged, maximum delta is    0.003261684223247
 Root      7 has converged.
 Root      8 has converged.
 Root      9 has converged.
 Root     10 not converged, maximum delta is    0.002103680970559
 Root     11 not converged, maximum delta is    0.001376312995581
 Root     12 not converged, maximum delta is    0.001383251894891
 Root     13 has converged.
 Root     14 not converged, maximum delta is    0.017424894766260
 Root     15 not converged, maximum delta is    0.011678101849187
 Root     16 has converged.
 Root     17 has converged.
 Root     18 has converged.
 Root     19 not converged, maximum delta is    0.001355221648499
 Root     20 has converged.
[...]
    10  H    0.000266   0.000000   0.000001   0.000001  -0.000001  -0.000000
    11  H    0.000242  -0.000000  -0.000001   0.000001  -0.000009  -0.000000
    12  C   -0.000525  -0.000002  -0.000001  -0.000012  -0.000002   0.000016
    13  C    0.000177  -0.000000   0.000000   0.000001   0.000000  -0.000001
    14  C    0.001249   0.000041   0.000001   0.000057   0.000005  -0.000129
    15  C   -0.000011   0.000000  -0.000000  -0.000000  -0.000000   0.000000
    16  H    0.000002  -0.000000   0.000000   0.000000   0.000000  -0.000000
    17  C    0.000152   0.000001  -0.000000  -0.000025   0.000000  -0.000025
    18  H    0.000050  -0.000090   0.000001   0.000002   0.000000  -0.000027
    19  C   -0.000228  -0.000000  -0.000000  -0.000005  -0.000000   0.000005
    20  H   -0.000000   0.000000  -0.000000  -0.000000   0.000000   0.000000
    21  H   -0.000024   0.000000  -0.000000  -0.000032  -0.000000   0.000015
    22  H    0.000001  -0.000000   0.000000   0.000000   0.000000  -0.000000
    23  C   -0.018205   0.000315   0.001051   0.000479   0.000601   0.001551
    24  C    0.007878   0.004204   0.000716   0.001174  -0.000013  -0.011981
    25  C    0.251108   0.000814   0.000028   0.008052   0.001197  -0.011408
    26  C    0.000814  -0.123930   0.000508  -0.000174  -0.000016  -0.003958
    27  H    0.000028   0.000508  -0.012436  -0.000018   0.000002   0.000007
    28  C    0.008052  -0.000174  -0.000018  -0.121158   0.000312  -0.008824
    29  H    0.001197  -0.000016   0.000002   0.000312  -0.012008   0.000019
    30  C   -0.011408  -0.003958   0.000007  -0.008824   0.000019   0.292696
    31  H   -0.000004   0.000486   0.000049   0.000000  -0.000000  -0.000590
    32  H   -0.000552  -0.000002  -0.000000   0.000542   0.000037  -0.000530
    33  H    0.000006   0.000100   0.000003   0.000105   0.000003   0.001544
    34  O    0.000325  -0.000004   0.000148   0.000003   0.000000  -0.000004
    35  H    0.000031   0.000001   0.000012   0.000000   0.000000  -0.000000
              31         32         33         34         35
     1  C   -0.000000  -0.000000  -0.000000  -0.001671  -0.000535
     2  C   -0.000004  -0.000003   0.000000  -0.082223  -0.007347
     3  O    0.000000   0.000000   0.000000   0.000693   0.000787
     4  C   -0.000000  -0.000000  -0.000000  -0.000300  -0.000073
     5  H    0.000000  -0.000000   0.000000   0.000000   0.000004
     6  H    0.000002   0.000000   0.000000   0.000970   0.000245
     7  H    0.000000   0.000000   0.000000   0.000028   0.000024
     8  C    0.000000   0.000000  -0.000000   0.000758   0.000306
     9  H   -0.000000  -0.000000   0.000000  -0.000006   0.000067
    10  H    0.000000   0.000000   0.000000   0.000068   0.003210
    11  H   -0.000000  -0.000000  -0.000000   0.002701  -0.001422
    12  C   -0.000000  -0.000000  -0.000000  -0.000072  -0.000051
    13  C    0.000000   0.000000   0.000000   0.000016   0.000023
    14  C    0.000000   0.000000   0.000000   0.000039   0.000013
    15  C   -0.000000   0.000000  -0.000000  -0.000000  -0.000000
    16  H    0.000000   0.000000   0.000000   0.000002   0.000004
    17  C    0.000000  -0.000000   0.000000  -0.000000  -0.000000
    18  H    0.000000   0.000000   0.000000   0.000004   0.000001
    19  C   -0.000000  -0.000000  -0.000000  -0.000000  -0.000000
    20  H   -0.000000  -0.000000  -0.000000  -0.000000  -0.000000
    21  H   -0.000000  -0.000000  -0.000000  -0.000000  -0.000000
    22  H    0.000000   0.000000   0.000000   0.000000   0.000000
    23  C    0.000003  -0.000015  -0.000034  -0.001866  -0.000425
    24  C   -0.000550  -0.000007   0.000013   0.002496   0.000119
    25  C   -0.000004  -0.000552   0.000006   0.000325   0.000031
    26  C    0.000486  -0.000002   0.000100  -0.000004   0.000001
    27  H    0.000049  -0.000000   0.000003   0.000148   0.000012
    28  C    0.000000   0.000542   0.000105   0.000003   0.000000
    29  H   -0.000000   0.000037   0.000003   0.000000   0.000000
    30  C   -0.000590  -0.000530   0.001544  -0.000004  -0.000000
    31  H    0.004896  -0.000000   0.000077   0.000000   0.000000
    32  H   -0.000000   0.004704   0.000078   0.000000   0.000000
    33  H    0.000077   0.000078  -0.013923  -0.000000   0.000000
    34  O    0.000000   0.000000  -0.000000   0.149603  -0.001128
    35  H    0.000000   0.000000   0.000000  -0.001128   0.011813
 Mulliken charges and spin densities:
               1          2
     1  C    0.399014   0.008727
     2  C    0.247397   0.602673
     3  O   -0.526236   0.003281
     4  C   -0.399887  -0.000148
     5  H    0.141396  -0.000164
     6  H    0.152244   0.002129
     7  H    0.129457   0.000024
     8  C   -0.383656  -0.052420
     9  H    0.130035   0.001980
    10  H    0.131737   0.024177
    11  H    0.132954   0.032841
    12  C    0.055676  -0.005342
    13  C   -0.109967   0.012148
    14  C   -0.112524   0.008461
    15  C   -0.101919  -0.005971
    16  H    0.112185  -0.000566
    17  C   -0.102839  -0.005946
    18  H    0.111563  -0.000414
    19  C   -0.088284   0.013286
    20  H    0.109546   0.000208
    21  H    0.110063   0.000192
    22  H    0.111497  -0.000600
    23  C    0.096885  -0.161998
    24  C   -0.143104   0.230714
    25  C   -0.140358   0.222791
    26  C   -0.103468  -0.121817
    27  H    0.101628  -0.010245
    28  C   -0.108516  -0.119728
    29  H    0.092524  -0.009771
    30  C   -0.113450   0.258648
    31  H    0.095162   0.004366
    32  H    0.095442   0.004251
    33  H    0.092883  -0.012028
    34  O   -0.553788   0.070580
    35  H    0.338707   0.005679
 Sum of Mulliken charges =  -0.00000   1.00000
 Mulliken charges and spin densities with hydrogens summed into heavy atoms:
               1          2
     1  C    0.399014   0.008727
     2  C    0.247397   0.602673
     3  O   -0.526236   0.003281
     4  C    0.023209   0.001840
     8  C    0.011070   0.006579
    12  C    0.055676  -0.005342
    13  C    0.002218   0.011582
    14  C   -0.000962   0.008047
    15  C    0.007627  -0.005764
    17  C    0.007224  -0.005753
    19  C    0.023214   0.012686
    23  C    0.096885  -0.161998
    24  C   -0.041476   0.220470
    25  C   -0.047833   0.213020
    26  C   -0.008306  -0.117452
    28  C   -0.013074  -0.115477
    30  C   -0.020567   0.246620
    34  O   -0.215080   0.076260
 Electronic spatial extent (au):  <R**2>=           4104.6013
 Charge=              0.0000 electrons
 Dipole moment (field-independent basis, Debye):
    X=             -1.0480    Y=              2.9022    Z=             -0.3678  Tot=              3.1075
 Quadrupole moment (field-independent basis, Debye-Ang):
   XX=           -110.5559   YY=           -101.2759   ZZ=            -96.2170
   XY=             -1.9536   XZ=             -6.4421   YZ=              1.8247
 Traceless Quadrupole moment (field-independent basis, Debye-Ang):
   XX=             -7.8729   YY=              1.4070   ZZ=              6.4659
   XY=             -1.9536   XZ=             -6.4421   YZ=              1.8247
 Octapole moment (field-independent basis, Debye-Ang**2):
  XXX=            -12.1376  YYY=             17.2536  ZZZ=             -0.4931  XYY=              0.2273
  XXY=             19.2163  XXZ=             -3.5437  XZZ=             -6.6759  YZZ=            -13.5686
  YYZ=              5.1943  XYZ=             -4.1107
 Hexadecapole moment (field-independent basis, Debye-Ang**3):
 XXXX=          -2777.6216 YYYY=          -1689.3202 ZZZZ=           -947.1888 XXXY=              1.4194
 XXXZ=           -115.0368 YYYX=             -7.6929 YYYZ=              2.8405 ZZZX=             -7.1887
 ZZZY=             -0.1197 XXYY=           -761.8193 XXZZ=           -596.4400 YYZZ=           -437.7143
 XXYZ=             22.3165 YYXZ=            -27.3557 ZZXY=              8.9578
 N-N= 1.295450399809D+03 E-N=-4.381066168653D+03  KE= 7.630712078212D+02
 Leave Link  601 at Sat May 25 04:46:07 2019, MaxMem=   104857600 cpu:               4.3 elap:               0.2
 (Enter /opt/software/gaussian/g16.b01/l9999.exe)
 Electronic transition elements 
                 1             2             3             4             5 
      1  -0.770364D+03 -0.770322D+03 -0.770313D+03 -0.770310D+03 -0.770306D+03
      2  -0.900256D+00 -0.452097D-01  0.241996D-01 -0.884170D-01 -0.493309D-02
      3   0.126598D+00  0.121984D+00 -0.109643D+00  0.502692D-01 -0.845417D-01
      4  -0.295404D+00  0.131618D+00  0.554432D-01 -0.966321D-02  0.673124D-01
      5   0.585615D-01  0.405553D-02 -0.138111D-02  0.102907D-01  0.201368D-02
      6  -0.828452D-02 -0.186240D-01  0.131755D-01 -0.628069D-02  0.121442D-01
      7   0.187366D-01 -0.152778D-01 -0.656070D-02  0.100502D-02 -0.806429D-02
      8  -0.724103D-01 -0.474025D+00  0.120399D+00 -0.439614D-01  0.336681D-01
      9   0.678635D-01  0.265196D+00 -0.659517D-01  0.787539D-01  0.699394D-01
     10   0.252250D+00 -0.470349D+00  0.135286D+00 -0.890204D-02 -0.615883D-01
     11   0.437316D-01  0.542697D-01  0.106500D+00  0.676496D-02  0.803501D-02
     12  -0.479912D-01  0.209262D-02 -0.117882D-01 -0.181833D-01  0.249055D-01
     13   0.177582D-01 -0.798338D-02 -0.643667D-01  0.101730D-01 -0.359352D-01
     14   0.534683D-01 -0.779728D-01  0.245783D-01  0.323634D-01 -0.195572D-01
     15  -0.142848D-01 -0.723505D-01 -0.151889D-01 -0.447486D-02  0.182550D-01
     16  -0.522384D-01 -0.201004D-01  0.445729D-01 -0.108914D-01  0.317264D-01
                 6             7             8             9            10 
      1  -0.770306D+03 -0.770290D+03 -0.770290D+03 -0.770287D+03 -0.770273D+03
      2  -0.104510D+00  0.679975D-01  0.627963D-01  0.101552D+00 -0.632099D+00
      3  -0.523109D-01 -0.133243D+00 -0.162211D+00 -0.144720D+00 -0.377197D+00
      4   0.485524D-01 -0.134719D+00 -0.179182D+00 -0.239622D+00  0.285898D+00
      5   0.130543D-01 -0.122579D-01 -0.878751D-02 -0.148288D-01  0.969002D-01
      6   0.798599D-02  0.197486D-01  0.255398D-01  0.243455D-01  0.552201D-01
      7  -0.628007D-02  0.194056D-01  0.286803D-01  0.368642D-01 -0.412386D-01
      8  -0.241987D-01 -0.238301D-01  0.401499D+00  0.329328D+00 -0.189385D+00
      9  -0.165882D-01 -0.759796D+00  0.138820D-01 -0.319254D+00  0.377555D+00
     10   0.819576D-01  0.653150D+00  0.365054D+00  0.373002D+00  0.768571D+00
     11   0.301328D-01  0.734509D-02 -0.459569D-01 -0.179222D+00  0.663238D+00
     12   0.403461D-02  0.123011D-01 -0.111720D-02  0.392648D-01 -0.199739D+00
     13  -0.248957D-01 -0.236734D-01  0.196431D-01  0.530399D-01 -0.153730D+00
     14   0.169715D-01 -0.534428D-02  0.164490D+00  0.130367D+00  0.375373D+00
     15   0.115230D-01  0.191870D-01  0.107933D+00  0.148081D+00 -0.107328D+00
     16   0.249736D-01  0.129991D-01  0.523462D-01  0.926935D-02  0.161953D+00
                11            12            13            14            15 
      1  -0.770270D+03 -0.770270D+03 -0.770267D+03 -0.770264D+03 -0.770264D+03
      2   0.127228D+00  0.284728D+00 -0.318067D+00 -0.489143D+00  0.641116D-01
      3   0.156577D+00  0.338558D-01 -0.203506D+00 -0.908727D-01  0.168010D+00
      4  -0.137605D+00 -0.191252D+00  0.194367D+00  0.332746D+00 -0.789393D-02
      5  -0.183707D-01 -0.403460D-01  0.480142D-01  0.802265D-01 -0.100625D-01
      6  -0.272053D-01 -0.777751D-02  0.311569D-01  0.162736D-01 -0.290130D-01
      7   0.225095D-01  0.310276D-01 -0.295196D-01 -0.566304D-01  0.106548D-02
      8  -0.632977D-01  0.733634D-02 -0.551467D-01 -0.375433D+00 -0.495640D-01
      9  -0.884880D-01 -0.208138D+00  0.303347D+00 -0.107172D+00  0.202092D+00
     10  -0.117650D+00 -0.395873D+00  0.447315D+00  0.448391D-01 -0.450272D-01
     11  -0.182348D+00 -0.336694D+00  0.477197D+00 -0.611574D-01  0.201610D+00
     12   0.483293D-01  0.136195D+00 -0.135861D+00 -0.261073D-01 -0.516716D-01
     13   0.621050D-01  0.759591D-01 -0.109892D+00  0.497668D-02 -0.295609D-01
     14  -0.106600D+00 -0.302688D+00  0.245673D+00  0.318453D+00 -0.131191D+00
     15   0.181426D-01  0.538154D-01 -0.105289D+00  0.110707D+00 -0.150746D+00
     16  -0.973492D-01 -0.150307D+00  0.141731D+00 -0.112185D-01  0.191438D-01
                16            17            18            19            20 
      1  -0.770259D+03 -0.770259D+03 -0.770256D+03 -0.770252D+03 -0.770249D+03
      2   0.252675D+00 -0.788555D-02  0.327442D+00  0.621487D+00 -0.120716D+00
      3  -0.251137D+00 -0.526777D-01 -0.125172D+00  0.989800D+00 -0.121925D-02
      4  -0.938112D-01 -0.718585D-01 -0.223328D+00 -0.490019D+00  0.149834D+00
      5  -0.424305D-01 -0.344923D-03 -0.563134D-01 -0.110165D+00  0.242895D-01
      6   0.393834D-01  0.939315D-02  0.197883D-01 -0.170813D+00  0.784026D-03
      7   0.174793D-01  0.130847D-01  0.400032D-01  0.843260D-01 -0.281444D-01
      8   0.158640D+00  0.143756D+00  0.173993D+00  0.187054D+00 -0.175275D+00
      9   0.339792D-01  0.639526D-01 -0.946298D-01 -0.421154D+00 -0.520198D-01
     10  -0.395140D+00  0.250171D+00 -0.243277D+00 -0.200548D+00 -0.860378D-01
     11  -0.957134D-01  0.619410D-01 -0.131165D+00 -0.762741D+00 -0.107224D+00
     12   0.120515D+00 -0.418283D-01  0.113941D+00  0.645627D-01  0.954593D-02
     13   0.316636D-02 -0.976954D-02 -0.181420D-01  0.243444D+00  0.145932D-01
     14  -0.312131D+00  0.154577D+00 -0.298053D+00 -0.137500D+00  0.211619D-01
     15  -0.199970D-01  0.435737D-01 -0.707469D-02  0.169580D+00  0.444081D-01
     16  -0.546474D-01  0.511322D-01 -0.544801D-01 -0.144892D+00 -0.315768D-01
                21            22            23            24            25 
      1  -0.770246D+03 -0.770241D+03 -0.770239D+03 -0.770233D+03 -0.770232D+03
      2  -0.363287D+00  0.346301D-01  0.172365D+00  0.125219D-01  0.523493D-01
      3  -0.106200D+01 -0.259948D+00 -0.864254D+00  0.110722D+00  0.248165D-01
      4   0.133926D+00 -0.794880D-01 -0.326257D+00 -0.515158D-01 -0.400969D-01
      5   0.647463D-01 -0.777797D-02 -0.367646D-01  0.618680D-02 -0.797012D-02
      6   0.189080D+00  0.472283D-01  0.159022D+00 -0.312868D-01 -0.683060D-02
      7  -0.224227D-01  0.153116D-01  0.626940D-01  0.226926D-01  0.102625D-01
      8   0.170643D+00  0.107229D+00  0.351620D+00 -0.176022D+00 -0.613508D-01
      9   0.413607D+00  0.541926D-01  0.189404D+00 -0.317085D-01  0.198407D-01
     10   0.128883D+00 -0.223921D+00 -0.861589D+00  0.183149D+00  0.729148D-02
     11   0.861246D+00  0.141637D-01 -0.525852D-01 -0.521970D-01 -0.447733D-01
     12  -0.613653D-01  0.842790D-01  0.319033D+00 -0.304012D-02  0.167876D-01
     13  -0.219400D+00 -0.220971D-01 -0.605057D-01  0.178693D+00  0.396823D-01
     14  -0.323356D-01 -0.222387D+00 -0.864898D+00 -0.258899D-01 -0.366125D-01
     15  -0.243346D+00 -0.409896D-01 -0.135167D+00  0.826698D-01  0.219068D-01
     16   0.136722D+00 -0.440623D-01 -0.188417D+00 -0.133079D+00 -0.367443D-01
                26            27            28            29            30 
      1  -0.770229D+03 -0.770226D+03 -0.770216D+03 -0.770215D+03 -0.770214D+03
      2   0.391605D-02 -0.165450D+00 -0.913759D-01 -0.314873D-01 -0.981420D-01
      3  -0.124380D+00  0.208736D-03 -0.126313D+00 -0.502398D-01 -0.997318D-01
      4  -0.747205D-01  0.111827D+00 -0.109986D-01  0.932704D-02  0.474787D-01
      5  -0.132596D-02  0.305156D-01  0.145555D-01  0.597472D-02  0.210711D-01
      6   0.258202D-01  0.178822D-02  0.287967D-01  0.998717D-02  0.177743D-01
      7   0.157860D-01 -0.252776D-01  0.686335D-03 -0.306412D-02 -0.137690D-01
      8   0.774875D-02  0.227392D+00 -0.225496D-01 -0.371676D-01 -0.148177D+00
      9  -0.875240D-01  0.399377D+00 -0.736201D-01 -0.305445D-01 -0.113849D+00
     10   0.110187D+00  0.259140D+00 -0.278524D+00 -0.107754D+00 -0.243111D+00
     11  -0.254920D-01  0.112610D+00 -0.457941D-01 -0.285031D-01 -0.115671D+00
     12   0.176115D-01  0.105826D+00  0.110876D+00  0.389633D-01  0.742862D-01
     13  -0.103231D-01 -0.125347D+00 -0.146899D-01 -0.444139D-02  0.660653D-02
     14   0.790801D-01  0.557197D-01 -0.889412D-01 -0.330149D-01 -0.413873D-01
     15   0.718081D-01 -0.239780D-01  0.493229D-02  0.713954D-02  0.459390D-01
     16   0.262896D-01  0.512046D-01 -0.524734D-01 -0.318316D-01 -0.102762D+00
                31            32            33            34            35 
      1  -0.770211D+03 -0.770211D+03 -0.770209D+03 -0.770206D+03 -0.770206D+03
      2   0.161583D+00  0.241193D+00  0.451136D-01  0.953226D-01 -0.124266D+00
      3  -0.182750D+00 -0.321993D-01  0.121532D+00  0.389872D-01  0.475640D-01
      4  -0.114620D+00 -0.102637D+00  0.148473D-01  0.541663D-01  0.994578D-01
      5  -0.347737D-01 -0.531139D-01 -0.556904D-02 -0.162351D-01  0.254431D-01
      6   0.365483D-01  0.637548D-02 -0.285594D-01 -0.101109D-01 -0.937002D-02
      7   0.262061D-01  0.246377D-01 -0.347595D-02 -0.838188D-02 -0.249210D-01
      8   0.498936D-01  0.298782D+00 -0.449291D-01  0.798330D-01  0.166857D-01
      9   0.122472D+00  0.197705D+00  0.222246D-01  0.798297D-01  0.277136D+00
     10   0.135068D+00  0.271550D-01  0.194418D+00 -0.957003D-01  0.268679D-01
     11   0.288125D+00  0.132282D+00  0.108931D-01 -0.904892D-01 -0.342044D-01
     12  -0.858071D-01  0.111163D+00 -0.112352D+00  0.450573D-01  0.697963D-01
     13  -0.308084D-02 -0.134506D+00  0.242742D-01  0.144871D-01 -0.609537D-01
     14  -0.118884D+00 -0.198431D+00  0.985650D-01 -0.295208D-01  0.876515D-01
     15  -0.140837D+00 -0.692342D-01  0.136034D-01 -0.105459D-01  0.244623D-01
     16   0.841066D-01  0.998472D-01  0.222119D-01 -0.870088D-02  0.903686D-02
                36 
      1  -0.770204D+03
      2   0.639226D-02
      3  -0.866721D-01
      4   0.104470D-01
      5   0.258381D-02
      6   0.139643D-01
      7   0.477322D-02
      8  -0.152398D+00
      9  -0.447514D-01
     10   0.110690D+00
     11   0.706995D-01
     12  -0.607108D-01
     13   0.326157D-01
     14  -0.369740D-01
     15  -0.150084D-01
     16  -0.105051D-01
 1\1\GINC-GRA416\SP\UB3LYP TD-FC\6-31G(d,p)\C16H17O2(2)\RZK\25-May-2019
 \0\\#p td=(50-50,nstates=36) ub3lyp/6-31g(d,p) scrf=(iefpcm,solvent=ac
 etonitrile) guess=(mix,always) empiricaldispersion=gd3\\Title Card Req
 uired\\0,2\C,0,-1.60827,-1.349123,-0.962268\C,0,0.750216,-1.381453,1.2
 00254\O,0,-2.085995,-2.236219,-0.251104\C,0,-0.793665,-1.704399,-2.184
 867\H,0,-1.153771,-1.174157,-3.071487\H,0,0.250977,-1.415102,-2.026222
 \H,0,-0.843612,-2.781195,-2.347143\C,0,-0.20688,-1.17818,2.327468\H,0,
 -0.315182,-0.129376,2.602152\H,0,-1.199496,-1.54577,2.035227\H,0,0.102
 119,-1.741178,3.218672\C,0,-1.781718,0.087298,-0.601303\C,0,-2.6818,0.
 421866,0.424908\C,0,-1.042048,1.106822,-1.222674\C,0,-2.837652,1.74567
 7,0.823579\H,0,-3.248286,-0.373114,0.897216\C,0,-1.191211,2.431445,-0.
 81502\H,0,-0.328538,0.869925,-2.003642\C,0,-2.089183,2.753522,0.205539
 \H,0,-3.537798,1.995307,1.614915\H,0,-0.602405,3.210427,-1.288943\H,0,
 -2.205059,3.786303,0.52035\C,0,1.642568,-0.428236,0.649129\C,0,2.44795
 3,-0.756883,-0.484284\C,0,1.755889,0.896592,1.16474\C,0,3.28348,0.1858
 68,-1.066453\H,0,2.395081,-1.760899,-0.888871\C,0,2.597677,1.825627,0.
 57117\H,0,1.171535,1.192521,2.028739\C,0,3.368694,1.487093,-0.550848\H
 ,0,3.878445,-0.092851,-1.932119\H,0,2.655046,2.829319,0.983467\H,0,4.0
 23167,2.220758,-1.010838\O,0,0.761214,-2.630915,0.637135\H,0,-0.128263
 ,-3.015067,0.705863\\Version=ES64L-G16RevB.01\State=2-A\HF=-770.430594
 9\S2=0.774477\S2-1=0.\S2A=0.750419\RMSD=9.492e-09\PG=C01 [X(C16H17O2)]
 \\@


 THE MORE PROGRESS PHYSICAL SCIENCES MAKE, THE MORE THEY TEND TO ENTER
 THE DOMAIN OF MATHEMATICS, WHICH IS A KIND OF CENTRE TO WHICH THEY ALL
 CONVERGE.  WE MAY EVEN JUDGE THE DEGREE OF PERFECTION TO WHICH A 
 SCIENCE HAS ARRIVED BY THE FACILITY WITH WHICH IT MAY BE SUBMITTED
 TO CALCULATION.

                               -- ADOLPHE QUETELET, 1796-1874
 Job cpu time:       0 days 15 hours  5 minutes 58.6 seconds.
 Elapsed time:       0 days  0 hours 28 minutes 21.5 seconds.
 File lengths (MBytes):  RWF=   2198 Int=      0 D2E=      0 Chk=    178 Scr=      1
 Normal termination of Gaussian 16 at Sat May 25 04:46:07 2019.
