 Entering Gaussian System, Link 0=g16
 Initial command:
 /opt/software/gaussian/g16.b01/l1.exe "/localscratch/rzk.15153361.0/Gau-6668.inp" -scrdir="/localscratch/rzk.15153361.0/"
 Entering Link 1 = /opt/software/gaussian/g16.b01/l1.exe PID=      6673.
  
 Copyright (c) 1988-2017, Gaussian, Inc.  All Rights Reserved.
  
 This is part of the Gaussian(R) 16 program.  It is based on
 the Gaussian(R) 09 system (copyright 2009, Gaussian, Inc.),
 the Gaussian(R) 03 system (copyright 2003, Gaussian, Inc.),
 the Gaussian(R) 98 system (copyright 1998, Gaussian, Inc.),
 the Gaussian(R) 94 system (copyright 1995, Gaussian, Inc.),
 the Gaussian 92(TM) system (copyright 1992, Gaussian, Inc.),
 the Gaussian 90(TM) system (copyright 1990, Gaussian, Inc.),
 the Gaussian 88(TM) system (copyright 1988, Gaussian, Inc.),
 the Gaussian 86(TM) system (copyright 1986, Carnegie Mellon
 University), and the Gaussian 82(TM) system (copyright 1983,
 Carnegie Mellon University). Gaussian is a federally registered
 trademark of Gaussian, Inc.
  
 This software contains proprietary and confidential information,
 including trade secrets, belonging to Gaussian, Inc.
  
 This software is provided under written license and may be
 used, copied, transmitted, or stored only in accord with that
 written license.
  
 The following legend is applicable only to US Government
 contracts under FAR:
  
                    RESTRICTED RIGHTS LEGEND
  
 Use, reproduction and disclosure by the US Government is
 subject to restrictions as set forth in subparagraphs (a)
 and (c) of the Commercial Computer Software - Restricted
 Rights clause in FAR 52.227-19.
  
 Gaussian, Inc.
 340 Quinnipiac St., Bldg. 40, Wallingford CT 06492
  
  
 ---------------------------------------------------------------
 Warning -- This program may not be used in any manner that
 competes with the business of Gaussian, Inc. or will provide
 assistance to any competitor of Gaussian, Inc.  The licensee
 of this program is prohibited from giving any competitor of
 Gaussian, Inc. access to this program.  By using this program,
 the user acknowledges that Gaussian, Inc. is engaged in the
 business of creating and licensing software in the field of
 computational chemistry and represents and warrants to the
 licensee that it is not a competitor of Gaussian, Inc. and that
 it will not use this program in any manner prohibited above.
 ---------------------------------------------------------------
  

 Cite this work as:
 Gaussian 16, Revision B.01,
 M. J. Frisch, G. W. Trucks, H. B. Schlegel, G. E. Scuseria, 
 M. A. Robb, J. R. Cheeseman, G. Scalmani, V. Barone, 
 G. A. Petersson, H. Nakatsuji, X. Li, M. Caricato, A. V. Marenich, 
 J. Bloino, B. G. Janesko, R. Gomperts, B. Mennucci, H. P. Hratchian, 
 J. V. Ortiz, A. F. Izmaylov, J. L. Sonnenberg, D. Williams-Young, 
 F. Ding, F. Lipparini, F. Egidi, J. Goings, B. Peng, A. Petrone, 
 T. Henderson, D. Ranasinghe, V. G. Zakrzewski, J. Gao, N. Rega, 
 G. Zheng, W. Liang, M. Hada, M. Ehara, K. Toyota, R. Fukuda, 
 J. Hasegawa, M. Ishida, T. Nakajima, Y. Honda, O. Kitao, H. Nakai, 
 T. Vreven, K. Throssell, J. A. Montgomery, Jr., J. E. Peralta, 
 F. Ogliaro, M. J. Bearpark, J. J. Heyd, E. N. Brothers, K. N. Kudin, 
 V. N. Staroverov, T. A. Keith, R. Kobayashi, J. Normand, 
 K. Raghavachari, A. P. Rendell, J. C. Burant, S. S. Iyengar, 
 J. Tomasi, M. Cossi, J. M. Millam, M. Klene, C. Adamo, R. Cammi, 
 J. W. Ochterski, R. L. Martin, K. Morokuma, O. Farkas, 
 J. B. Foresman, and D. J. Fox, Gaussian, Inc., Wallingford CT, 2016.
 
 ******************************************
 Gaussian 16:  ES64L-G16RevB.01 20-Dec-2017
                25-May-2019 
 ******************************************
 %NProcShared=32
 Will use up to   32 processors via shared memory.
 %chk=AH-A_18.chk
 ----------------------------------------------------------------------
 #p td=(50-50,nstates=36) ub3lyp/6-31g(d,p) scrf=(iefpcm,solvent=aceton
 itrile) guess=(mix,always) empiricaldispersion=gd3
 ----------------------------------------------------------------------
 1/38=1,172=1/1;
 2/12=2,17=6,18=5,40=1/2;
 3/5=1,6=6,7=101,11=2,25=1,30=1,70=2201,72=2,74=-5,116=2,124=31/1,2,3,8;
 4/13=-1/1;
 5/5=2,38=5,53=2/2;
 8/6=1,10=2,108=36/1;
 9/41=36,42=1,48=2,70=2/14;
 6/7=2,8=2,9=2,10=2/1;
 99/5=1,9=1/99;
 Leave Link    1 at Sat May 25 04:16:14 2019, MaxMem=           0 cpu:               5.0 elap:               0.2
 (Enter /opt/software/gaussian/g16.b01/l101.exe)
 -------------------
 Title Card Required
 -------------------
 Symbolic Z-matrix:
 Charge =  0 Multiplicity = 2
 C                    -0.55776  -1.28121  -0.45934 
 C                     0.57676  -1.27401   0.52189 
 O                    -1.21528  -2.49364  -0.35918 
 C                    -0.03794  -1.36365  -1.94739 
 H                    -0.88795  -1.42723  -2.62618 
 H                     0.53757  -0.46116  -2.15792 
 H                     0.60811  -2.23198  -2.06178 
 C                     0.02701  -1.33047   1.96546 
 H                    -0.58763  -0.4676    2.22498 
 H                    -0.59072  -2.22774   2.07293 
 H                     0.86452  -1.39462   2.66269 
 C                    -1.54436  -0.10989  -0.32041 
 C                    -2.74385  -0.31348   0.37641 
 C                    -1.29214   1.15739  -0.86306 
 C                    -3.66487   0.72203   0.53466 
 H                    -2.95334  -1.29264   0.7942 
 C                    -2.212     2.19547  -0.70517 
 H                    -0.37271   1.34866  -1.40365 
 C                    -3.40123   1.98274  -0.00542 
 H                    -4.58683   0.5435    1.08015 
 H                    -1.99701   3.17039  -1.13241 
 H                    -4.11594   2.79106   0.11678 
 C                     1.54074  -0.09689   0.34128 
 C                     2.6881   -0.24283  -0.45297 
 C                     1.30647   1.14565   0.94818 
 C                     3.57009   0.82236  -0.64081 
 H                     2.88822  -1.20156  -0.91516 
 C                     2.18687   2.21216   0.76062 
 H                     0.42588   1.29632   1.56107 
 C                     3.32277   2.05603  -0.03579 
 H                     4.45257   0.68522  -1.25904 
 H                     1.98218   3.16528   1.23925 
 H                     4.00851   2.88556  -0.18063 
 O                     1.34663  -2.46861   0.31769 
 H                     0.68584  -3.17193   0.2078 
 
 ITRead=  0  0  0  0  0  0  0  0  0  0  0  0  0  0  0  0  0  0  0  0
 ITRead=  0  0  0  0  0  0  0  0  0  0  0  0  0  0  0
 MicOpt= -1 -1 -1 -1 -1 -1 -1 -1 -1 -1 -1 -1 -1 -1 -1 -1 -1 -1 -1 -1
 MicOpt= -1 -1 -1 -1 -1 -1 -1 -1 -1 -1 -1 -1 -1 -1 -1
 NAtoms=     35 NQM=       35 NQMF=       0 NMMI=      0 NMMIF=      0
                NMic=       0 NMicF=      0.
                    Isotopes and Nuclear Properties:
 (Nuclear quadrupole moments (NQMom) in fm**2, nuclear magnetic moments (NMagM)
  in nuclear magnetons)

  Atom         1           2           3           4           5           6           7           8           9          10
 IAtWgt=          12          12          16          12           1           1           1          12           1           1
 AtmWgt=  12.0000000  12.0000000  15.9949146  12.0000000   1.0078250   1.0078250   1.0078250  12.0000000   1.0078250   1.0078250
 NucSpn=           0           0           0           0           1           1           1           0           1           1
 AtZEff=  -0.0000000  -0.0000000  -0.0000000  -0.0000000  -0.0000000  -0.0000000  -0.0000000  -0.0000000  -0.0000000  -0.0000000
 NQMom=    0.0000000   0.0000000   0.0000000   0.0000000   0.0000000   0.0000000   0.0000000   0.0000000   0.0000000   0.0000000
 NMagM=    0.0000000   0.0000000   0.0000000   0.0000000   2.7928460   2.7928460   2.7928460   0.0000000   2.7928460   2.7928460
 AtZNuc=   6.0000000   6.0000000   8.0000000   6.0000000   1.0000000   1.0000000   1.0000000   6.0000000   1.0000000   1.0000000

  Atom        11          12          13          14          15          16          17          18          19          20
 IAtWgt=           1          12          12          12          12           1          12           1          12           1
 AtmWgt=   1.0078250  12.0000000  12.0000000  12.0000000  12.0000000   1.0078250  12.0000000   1.0078250  12.0000000   1.0078250
 NucSpn=           1           0           0           0           0           1           0           1           0           1
 AtZEff=  -0.0000000  -0.0000000  -0.0000000  -0.0000000  -0.0000000  -0.0000000  -0.0000000  -0.0000000  -0.0000000  -0.0000000
 NQMom=    0.0000000   0.0000000   0.0000000   0.0000000   0.0000000   0.0000000   0.0000000   0.0000000   0.0000000   0.0000000
 NMagM=    2.7928460   0.0000000   0.0000000   0.0000000   0.0000000   2.7928460   0.0000000   2.7928460   0.0000000   2.7928460
 AtZNuc=   1.0000000   6.0000000   6.0000000   6.0000000   6.0000000   1.0000000   6.0000000   1.0000000   6.0000000   1.0000000

  Atom        21          22          23          24          25          26          27          28          29          30
 IAtWgt=           1           1          12          12          12          12           1          12           1          12
 AtmWgt=   1.0078250   1.0078250  12.0000000  12.0000000  12.0000000  12.0000000   1.0078250  12.0000000   1.0078250  12.0000000
 NucSpn=           1           1           0           0           0           0           1           0           1           0
 AtZEff=  -0.0000000  -0.0000000  -0.0000000  -0.0000000  -0.0000000  -0.0000000  -0.0000000  -0.0000000  -0.0000000  -0.0000000
 NQMom=    0.0000000   0.0000000   0.0000000   0.0000000   0.0000000   0.0000000   0.0000000   0.0000000   0.0000000   0.0000000
 NMagM=    2.7928460   2.7928460   0.0000000   0.0000000   0.0000000   0.0000000   2.7928460   0.0000000   2.7928460   0.0000000
 AtZNuc=   1.0000000   1.0000000   6.0000000   6.0000000   6.0000000   6.0000000   1.0000000   6.0000000   1.0000000   6.0000000

  Atom        31          32          33          34          35
 IAtWgt=           1           1           1          16           1
 AtmWgt=   1.0078250   1.0078250   1.0078250  15.9949146   1.0078250
 NucSpn=           1           1           1           0           1
 AtZEff=  -0.0000000  -0.0000000  -0.0000000  -0.0000000  -0.0000000
 NQMom=    0.0000000   0.0000000   0.0000000   0.0000000   0.0000000
 NMagM=    2.7928460   2.7928460   2.7928460   0.0000000   2.7928460
 AtZNuc=   1.0000000   1.0000000   1.0000000   8.0000000   1.0000000
 Leave Link  101 at Sat May 25 04:16:14 2019, MaxMem=   104857600 cpu:               6.9 elap:               0.3
 (Enter /opt/software/gaussian/g16.b01/l202.exe)
                          Input orientation:                          
 ---------------------------------------------------------------------
 Center     Atomic      Atomic             Coordinates (Angstroms)
 Number     Number       Type             X           Y           Z
 ---------------------------------------------------------------------
      1          6           0       -0.557763   -1.281213   -0.459340
      2          6           0        0.576762   -1.274006    0.521885
      3          8           0       -1.215281   -2.493639   -0.359179
      4          6           0       -0.037938   -1.363652   -1.947385
      5          1           0       -0.887950   -1.427232   -2.626184
      6          1           0        0.537567   -0.461160   -2.157917
      7          1           0        0.608109   -2.231982   -2.061781
      8          6           0        0.027006   -1.330473    1.965461
      9          1           0       -0.587633   -0.467599    2.224981
     10          1           0       -0.590717   -2.227739    2.072931
     11          1           0        0.864523   -1.394617    2.662686
     12          6           0       -1.544360   -0.109891   -0.320409
     13          6           0       -2.743854   -0.313477    0.376410
     14          6           0       -1.292138    1.157386   -0.863058
     15          6           0       -3.664867    0.722034    0.534664
     16          1           0       -2.953343   -1.292641    0.794199
     17          6           0       -2.212003    2.195473   -0.705167
     18          1           0       -0.372708    1.348660   -1.403648
     19          6           0       -3.401234    1.982735   -0.005424
     20          1           0       -4.586826    0.543503    1.080152
     21          1           0       -1.997005    3.170393   -1.132409
     22          1           0       -4.115941    2.791062    0.116775
     23          6           0        1.540739   -0.096890    0.341278
     24          6           0        2.688100   -0.242829   -0.452973
     25          6           0        1.306473    1.145650    0.948181
     26          6           0        3.570089    0.822361   -0.640813
     27          1           0        2.888221   -1.201559   -0.915164
     28          6           0        2.186869    2.212163    0.760621
     29          1           0        0.425882    1.296317    1.561067
     30          6           0        3.322769    2.056034   -0.035789
     31          1           0        4.452573    0.685221   -1.259041
     32          1           0        1.982182    3.165283    1.239249
     33          1           0        4.008505    2.885561   -0.180629
     34          8           0        1.346634   -2.468607    0.317689
     35          1           0        0.685839   -3.171932    0.207801
 ---------------------------------------------------------------------
                    Distance matrix (angstroms):
                    1          2          3          4          5
     1  C    0.000000
     2  C    1.500000   0.000000
     3  O    1.382873   2.339914   0.000000
     4  C    1.578383   2.546210   2.277149   0.000000
     5  H    2.196715   3.475514   2.526595   1.089647   0.000000
     6  H    2.181146   2.800642   3.230929   1.090881   1.784564
     7  H    2.197962   2.755727   2.508400   1.088329   1.790074
     8  C    2.494803   1.545746   2.881004   3.913526   4.682917
     9  H    2.805074   2.215095   3.343152   4.302757   4.954280
    10  H    2.703589   2.162951   2.525063   4.149115   4.776070
    11  H    3.432609   2.163419   3.829504   4.697675   5.571748
    12  C    1.537749   2.561988   2.406668   2.547209   2.735482
    13  C    2.532585   3.459808   2.762378   3.718181   3.701405
    14  C    2.578577   3.364895   3.686433   3.017352   3.154716
    15  C    3.828203   4.687831   4.140046   4.864696   4.724571
    16  H    2.703756   3.540642   2.406977   4.002613   3.997872
    17  C    3.858016   4.617375   4.806343   4.351670   4.308992
    18  H    2.800392   3.389328   4.069902   2.786460   3.076629
    19  C    4.352554   5.168062   4.994142   5.126527   4.981250
    20  H    4.683265   5.502512   4.760590   5.787539   5.594855
    21  H    4.726652   5.395706   5.769769   5.005966   4.959791
    22  H    5.438379   6.221764   6.047183   6.176772   5.978106
    23  C    2.539157   1.532146   3.718964   3.055304   4.058839
    24  C    3.407918   2.543899   4.506809   3.304663   4.348999
    25  C    3.368405   2.562995   4.616585   4.060584   4.920498
    26  C    4.636498   3.834922   5.828803   4.416293   5.373684
    27  H    3.476913   2.722719   4.337893   3.107115   4.151865
    28  C    4.607058   3.847442   5.913810   5.006947   5.845524
    29  H    3.419541   2.776549   4.554616   4.427166   5.164973
    30  C    5.135673   4.352094   6.434128   5.161667   6.047598
    31  H    5.441493   4.693845   6.560448   4.983612   5.903620
    32  H    5.395169   4.711380   6.693440   5.894639   6.653602
    33  H    6.187931   5.438050   7.500374   6.127882   6.968227
    34  O    2.374954   1.435782   2.649941   2.875504   3.839820
    35  H    2.359331   1.926829   2.096618   2.904919   3.681340
                    6          7          8          9         10
     6  H    0.000000
     7  H    1.774832   0.000000
     8  C    4.244835   4.167622   0.000000
     9  H    4.525032   4.787397   1.090726   0.000000
    10  H    4.721642   4.305002   1.094631   1.766698   0.000000
    11  H    4.921022   4.804947   1.091637   1.777556   1.777534
    12  C    2.798972   3.488376   3.030547   2.742680   3.335085
    13  C    4.148777   4.567395   3.352168   2.844338   3.343439
    14  C    2.764809   4.066410   3.991253   3.559900   4.535537
    15  C    5.129366   5.807414   4.459808   3.706989   4.529661
    16  H    4.646806   4.660786   3.202463   2.885206   2.844568
    17  C    4.090026   5.421789   4.957591   4.279754   5.469113
    18  H    2.161706   3.770429   4.323011   4.063488   4.992470
    19  C    5.110773   6.169868   5.158931   4.346860   5.472354
    20  H    6.144416   6.675508   5.057964   4.280947   4.963293
    21  H    4.545756   6.069267   5.826767   5.147172   6.433637
    22  H    6.116070   7.231440   6.129331   5.245223   6.437555
    23  C    2.717540   3.347105   2.539899   2.866309   3.475952
    24  C    2.753052   3.297174   3.756756   4.237026   4.590283
    25  C    3.580628   4.577770   2.966998   2.796503   4.030403
    26  C    3.625634   4.485698   4.897019   5.211854   5.829221
    27  H    2.760109   2.752347   4.062163   4.741389   4.699443
    28  C    4.287740   5.496259   4.320523   4.125935   5.399062
    29  H    4.114856   5.060349   2.687501   2.139952   3.703302
    30  C    4.312429   5.464531   5.131811   5.174075   6.173555
    31  H    4.177253   4.892276   5.834902   6.234668   6.709854
    32  H    5.174818   6.474206   4.955998   4.557790   6.033202
    33  H    5.211297   6.425782   6.183282   6.176984   7.237210
    34  O    3.288321   2.502656   2.398316   3.373898   2.625304
    35  H    3.600957   2.457753   2.629525   3.606129   2.449450
                   11         12         13         14         15
    11  H    0.000000
    12  C    4.043772   0.000000
    13  C    4.406394   1.402066   0.000000
    14  C    4.857445   1.401455   2.409813   0.000000
    15  C    5.433605   2.433064   1.394845   2.788010   0.000000
    16  H    4.251793   2.150926   1.084986   3.392453   2.152334
    17  C    5.804842   2.430738   2.783434   1.395961   2.412264
    18  H    5.058792   2.161839   3.399064   1.083593   3.871437
    19  C    6.059868   2.815365   2.418788   2.421781   1.396626
    20  H    5.998160   3.412491   2.150863   3.874001   1.086020
    21  H    6.590175   3.409471   3.869324   2.149787   3.399317
    22  H    6.986172   3.901242   3.404144   3.406293   2.158466
    23  C    2.744139   3.155287   4.290208   3.323977   5.273174
    24  C    3.789377   4.236622   5.495361   4.239229   6.501275
    25  C    3.096418   3.363473   4.342939   3.167571   5.006463
    26  C    4.811256   5.208583   6.495440   4.878820   7.330512
    27  H    4.115050   4.603612   5.846120   4.800285   6.981774
    28  C    4.286643   4.525774   5.553243   3.981504   6.042711
    29  H    2.940595   3.065816   3.747276   2.974437   4.256469
    30  C    5.023120   5.334902   6.525979   4.773815   7.136668
    31  H    5.707869   6.121800   7.447191   5.777668   8.313337
    32  H    4.905917   5.059229   5.931415   4.378643   6.193147
    33  H    6.024034   6.310830   7.492562   5.616860   8.004569
    34  O    2.623909   3.785308   4.623865   4.637360   5.944948
    35  H    3.035990   3.824773   4.467884   4.878742   5.847944
                   16         17         18         19         20
    16  H    0.000000
    17  C    3.868413   0.000000
    18  H    4.297287   2.141956   0.000000
    19  C    3.401190   1.396126   3.395446   0.000000
    20  H    2.474159   3.399434   4.957452   2.157659   0.000000
    21  H    4.954298   1.085923   2.455733   2.156962   4.301529
    22  H    4.299671   2.157613   4.289989   1.085878   2.490251
    23  C    4.672444   4.520293   2.965748   5.372908   6.205086
    24  C    5.872259   5.479044   3.578431   6.498725   7.476185
    25  C    4.910703   4.026830   2.896888   4.875713   5.925451
    26  C    7.006258   5.943245   4.050254   7.095740   8.341148
    27  H    6.087207   6.131575   4.168440   7.108066   7.931132
    28  C    6.221459   4.636689   3.461377   5.645029   6.983514
    29  H    4.325500   3.592038   3.070834   4.191883   5.091684
    30  C    7.161849   5.576846   4.003494   6.724471   8.129869
    31  H    7.935699   6.855962   4.872823   8.058373   9.338235
    32  H    6.665625   4.723608   3.978760   5.650557   7.074667
    33  H    8.177713   6.280612   4.801340   7.466594   8.997473
    34  O    4.483276   5.955147   4.526662   6.516218   6.697769
    35  H    4.137541   6.167660   4.914574   6.581810   6.508952
                   21         22         23         24         25
    21  H    0.000000
    22  H    2.488824   0.000000
    23  C    5.036122   6.355210   0.000000
    24  C    5.836260   7.471551   1.403057   0.000000
    25  C    4.397887   5.727232   1.402540   2.408319   0.000000
    26  C    6.061968   7.970243   2.434705   1.395643   2.784488
    27  H    6.559466   8.127989   2.148173   1.082974   3.388712
    28  C    4.691116   6.362002   2.434144   2.784067   1.395609
    29  H    4.078891   4.994837   2.161439   3.397493   1.083407
    30  C    5.544760   7.476493   2.820087   2.421078   2.421249
    31  H    6.912971   8.930110   3.413429   2.150439   3.870629
    32  H    4.632355   6.211851   3.412184   3.870034   2.149470
    33  H    6.087131   8.130437   3.906056   3.406533   3.406241
    34  O    6.714241   7.585790   2.379764   2.710634   3.669058
    35  H    7.015618   7.656545   3.194457   3.609060   4.424349
                   26         27         28         29         30
    26  C    0.000000
    27  H    2.153245   0.000000
    28  C    2.410159   3.866995   0.000000
    29  H    3.867680   4.293509   2.140225   0.000000
    30  C    1.396127   3.402065   1.396035   3.393976   0.000000
    31  H    1.086182   2.474952   3.397646   4.953856   2.156834
    32  H    3.397847   4.952950   1.086011   2.453298   2.157158
    33  H    2.158882   4.301061   2.158188   4.288868   1.085968
    34  O    4.085701   2.345598   4.776169   4.070433   4.949993
    35  H    4.999342   3.161314   5.616688   4.675912   5.860407
                   31         32         33         34         35
    31  H    0.000000
    32  H    4.300580   0.000000
    33  H    2.490314   2.490037   0.000000
    34  O    4.698890   5.744033   6.000083   0.000000
    35  H    5.587266   6.550167   6.919842   0.971283   0.000000
 Stoichiometry    C16H17O2(2)
 Framework group  C1[X(C16H17O2)]
 Deg. of freedom    99
 Full point group                 C1      NOp   1
 Largest Abelian subgroup         C1      NOp   1
 Largest concise Abelian subgroup C1      NOp   1
                         Standard orientation:                         
 ---------------------------------------------------------------------
 Center     Atomic      Atomic             Coordinates (Angstroms)
 Number     Number       Type             X           Y           Z
 ---------------------------------------------------------------------
      1          6           0       -0.557763   -1.281213   -0.459340
      2          6           0        0.576762   -1.274006    0.521885
      3          8           0       -1.215281   -2.493639   -0.359179
      4          6           0       -0.037938   -1.363652   -1.947385
      5          1           0       -0.887950   -1.427232   -2.626184
      6          1           0        0.537567   -0.461160   -2.157917
      7          1           0        0.608109   -2.231982   -2.061781
      8          6           0        0.027006   -1.330473    1.965461
      9          1           0       -0.587633   -0.467599    2.224981
     10          1           0       -0.590717   -2.227739    2.072931
     11          1           0        0.864523   -1.394617    2.662686
     12          6           0       -1.544360   -0.109891   -0.320409
     13          6           0       -2.743854   -0.313477    0.376410
     14          6           0       -1.292138    1.157386   -0.863058
     15          6           0       -3.664867    0.722034    0.534664
     16          1           0       -2.953343   -1.292641    0.794199
     17          6           0       -2.212003    2.195473   -0.705167
     18          1           0       -0.372708    1.348660   -1.403648
     19          6           0       -3.401234    1.982735   -0.005424
     20          1           0       -4.586826    0.543502    1.080152
     21          1           0       -1.997005    3.170393   -1.132409
     22          1           0       -4.115941    2.791062    0.116775
     23          6           0        1.540739   -0.096890    0.341278
     24          6           0        2.688100   -0.242829   -0.452973
     25          6           0        1.306473    1.145650    0.948181
     26          6           0        3.570089    0.822361   -0.640813
     27          1           0        2.888221   -1.201559   -0.915164
     28          6           0        2.186869    2.212163    0.760621
     29          1           0        0.425882    1.296317    1.561067
     30          6           0        3.322769    2.056034   -0.035789
     31          1           0        4.452573    0.685221   -1.259041
     32          1           0        1.982182    3.165283    1.239249
     33          1           0        4.008505    2.885561   -0.180629
     34          8           0        1.346634   -2.468607    0.317689
     35          1           0        0.685839   -3.171932    0.207801
 ---------------------------------------------------------------------
 Rotational constants (GHZ):           0.6285746           0.3791016           0.2886177
 Leave Link  202 at Sat May 25 04:16:15 2019, MaxMem=   104857600 cpu:               1.0 elap:               0.1
 (Enter /opt/software/gaussian/g16.b01/l301.exe)
 Standard basis: 6-31G(d,p) (6D, 7F)
 Ernie: Thresh=  0.10000D-02 Tol=  0.10000D-05 Strict=F.
 There are   355 symmetry adapted cartesian basis functions of A   symmetry.
 There are   355 symmetry adapted basis functions of A   symmetry.
   355 basis functions,   623 primitive gaussians,   355 cartesian basis functions
    65 alpha electrons       64 beta electrons
       nuclear repulsion energy      1331.6806503188 Hartrees.
 IExCor=  402 DFT=T Ex+Corr=B3LYP ExCW=0 ScaHFX=  0.200000
 ScaDFX=  0.800000  0.720000  1.000000  0.810000 ScalE2=  1.000000  1.000000
 IRadAn=      5 IRanWt=     -1 IRanGd=            0 ICorTp=0 IEmpDi=131
 NAtoms=   35 NActive=   35 NUniq=   35 SFac= 1.00D+00 NAtFMM=   60 NAOKFM=F Big=F
 Integral buffers will be    131072 words long.
 Raffenetti 2 integral format.
 Two-electron integral symmetry is turned on.
 R6Disp:  Grimme-D3 Dispersion energy=       -0.0416853681 Hartrees.
 Nuclear repulsion after empirical dispersion term =     1331.6389649507 Hartrees.
 ------------------------------------------------------------------------------
 Polarizable Continuum Model (PCM)
 =================================
 Model                : PCM.
 Atomic radii         : UFF (Universal Force Field).
 Polarization charges : Total charges.
 Charge compensation  : None.
 Solution method      : On-the-fly selection.
 Cavity type          : Scaled VdW (van der Waals Surface) (Alpha=1.100).
 Cavity algorithm     : GePol (No added spheres)
                        Default sphere list used, NSphG=   35.
                        Lebedev-Laikov grids with approx.  5.0 points / Ang**2.
                        Smoothing algorithm: York/Karplus (Gamma=1.0000).
                        Polarization charges: spherical gaussians, with
                                              point-specific exponents (IZeta= 3).
                        Self-potential: point-specific (ISelfS= 7).
                        Self-field    : sphere-specific E.n sum rule (ISelfD= 2).
 Solvent              : Acetonitrile, Eps=  35.688000 Eps(inf)=   1.806874
 ------------------------------------------------------------------------------
 GePol: Number of generator spheres                  =      35
 GePol: Total number of spheres                      =      35
 GePol: Number of exposed spheres                    =      35 (100.00%)
 GePol: Number of points                             =    2367
 GePol: Average weight of points                     =       0.13
 GePol: Minimum weight of points                     =   0.12D-11
 GePol: Maximum weight of points                     =    0.20577
 GePol: Number of points with low weight             =     151
 GePol: Fraction of low-weight points (<1% of avg)   =       6.38%
 GePol: Cavity surface area                          =    308.687 Ang**2
 GePol: Cavity volume                                =    350.366 Ang**3
 Leave Link  301 at Sat May 25 04:16:15 2019, MaxMem=   104857600 cpu:               3.3 elap:               0.2
 (Enter /opt/software/gaussian/g16.b01/l302.exe)
 NPDir=0 NMtPBC=     1 NCelOv=     1 NCel=       1 NClECP=     1 NCelD=      1
         NCelK=      1 NCelE2=     1 NClLst=     1 CellRange=     0.0.
 One-electron integrals computed using PRISM.
 One-electron integral symmetry used in STVInt
 PrsmSu:  requested number of processors reduced to:  28 ShMem   1 Linda.
 NBasis=   355 RedAO= T EigKep=  4.44D-04  NBF=   355
 NBsUse=   355 1.00D-06 EigRej= -1.00D+00 NBFU=   355
 Precomputing XC quadrature grid using
 IXCGrd= 4 IRadAn=           5 IRanWt=          -1 IRanGd=           0 AccXCQ= 0.00D+00.
 Generated NRdTot=       0 NPtTot=           0 NUsed=           0 NTot=          32
 NSgBfM=   354   354   354   354   354 MxSgAt=    35 MxSgA2=    35.
 Leave Link  302 at Sat May 25 04:16:16 2019, MaxMem=   104857600 cpu:              16.1 elap:               0.6
 (Enter /opt/software/gaussian/g16.b01/l303.exe)
 DipDrv:  MaxL=1.
 Leave Link  303 at Sat May 25 04:16:16 2019, MaxMem=   104857600 cpu:               2.2 elap:               0.1
 (Enter /opt/software/gaussian/g16.b01/l308.exe)
 Leave Link  308 at Sat May 25 04:16:16 2019, MaxMem=   104857600 cpu:               2.8 elap:               0.1
 (Enter /opt/software/gaussian/g16.b01/l401.exe)
 ExpMin= 1.61D-01 ExpMax= 5.48D+03 ExpMxC= 8.25D+02 IAcc=3 IRadAn=         5 AccDes= 0.00D+00
 Harris functional with IExCor=  402 and IRadAn=       5 diagonalized for initial guess.
 HarFok:  IExCor=  402 AccDes= 0.00D+00 IRadAn=         5 IDoV= 1 UseB2=F ITyADJ=14
 ICtDFT=  3500011 ScaDFX=  1.000000  1.000000  1.000000  1.000000
 FoFCou: FMM=F IPFlag=           0 FMFlag=      100000 FMFlg1=           0
         NFxFlg=           0 DoJE=T BraDBF=F KetDBF=T FulRan=T
         wScrn=  0.000000 ICntrl=       500 IOpCl=  0 I1Cent=   200000004 NGrid=           0
         NMat0=    1 NMatS0=      1 NMatT0=    0 NMatD0=    1 NMtDS0=    0 NMtDT0=    0
 Petite list used in FoFCou.
 Harris En= -770.397274824389    
 JPrj=0 DoOrth=F DoCkMO=T.
 Mixing orbitals, IMix= 1 IMixAn=  0 NRI=1 NE=   65 Coef=  7.07106781D-01  7.07106781D-01
 Mixing orbitals, IMix= 1 IMixAn=  0 NRI=1 NE=   64 Coef= -7.07106781D-01  7.07106781D-01
 Initial guess <Sx>= 0.0000 <Sy>= 0.0000 <Sz>= 0.5000 <S**2>= 1.0000 S= 0.6180
 Leave Link  401 at Sat May 25 04:16:17 2019, MaxMem=   104857600 cpu:              28.5 elap:               0.9
 (Enter /opt/software/gaussian/g16.b01/l502.exe)
 Integral symmetry usage will be decided dynamically.
 UHF open shell SCF:
 Using DIIS extrapolation, IDIIS=  1040.
 NGot=   104857600 LenX=   104590331 LenY=   104463865
 Requested convergence on RMS density matrix=1.00D-08 within 128 cycles.
 Requested convergence on MAX density matrix=1.00D-06.
 Requested convergence on             energy=1.00D-06.
 No special actions if energy rises.
 Fock matrices will be formed incrementally for  20 cycles.

 Cycle   1  Pass 1  IDiag  1:
 FoFJK:  IHMeth= 1 ICntrl=       0 DoSepK=F KAlg= 0 I1Cent=           0 FoldK=F
 IRaf= 840000000 NMat=       1 IRICut=       1 DoRegI=T DoRafI=F ISym2E= 0 IDoP0=0 IntGTp=1.
 FoFCou: FMM=F IPFlag=           0 FMFlag=      100000 FMFlg1=           0
         NFxFlg=           0 DoJE=F BraDBF=F KetDBF=F FulRan=T
         wScrn=  0.000000 ICntrl=         0 IOpCl=  1 I1Cent=           0 NGrid=           0
         NMat0=    1 NMatS0=      1 NMatT0=    0 NMatD0=    1 NMtDS0=    0 NMtDT0=    0
 Symmetry not used in FoFCou.
 Inv3:  Mode=1 IEnd=    16808067.
 Iteration    1 A*A^-1 deviation from unit magnitude is 2.89D-15 for    451.
 Iteration    1 A*A^-1 deviation from orthogonality  is 1.64D-15 for   1924    573.
 Iteration    1 A^-1*A deviation from unit magnitude is 2.89D-15 for    776.
 Iteration    1 A^-1*A deviation from orthogonality  is 9.71D-15 for   2008   1924.
 E= -769.828122613047    
 DIIS: error= 3.29D-02 at cycle   1 NSaved=   1.
 NSaved= 1 IEnMin= 1 EnMin= -769.828122613047     IErMin= 1 ErrMin= 3.29D-02
 ErrMax= 3.29D-02  0.00D+00 EMaxC= 1.00D-01 BMatC= 1.71D+00 BMatP= 1.71D+00
 IDIUse=3 WtCom= 6.71D-01 WtEn= 3.29D-01
 Coeff-Com:  0.100D+01
 Coeff-En:   0.100D+01
 Coeff:      0.100D+01
 Gap=     0.016 Goal=   None    Shift=    0.000
 Gap=     0.059 Goal=   None    Shift=    0.000
 GapD=    0.016 DampG=0.250 DampE=0.500 DampFc=0.2500 IDamp=-1.
 Damping current iteration by 2.50D-01
 RMSDP=4.49D-03 MaxDP=1.44D-01              OVMax= 8.29D-01

 Cycle   2  Pass 1  IDiag  1:
 RMSU=  1.10D-03    CP:  9.86D-01
 E= -769.999015326312     Delta-E=       -0.170892713265 Rises=F Damp=T
 DIIS: error= 1.77D-02 at cycle   2 NSaved=   2.
 NSaved= 2 IEnMin= 2 EnMin= -769.999015326312     IErMin= 2 ErrMin= 1.77D-02
 ErrMax= 1.77D-02  0.00D+00 EMaxC= 1.00D-01 BMatC= 4.79D-01 BMatP= 1.71D+00
 IDIUse=3 WtCom= 8.23D-01 WtEn= 1.77D-01
 Coeff-Com: -0.704D+00 0.170D+01
 Coeff-En:   0.000D+00 0.100D+01
 Coeff:     -0.579D+00 0.158D+01
 Gap=     0.283 Goal=   None    Shift=    0.000
 Gap=    -0.004 Goal=   None    Shift=    0.000
 RMSDP=2.57D-03 MaxDP=1.82D-01 DE=-1.71D-01 OVMax= 7.87D-01

 Cycle   3  Pass 1  IDiag  1:
 RMSU=  2.32D-03    CP:  9.60D-01  1.92D+00
 E= -770.259771882726     Delta-E=       -0.260756556413 Rises=F Damp=F
 DIIS: error= 1.88D-02 at cycle   3 NSaved=   3.
 NSaved= 3 IEnMin= 3 EnMin= -770.259771882726     IErMin= 2 ErrMin= 1.77D-02
 ErrMax= 1.88D-02  0.00D+00 EMaxC= 1.00D-01 BMatC= 4.99D-01 BMatP= 4.79D-01
 IDIUse=3 WtCom= 8.12D-01 WtEn= 1.88D-01
 Coeff-Com: -0.497D+00 0.110D+01 0.392D+00
 Coeff-En:   0.000D+00 0.000D+00 0.100D+01
 Coeff:     -0.403D+00 0.897D+00 0.506D+00
 Gap=     0.261 Goal=   None    Shift=    0.000
 Gap=     0.072 Goal=   None    Shift=    0.000
 RMSDP=1.73D-03 MaxDP=1.03D-01 DE=-2.61D-01 OVMax= 3.08D-01

 Cycle   4  Pass 1  IDiag  1:
 RMSU=  1.17D-03    CP:  9.62D-01  1.89D+00  4.49D-01
 E= -770.345748065983     Delta-E=       -0.085976183258 Rises=F Damp=F
 DIIS: error= 1.04D-02 at cycle   4 NSaved=   4.
 NSaved= 4 IEnMin= 4 EnMin= -770.345748065983     IErMin= 4 ErrMin= 1.04D-02
 ErrMax= 1.04D-02  0.00D+00 EMaxC= 1.00D-01 BMatC= 1.12D-01 BMatP= 4.79D-01
 IDIUse=3 WtCom= 8.96D-01 WtEn= 1.04D-01
 Coeff-Com: -0.186D+00 0.405D+00 0.313D+00 0.468D+00
 Coeff-En:   0.000D+00 0.000D+00 0.207D+00 0.793D+00
 Coeff:     -0.166D+00 0.363D+00 0.302D+00 0.502D+00
 Gap=     0.226 Goal=   None    Shift=    0.000
 Gap=     0.068 Goal=   None    Shift=    0.000
 RMSDP=8.24D-04 MaxDP=1.11D-01 DE=-8.60D-02 OVMax= 2.59D-01

 Cycle   5  Pass 1  IDiag  1:
 RMSU=  5.87D-04    CP:  9.61D-01  1.93D+00  6.28D-01  6.58D-01
 E= -770.369180782182     Delta-E=       -0.023432716199 Rises=F Damp=F
 DIIS: error= 5.37D-03 at cycle   5 NSaved=   5.
 NSaved= 5 IEnMin= 5 EnMin= -770.369180782182     IErMin= 5 ErrMin= 5.37D-03
 ErrMax= 5.37D-03  0.00D+00 EMaxC= 1.00D-01 BMatC= 4.11D-02 BMatP= 1.12D-01
 IDIUse=3 WtCom= 9.46D-01 WtEn= 5.37D-02
 Coeff-Com: -0.440D-01 0.730D-01 0.945D-01 0.402D+00 0.474D+00
 Coeff-En:   0.000D+00 0.000D+00 0.000D+00 0.219D+00 0.781D+00
 Coeff:     -0.417D-01 0.690D-01 0.894D-01 0.393D+00 0.491D+00
 Gap=     0.230 Goal=   None    Shift=    0.000
 Gap=     0.081 Goal=   None    Shift=    0.000
 RMSDP=3.18D-04 MaxDP=2.25D-02 DE=-2.34D-02 OVMax= 4.33D-02

 Cycle   6  Pass 1  IDiag  1:
 RMSU=  2.75D-04    CP:  9.60D-01  1.95D+00  5.92D-01  7.61D-01  9.06D-01
 E= -770.378022722121     Delta-E=       -0.008841939939 Rises=F Damp=F
 DIIS: error= 1.50D-03 at cycle   6 NSaved=   6.
 NSaved= 6 IEnMin= 6 EnMin= -770.378022722121     IErMin= 6 ErrMin= 1.50D-03
 ErrMax= 1.50D-03  0.00D+00 EMaxC= 1.00D-01 BMatC= 4.16D-03 BMatP= 4.11D-02
 IDIUse=3 WtCom= 9.85D-01 WtEn= 1.50D-02
 Coeff-Com: -0.201D-01 0.246D-01-0.178D-01 0.135D+00 0.125D+00 0.753D+00
 Coeff-En:   0.000D+00 0.000D+00 0.000D+00 0.000D+00 0.000D+00 0.100D+01
 Coeff:     -0.198D-01 0.243D-01-0.175D-01 0.133D+00 0.123D+00 0.757D+00
 Gap=     0.232 Goal=   None    Shift=    0.000
 Gap=     0.086 Goal=   None    Shift=    0.000
 RMSDP=2.04D-04 MaxDP=2.19D-02 DE=-8.84D-03 OVMax= 3.73D-02

 Cycle   7  Pass 1  IDiag  1:
 RMSU=  1.50D-04    CP:  9.59D-01  1.98D+00  5.62D-01  8.02D-01  1.06D+00
                    CP:  1.19D+00
 E= -770.379758857204     Delta-E=       -0.001736135083 Rises=F Damp=F
 DIIS: error= 1.11D-03 at cycle   7 NSaved=   7.
 NSaved= 7 IEnMin= 7 EnMin= -770.379758857204     IErMin= 7 ErrMin= 1.11D-03
 ErrMax= 1.11D-03  0.00D+00 EMaxC= 1.00D-01 BMatC= 2.32D-03 BMatP= 4.16D-03
 IDIUse=3 WtCom= 9.89D-01 WtEn= 1.11D-02
 Coeff-Com: -0.404D-02 0.378D-02-0.395D-01-0.202D-02-0.118D+00 0.517D+00
 Coeff-Com:  0.643D+00
 Coeff-En:   0.000D+00 0.000D+00 0.000D+00 0.000D+00 0.000D+00 0.000D+00
 Coeff-En:   0.100D+01
 Coeff:     -0.400D-02 0.374D-02-0.390D-01-0.200D-02-0.116D+00 0.511D+00
 Coeff:      0.647D+00
 Gap=     0.232 Goal=   None    Shift=    0.000
 Gap=     0.087 Goal=   None    Shift=    0.000
 RMSDP=1.67D-04 MaxDP=1.69D-02 DE=-1.74D-03 OVMax= 3.93D-02

 Cycle   8  Pass 1  IDiag  1:
 RMSU=  8.52D-05    CP:  9.59D-01  2.00D+00  5.42D-01  8.22D-01  1.15D+00
                    CP:  1.60D+00  1.27D+00
 E= -770.381174031117     Delta-E=       -0.001415173913 Rises=F Damp=F
 DIIS: error= 9.84D-04 at cycle   8 NSaved=   8.
 NSaved= 8 IEnMin= 8 EnMin= -770.381174031117     IErMin= 8 ErrMin= 9.84D-04
 ErrMax= 9.84D-04  0.00D+00 EMaxC= 1.00D-01 BMatC= 4.08D-04 BMatP= 2.32D-03
 IDIUse=3 WtCom= 9.90D-01 WtEn= 9.84D-03
 Coeff-Com: -0.110D-02 0.445D-02-0.377D-02-0.364D-02-0.799D-01 0.145D-01
 Coeff-Com:  0.209D+00 0.861D+00
 Coeff-En:   0.000D+00 0.000D+00 0.000D+00 0.000D+00 0.000D+00 0.000D+00
 Coeff-En:   0.000D+00 0.100D+01
 Coeff:     -0.109D-02 0.440D-02-0.373D-02-0.361D-02-0.791D-01 0.144D-01
 Coeff:      0.207D+00 0.862D+00
 Gap=     0.232 Goal=   None    Shift=    0.000
 Gap=     0.089 Goal=   None    Shift=    0.000
 RMSDP=1.50D-04 MaxDP=1.60D-02 DE=-1.42D-03 OVMax= 4.42D-02

 Cycle   9  Pass 1  IDiag  1:
 RMSU=  4.90D-05    CP:  9.58D-01  2.02D+00  5.26D-01  8.31D-01  1.21D+00
                    CP:  1.86D+00  1.84D+00  1.80D+00
 E= -770.382137659243     Delta-E=       -0.000963628126 Rises=F Damp=F
 DIIS: error= 9.14D-04 at cycle   9 NSaved=   9.
 NSaved= 9 IEnMin= 9 EnMin= -770.382137659243     IErMin= 9 ErrMin= 9.14D-04
 ErrMax= 9.14D-04  0.00D+00 EMaxC= 1.00D-01 BMatC= 2.52D-04 BMatP= 4.08D-04
 IDIUse=3 WtCom= 9.91D-01 WtEn= 9.14D-03
 Coeff-Com: -0.936D-03 0.554D-02 0.139D-01 0.106D-01-0.862D-02-0.145D+00
 Coeff-Com: -0.920D-01 0.482D+00 0.735D+00
 Coeff-En:   0.000D+00 0.000D+00 0.000D+00 0.000D+00 0.000D+00 0.000D+00
 Coeff-En:   0.000D+00 0.000D+00 0.100D+01
 Coeff:     -0.928D-03 0.549D-02 0.138D-01 0.105D-01-0.854D-02-0.144D+00
 Coeff:     -0.912D-01 0.477D+00 0.737D+00
 Gap=     0.233 Goal=   None    Shift=    0.000
 Gap=     0.090 Goal=   None    Shift=    0.000
 RMSDP=1.35D-04 MaxDP=1.65D-02 DE=-9.64D-04 OVMax= 4.15D-02

 Cycle  10  Pass 1  IDiag  1:
 RMSU=  2.69D-05    CP:  9.58D-01  2.04D+00  5.12D-01  8.35D-01  1.24D+00
                    CP:  2.07D+00  2.31D+00  2.71D+00  1.71D+00
 E= -770.382955827470     Delta-E=       -0.000818168227 Rises=F Damp=F
 DIIS: error= 8.64D-04 at cycle  10 NSaved=  10.
 NSaved=10 IEnMin=10 EnMin= -770.382955827470     IErMin=10 ErrMin= 8.64D-04
 ErrMax= 8.64D-04  0.00D+00 EMaxC= 1.00D-01 BMatC= 1.71D-04 BMatP= 2.52D-04
 IDIUse=3 WtCom= 9.91D-01 WtEn= 8.64D-03
 Coeff-Com: -0.515D-03 0.679D-03 0.125D-01 0.357D-01 0.875D-01-0.152D-01
 Coeff-Com: -0.174D+00-0.777D+00-0.263D+00 0.209D+01
 Coeff-En:   0.000D+00 0.000D+00 0.000D+00 0.000D+00 0.000D+00 0.000D+00
 Coeff-En:   0.000D+00 0.000D+00 0.000D+00 0.100D+01
 Coeff:     -0.510D-03 0.673D-03 0.124D-01 0.354D-01 0.868D-01-0.151D-01
 Coeff:     -0.172D+00-0.770D+00-0.261D+00 0.208D+01
 Gap=     0.233 Goal=   None    Shift=    0.000
 Gap=     0.091 Goal=   None    Shift=    0.000
 RMSDP=3.32D-04 MaxDP=4.54D-02 DE=-8.18D-04 OVMax= 9.07D-02

 Cycle  11  Pass 1  IDiag  1:
 RMSU=  2.00D-04    CP:  9.57D-01  2.08D+00  4.73D-01  8.35D-01  1.28D+00
                    CP:  2.45D+00  3.00D+00  3.00D+00  3.00D+00  3.00D+00
 E= -770.384689539045     Delta-E=       -0.001733711575 Rises=F Damp=F
 DIIS: error= 6.90D-04 at cycle  11 NSaved=  11.
 NSaved=11 IEnMin=11 EnMin= -770.384689539045     IErMin=11 ErrMin= 6.90D-04
 ErrMax= 6.90D-04  0.00D+00 EMaxC= 1.00D-01 BMatC= 1.27D-04 BMatP= 1.71D-04
 IDIUse=3 WtCom= 9.93D-01 WtEn= 6.90D-03
 Coeff-Com: -0.234D-02 0.228D-02 0.123D-02 0.291D-01 0.405D-01 0.112D+00
 Coeff-Com:  0.259D-01-0.657D+00-0.726D+00 0.108D+01 0.109D+01
 Coeff-En:   0.000D+00 0.000D+00 0.000D+00 0.000D+00 0.000D+00 0.000D+00
 Coeff-En:   0.000D+00 0.000D+00 0.000D+00 0.000D+00 0.100D+01
 Coeff:     -0.233D-02 0.227D-02 0.122D-02 0.289D-01 0.402D-01 0.111D+00
 Coeff:      0.257D-01-0.653D+00-0.721D+00 0.107D+01 0.109D+01
 Gap=     0.234 Goal=   None    Shift=    0.000
 Gap=     0.095 Goal=   None    Shift=    0.000
 RMSDP=2.54D-04 MaxDP=3.71D-02 DE=-1.73D-03 OVMax= 6.43D-02

 Cycle  12  Pass 1  IDiag  1:
 RMSU=  9.29D-05    CP:  9.56D-01  2.12D+00  4.38D-01  8.26D-01  1.26D+00
                    CP:  2.65D+00  3.00D+00  3.00D+00  3.00D+00  3.00D+00
                    CP:  2.05D+00
 E= -770.385702897870     Delta-E=       -0.001013358825 Rises=F Damp=F
 DIIS: error= 5.11D-04 at cycle  12 NSaved=  12.
 NSaved=12 IEnMin=12 EnMin= -770.385702897870     IErMin=12 ErrMin= 5.11D-04
 ErrMax= 5.11D-04  0.00D+00 EMaxC= 1.00D-01 BMatC= 1.01D-04 BMatP= 1.27D-04
 IDIUse=3 WtCom= 9.95D-01 WtEn= 5.11D-03
 Coeff-Com: -0.321D-02 0.501D-02-0.225D-02 0.133D-01-0.220D-01 0.929D-01
 Coeff-Com:  0.113D+00-0.500D-01-0.311D+00-0.143D+00 0.564D+00 0.742D+00
 Coeff-En:   0.000D+00 0.000D+00 0.000D+00 0.000D+00 0.000D+00 0.000D+00
 Coeff-En:   0.000D+00 0.000D+00 0.000D+00 0.000D+00 0.000D+00 0.100D+01
 Coeff:     -0.319D-02 0.499D-02-0.224D-02 0.132D-01-0.219D-01 0.925D-01
 Coeff:      0.113D+00-0.497D-01-0.309D+00-0.142D+00 0.562D+00 0.743D+00
 Gap=     0.234 Goal=   None    Shift=    0.000
 Gap=     0.093 Goal=   None    Shift=    0.000
 RMSDP=8.21D-05 MaxDP=1.17D-02 DE=-1.01D-03 OVMax= 2.10D-02

 Cycle  13  Pass 1  IDiag  1:
 RMSU=  2.25D-05    CP:  9.56D-01  2.14D+00  4.26D-01  8.25D-01  1.23D+00
                    CP:  2.70D+00  3.00D+00  3.00D+00  3.00D+00  3.00D+00
                    CP:  2.36D+00  1.34D+00
 E= -770.385977518306     Delta-E=       -0.000274620436 Rises=F Damp=F
 DIIS: error= 4.35D-04 at cycle  13 NSaved=  13.
 NSaved=13 IEnMin=13 EnMin= -770.385977518306     IErMin=13 ErrMin= 4.35D-04
 ErrMax= 4.35D-04  0.00D+00 EMaxC= 1.00D-01 BMatC= 5.58D-05 BMatP= 1.01D-04
 IDIUse=3 WtCom= 9.96D-01 WtEn= 4.35D-03
 Coeff-Com:  0.131D-03 0.566D-03 0.497D-03 0.246D-02-0.176D-01-0.113D-01
 Coeff-Com:  0.203D-01 0.180D+00 0.710D-01-0.480D+00-0.703D+00 0.229D+00
 Coeff-Com:  0.171D+01
 Coeff-En:   0.000D+00 0.000D+00 0.000D+00 0.000D+00 0.000D+00 0.000D+00
 Coeff-En:   0.000D+00 0.000D+00 0.000D+00 0.000D+00 0.000D+00 0.000D+00
 Coeff-En:   0.100D+01
 Coeff:      0.130D-03 0.563D-03 0.495D-03 0.245D-02-0.175D-01-0.112D-01
 Coeff:      0.202D-01 0.179D+00 0.707D-01-0.478D+00-0.700D+00 0.228D+00
 Coeff:      0.170D+01
 Gap=     0.234 Goal=   None    Shift=    0.000
 Gap=     0.096 Goal=   None    Shift=    0.000
 RMSDP=3.26D-04 MaxDP=4.63D-02 DE=-2.75D-04 OVMax= 9.38D-02

 Cycle  14  Pass 1  IDiag  1:
 RMSU=  1.42D-04    CP:  9.54D-01  2.19D+00  3.75D-01  8.00D-01  1.15D+00
                    CP:  2.82D+00  3.00D+00  3.00D+00  3.00D+00  3.00D+00
                    CP:  3.00D+00  2.73D+00  1.89D+00
 E= -770.386638991074     Delta-E=       -0.000661472767 Rises=F Damp=F
 DIIS: error= 3.63D-04 at cycle  14 NSaved=  14.
 NSaved=14 IEnMin=14 EnMin= -770.386638991074     IErMin=14 ErrMin= 3.63D-04
 ErrMax= 3.63D-04  0.00D+00 EMaxC= 1.00D-01 BMatC= 9.78D-05 BMatP= 5.58D-05
 IDIUse=3 WtCom= 9.96D-01 WtEn= 4.35D-03
 Coeff-Com:  0.184D-02-0.196D-02 0.486D-02-0.771D-03-0.930D-03-0.879D-01
 Coeff-Com: -0.879D-01 0.215D+00 0.472D+00-0.140D+00-0.130D+01-0.403D+00
 Coeff-Com:  0.173D+01 0.597D+00
 Coeff-En:   0.000D+00 0.000D+00 0.000D+00 0.000D+00 0.000D+00 0.000D+00
 Coeff-En:   0.000D+00 0.000D+00 0.000D+00 0.000D+00 0.000D+00 0.000D+00
 Coeff-En:   0.000D+00 0.100D+01
 Coeff:      0.183D-02-0.195D-02 0.484D-02-0.767D-03-0.925D-03-0.875D-01
 Coeff:     -0.875D-01 0.214D+00 0.470D+00-0.139D+00-0.129D+01-0.401D+00
 Coeff:      0.172D+01 0.599D+00
 Gap=     0.233 Goal=   None    Shift=    0.000
 Gap=     0.095 Goal=   None    Shift=    0.000
 RMSDP=7.67D-05 MaxDP=9.14D-03 DE=-6.61D-04 OVMax= 2.15D-02

 Cycle  15  Pass 1  IDiag  1:
 RMSU=  2.29D-05    CP:  9.54D-01  2.20D+00  3.64D-01  7.97D-01  1.11D+00
                    CP:  2.83D+00  3.00D+00  3.00D+00  3.00D+00  3.00D+00
                    CP:  3.00D+00  3.00D+00  3.00D+00  1.34D+00
 E= -770.386743805972     Delta-E=       -0.000104814898 Rises=F Damp=F
 DIIS: error= 1.13D-04 at cycle  15 NSaved=  15.
 NSaved=15 IEnMin=15 EnMin= -770.386743805972     IErMin=15 ErrMin= 1.13D-04
 ErrMax= 1.13D-04  0.00D+00 EMaxC= 1.00D-01 BMatC= 5.93D-06 BMatP= 5.58D-05
 IDIUse=3 WtCom= 9.99D-01 WtEn= 1.13D-03
 Coeff-Com:  0.907D-03-0.142D-02 0.170D-02 0.551D-03 0.719D-02-0.174D-01
 Coeff-Com: -0.228D-01-0.291D-01 0.724D-01 0.122D+00-0.330D+00-0.320D+00
 Coeff-Com:  0.437D+00 0.113D+00 0.965D+00
 Coeff-En:   0.000D+00 0.000D+00 0.000D+00 0.000D+00 0.000D+00 0.000D+00
 Coeff-En:   0.000D+00 0.000D+00 0.000D+00 0.000D+00 0.000D+00 0.000D+00
 Coeff-En:   0.000D+00 0.000D+00 0.100D+01
 Coeff:      0.906D-03-0.141D-02 0.169D-02 0.550D-03 0.718D-02-0.174D-01
 Coeff:     -0.227D-01-0.291D-01 0.723D-01 0.122D+00-0.329D+00-0.320D+00
 Coeff:      0.437D+00 0.113D+00 0.965D+00
 Gap=     0.233 Goal=   None    Shift=    0.000
 Gap=     0.095 Goal=   None    Shift=    0.000
 RMSDP=8.27D-05 MaxDP=1.06D-02 DE=-1.05D-04 OVMax= 2.27D-02

 Cycle  16  Pass 1  IDiag  1:
 RMSU=  3.30D-05    CP:  9.54D-01  2.21D+00  3.51D-01  7.88D-01  1.08D+00
                    CP:  2.83D+00  3.00D+00  3.00D+00  3.00D+00  3.00D+00
                    CP:  3.00D+00  3.00D+00  3.00D+00  1.78D+00  1.62D+00
 E= -770.386787529727     Delta-E=       -0.000043723755 Rises=F Damp=F
 DIIS: error= 1.01D-04 at cycle  16 NSaved=  16.
 NSaved=16 IEnMin=16 EnMin= -770.386787529727     IErMin=16 ErrMin= 1.01D-04
 ErrMax= 1.01D-04  0.00D+00 EMaxC= 1.00D-01 BMatC= 6.47D-06 BMatP= 5.93D-06
 IDIUse=3 WtCom= 9.99D-01 WtEn= 1.01D-03
 Coeff-Com:  0.129D-03-0.437D-03 0.560D-04 0.599D-03 0.501D-02 0.105D-01
 Coeff-Com:  0.586D-02-0.873D-01-0.567D-01 0.166D+00 0.111D+00-0.144D+00
 Coeff-Com: -0.179D+00-0.181D+00 0.693D+00 0.657D+00
 Coeff-En:   0.000D+00 0.000D+00 0.000D+00 0.000D+00 0.000D+00 0.000D+00
 Coeff-En:   0.000D+00 0.000D+00 0.000D+00 0.000D+00 0.000D+00 0.000D+00
 Coeff-En:   0.000D+00 0.000D+00 0.000D+00 0.100D+01
 Coeff:      0.129D-03-0.436D-03 0.559D-04 0.598D-03 0.500D-02 0.105D-01
 Coeff:      0.585D-02-0.872D-01-0.566D-01 0.166D+00 0.111D+00-0.144D+00
 Coeff:     -0.179D+00-0.180D+00 0.692D+00 0.657D+00
 Gap=     0.233 Goal=   None    Shift=    0.000
 Gap=     0.094 Goal=   None    Shift=    0.000
 RMSDP=2.36D-05 MaxDP=2.53D-03 DE=-4.37D-05 OVMax= 6.39D-03

 Cycle  17  Pass 1  IDiag  1:
 RMSU=  6.32D-06    CP:  9.54D-01  2.22D+00  3.48D-01  7.86D-01  1.06D+00
                    CP:  2.82D+00  3.00D+00  3.00D+00  3.00D+00  3.00D+00
                    CP:  3.00D+00  3.00D+00  3.00D+00  1.89D+00  2.00D+00
                    CP:  1.28D+00
 E= -770.386795254127     Delta-E=       -0.000007724401 Rises=F Damp=F
 DIIS: error= 2.67D-05 at cycle  17 NSaved=  17.
 NSaved=17 IEnMin=17 EnMin= -770.386795254127     IErMin=17 ErrMin= 2.67D-05
 ErrMax= 2.67D-05  0.00D+00 EMaxC= 1.00D-01 BMatC= 3.45D-07 BMatP= 5.93D-06
 IDIUse=1 WtCom= 1.00D+00 WtEn= 0.00D+00
 Coeff-Com: -0.138D-03 0.125D-03-0.303D-03 0.497D-03 0.857D-03 0.712D-02
 Coeff-Com:  0.747D-02-0.275D-01-0.409D-01 0.325D-01 0.889D-01-0.829D-02
 Coeff-Com: -0.115D+00-0.964D-01 0.292D-01 0.225D+00 0.897D+00
 Coeff:     -0.138D-03 0.125D-03-0.303D-03 0.497D-03 0.857D-03 0.712D-02
 Coeff:      0.747D-02-0.275D-01-0.409D-01 0.325D-01 0.889D-01-0.829D-02
 Coeff:     -0.115D+00-0.964D-01 0.292D-01 0.225D+00 0.897D+00
 Gap=     0.233 Goal=   None    Shift=    0.000
 Gap=     0.094 Goal=   None    Shift=    0.000
 RMSDP=2.56D-05 MaxDP=3.15D-03 DE=-7.72D-06 OVMax= 6.88D-03

 Cycle  18  Pass 1  IDiag  1:
 RMSU=  1.58D-06    CP:  9.54D-01  2.22D+00  3.44D-01  7.83D-01  1.05D+00
                    CP:  2.82D+00  3.00D+00  3.00D+00  3.00D+00  3.00D+00
                    CP:  3.00D+00  3.00D+00  3.00D+00  2.02D+00  2.18D+00
                    CP:  1.59D+00  1.13D+00
 E= -770.386797825815     Delta-E=       -0.000002571688 Rises=F Damp=F
 DIIS: error= 1.65D-05 at cycle  18 NSaved=  18.
 NSaved=18 IEnMin=18 EnMin= -770.386797825815     IErMin=18 ErrMin= 1.65D-05
 ErrMax= 1.65D-05  0.00D+00 EMaxC= 1.00D-01 BMatC= 1.92D-07 BMatP= 3.45D-07
 IDIUse=1 WtCom= 1.00D+00 WtEn= 0.00D+00
 Coeff-Com: -0.952D-04 0.114D-03-0.116D-03 0.292D-03 0.249D-03 0.220D-02
 Coeff-Com:  0.182D-02-0.899D-02-0.127D-01 0.119D-01 0.330D-01 0.129D-02
 Coeff-Com: -0.433D-01-0.445D-01-0.314D-01 0.329D-01 0.455D+00 0.602D+00
 Coeff:     -0.952D-04 0.114D-03-0.116D-03 0.292D-03 0.249D-03 0.220D-02
 Coeff:      0.182D-02-0.899D-02-0.127D-01 0.119D-01 0.330D-01 0.129D-02
 Coeff:     -0.433D-01-0.445D-01-0.314D-01 0.329D-01 0.455D+00 0.602D+00
 Gap=     0.233 Goal=   None    Shift=    0.000
 Gap=     0.094 Goal=   None    Shift=    0.000
 RMSDP=2.52D-06 MaxDP=2.93D-04 DE=-2.57D-06 OVMax= 6.70D-04

 Cycle  19  Pass 1  IDiag  1:
 RMSU=  4.38D-07    CP:  9.54D-01  2.22D+00  3.43D-01  7.83D-01  1.05D+00
                    CP:  2.82D+00  3.00D+00  3.00D+00  3.00D+00  3.00D+00
                    CP:  3.00D+00  3.00D+00  3.00D+00  2.03D+00  2.22D+00
                    CP:  1.61D+00  1.28D+00  9.49D-01
 E= -770.386797946603     Delta-E=       -0.000000120788 Rises=F Damp=F
 DIIS: error= 2.29D-06 at cycle  19 NSaved=  19.
 NSaved=19 IEnMin=19 EnMin= -770.386797946603     IErMin=19 ErrMin= 2.29D-06
 ErrMax= 2.29D-06  0.00D+00 EMaxC= 1.00D-01 BMatC= 1.08D-08 BMatP= 1.92D-07
 IDIUse=1 WtCom= 1.00D+00 WtEn= 0.00D+00
 Coeff-Com:  0.385D-05 0.667D-06 0.402D-04 0.636D-04 0.490D-04-0.103D-02
 Coeff-Com: -0.130D-02 0.256D-02 0.440D-02-0.170D-02-0.107D-01-0.159D-02
 Coeff-Com:  0.156D-01 0.565D-02-0.172D-01-0.545D-01-0.278D-01 0.263D+00
 Coeff-Com:  0.824D+00
 Coeff:      0.385D-05 0.667D-06 0.402D-04 0.636D-04 0.490D-04-0.103D-02
 Coeff:     -0.130D-02 0.256D-02 0.440D-02-0.170D-02-0.107D-01-0.159D-02
 Coeff:      0.156D-01 0.565D-02-0.172D-01-0.545D-01-0.278D-01 0.263D+00
 Coeff:      0.824D+00
 Gap=     0.233 Goal=   None    Shift=    0.000
 Gap=     0.094 Goal=   None    Shift=    0.000
 RMSDP=2.21D-06 MaxDP=2.62D-04 DE=-1.21D-07 OVMax= 6.07D-04

 Cycle  20  Pass 1  IDiag  1:
 RMSU=  2.08D-07    CP:  9.54D-01  2.22D+00  3.43D-01  7.83D-01  1.05D+00
                    CP:  2.82D+00  3.00D+00  3.00D+00  3.00D+00  3.00D+00
                    CP:  3.00D+00  3.00D+00  3.00D+00  2.04D+00  2.25D+00
                    CP:  1.64D+00  1.33D+00  1.04D+00  9.98D-01
 E= -770.386797968015     Delta-E=       -0.000000021411 Rises=F Damp=F
 DIIS: error= 1.12D-06 at cycle  20 NSaved=  20.
 NSaved=20 IEnMin=20 EnMin= -770.386797968015     IErMin=20 ErrMin= 1.12D-06
 ErrMax= 1.12D-06  0.00D+00 EMaxC= 1.00D-01 BMatC= 2.97D-09 BMatP= 1.08D-08
 IDIUse=1 WtCom= 1.00D+00 WtEn= 0.00D+00
 Coeff-Com:  0.131D-04-0.143D-04 0.226D-04-0.613D-05-0.219D-04-0.504D-03
 Coeff-Com: -0.387D-03 0.219D-02 0.220D-02-0.271D-02-0.759D-02-0.819D-03
 Coeff-Com:  0.122D-01 0.811D-02-0.493D-02-0.274D-01-0.628D-01 0.393D-01
 Coeff-Com:  0.401D+00 0.643D+00
 Coeff:      0.131D-04-0.143D-04 0.226D-04-0.613D-05-0.219D-04-0.504D-03
 Coeff:     -0.387D-03 0.219D-02 0.220D-02-0.271D-02-0.759D-02-0.819D-03
 Coeff:      0.122D-01 0.811D-02-0.493D-02-0.274D-01-0.628D-01 0.393D-01
 Coeff:      0.401D+00 0.643D+00
 Gap=     0.233 Goal=   None    Shift=    0.000
 Gap=     0.094 Goal=   None    Shift=    0.000
 RMSDP=4.15D-07 MaxDP=5.20D-05 DE=-2.14D-08 OVMax= 1.07D-04

 Cycle  21  Pass 1  IDiag  1:
 Restarting incremental Fock formation.
 E= -770.386797969270     Delta-E=       -0.000000001256 Rises=F Damp=F
 DIIS: error= 5.90D-07 at cycle  21 NSaved=  20.
 NSaved=20 IEnMin=20 EnMin= -770.386797969270     IErMin=20 ErrMin= 5.90D-07
 ErrMax= 5.90D-07  0.00D+00 EMaxC= 1.00D-01 BMatC= 4.77D-10 BMatP= 2.97D-09
 IDIUse=1 WtCom= 1.00D+00 WtEn= 0.00D+00
 Coeff-Com:  0.214D-05-0.618D-06-0.188D-04-0.527D-04 0.852D-04 0.243D-03
 Coeff-Com:  0.554D-03-0.211D-03-0.110D-02-0.730D-04 0.769D-03 0.101D-02
 Coeff-Com:  0.164D-02-0.112D-02-0.887D-03-0.154D-01-0.342D-01-0.121D-01
 Coeff-Com:  0.254D+00 0.807D+00
 Coeff:      0.214D-05-0.618D-06-0.188D-04-0.527D-04 0.852D-04 0.243D-03
 Coeff:      0.554D-03-0.211D-03-0.110D-02-0.730D-04 0.769D-03 0.101D-02
 Coeff:      0.164D-02-0.112D-02-0.887D-03-0.154D-01-0.342D-01-0.121D-01
 Coeff:      0.254D+00 0.807D+00
 Gap=     0.233 Goal=   None    Shift=    0.000
 Gap=     0.094 Goal=   None    Shift=    0.000
 RMSDP=1.33D-07 MaxDP=1.19D-05 DE=-1.26D-09 OVMax= 2.22D-05

 Cycle  22  Pass 1  IDiag  1:
 RMSU=  1.33D-07    CP:  1.00D+00
 E= -770.386797969615     Delta-E=       -0.000000000344 Rises=F Damp=F
 DIIS: error= 5.03D-07 at cycle  22 NSaved=  20.
 NSaved=20 IEnMin=20 EnMin= -770.386797969615     IErMin=20 ErrMin= 5.03D-07
 ErrMax= 5.03D-07  0.00D+00 EMaxC= 1.00D-01 BMatC= 2.17D-10 BMatP= 4.77D-10
 IDIUse=1 WtCom= 1.00D+00 WtEn= 0.00D+00
 Coeff-Com: -0.142D-05-0.785D-06 0.528D-05 0.525D-04 0.343D-04-0.372D-03
 Coeff-Com: -0.361D-03 0.446D-03 0.111D-02-0.301D-04-0.194D-02-0.716D-03
 Coeff-Com:  0.118D-02 0.766D-02 0.105D-01-0.102D-01-0.107D+00-0.129D+00
 Coeff-Com:  0.179D+00 0.105D+01
 Coeff:     -0.142D-05-0.785D-06 0.528D-05 0.525D-04 0.343D-04-0.372D-03
 Coeff:     -0.361D-03 0.446D-03 0.111D-02-0.301D-04-0.194D-02-0.716D-03
 Coeff:      0.118D-02 0.766D-02 0.105D-01-0.102D-01-0.107D+00-0.129D+00
 Coeff:      0.179D+00 0.105D+01
 Gap=     0.233 Goal=   None    Shift=    0.000
 Gap=     0.094 Goal=   None    Shift=    0.000
 RMSDP=8.23D-08 MaxDP=4.83D-06 DE=-3.44D-10 OVMax= 1.60D-05

 Cycle  23  Pass 1  IDiag  1:
 RMSU=  7.74D-08    CP:  1.00D+00  7.89D-01
 E= -770.386797969792     Delta-E=       -0.000000000177 Rises=F Damp=F
 DIIS: error= 2.58D-07 at cycle  23 NSaved=  20.
 NSaved=20 IEnMin=20 EnMin= -770.386797969792     IErMin=20 ErrMin= 2.58D-07
 ErrMax= 2.58D-07  0.00D+00 EMaxC= 1.00D-01 BMatC= 8.57D-11 BMatP= 2.17D-10
 IDIUse=1 WtCom= 1.00D+00 WtEn= 0.00D+00
 Coeff-Com:  0.241D-05 0.126D-04-0.435D-05-0.672D-04-0.298D-03-0.107D-04
 Coeff-Com:  0.519D-03 0.534D-03-0.692D-04-0.124D-02-0.777D-03 0.907D-03
 Coeff-Com:  0.357D-02 0.688D-02-0.125D-02-0.565D-01-0.121D+00-0.663D-01
 Coeff-Com:  0.555D+00 0.680D+00
 Coeff:      0.241D-05 0.126D-04-0.435D-05-0.672D-04-0.298D-03-0.107D-04
 Coeff:      0.519D-03 0.534D-03-0.692D-04-0.124D-02-0.777D-03 0.907D-03
 Coeff:      0.357D-02 0.688D-02-0.125D-02-0.565D-01-0.121D+00-0.663D-01
 Coeff:      0.555D+00 0.680D+00
 Gap=     0.233 Goal=   None    Shift=    0.000
 Gap=     0.094 Goal=   None    Shift=    0.000
 RMSDP=5.17D-08 MaxDP=5.49D-06 DE=-1.77D-10 OVMax= 9.98D-06

 Cycle  24  Pass 1  IDiag  1:
 RMSU=  2.18D-08    CP:  1.00D+00  1.14D+00  1.06D+00
 E= -770.386797969855     Delta-E=       -0.000000000064 Rises=F Damp=F
 DIIS: error= 1.05D-07 at cycle  24 NSaved=  20.
 NSaved=20 IEnMin=20 EnMin= -770.386797969855     IErMin=20 ErrMin= 1.05D-07
 ErrMax= 1.05D-07  0.00D+00 EMaxC= 1.00D-01 BMatC= 1.02D-11 BMatP= 8.57D-11
 IDIUse=1 WtCom= 1.00D+00 WtEn= 0.00D+00
 Coeff-Com:  0.324D-05-0.149D-04-0.248D-04 0.541D-05 0.832D-04 0.142D-05
 Coeff-Com: -0.156D-03-0.228D-04 0.254D-03-0.126D-03 0.210D-03-0.145D-02
 Coeff-Com: -0.753D-03 0.229D-02 0.200D-01 0.473D-02-0.104D+00-0.207D+00
 Coeff-Com:  0.241D+00 0.104D+01
 Coeff:      0.324D-05-0.149D-04-0.248D-04 0.541D-05 0.832D-04 0.142D-05
 Coeff:     -0.156D-03-0.228D-04 0.254D-03-0.126D-03 0.210D-03-0.145D-02
 Coeff:     -0.753D-03 0.229D-02 0.200D-01 0.473D-02-0.104D+00-0.207D+00
 Coeff:      0.241D+00 0.104D+01
 Gap=     0.233 Goal=   None    Shift=    0.000
 Gap=     0.094 Goal=   None    Shift=    0.000
 RMSDP=2.80D-08 MaxDP=2.31D-06 DE=-6.39D-11 OVMax= 5.52D-06

 Cycle  25  Pass 1  IDiag  1:
 RMSU=  9.25D-09    CP:  1.00D+00  1.28D+00  1.26D+00  1.48D+00
 E= -770.386797969872     Delta-E=       -0.000000000017 Rises=F Damp=F
 DIIS: error= 3.44D-08 at cycle  25 NSaved=  20.
 NSaved=20 IEnMin=20 EnMin= -770.386797969872     IErMin=20 ErrMin= 3.44D-08
 ErrMax= 3.44D-08  0.00D+00 EMaxC= 1.00D-01 BMatC= 2.54D-12 BMatP= 1.02D-11
 IDIUse=1 WtCom= 1.00D+00 WtEn= 0.00D+00
 Coeff-Com: -0.573D-05 0.188D-05 0.693D-04 0.463D-04-0.119D-03-0.280D-03
 Coeff-Com: -0.187D-04 0.538D-03 0.167D-03-0.124D-03-0.161D-02-0.192D-02
 Coeff-Com:  0.177D-02 0.242D-01 0.298D-01-0.370D-01-0.211D+00-0.503D-01
 Coeff-Com:  0.451D+00 0.795D+00
 Coeff:     -0.573D-05 0.188D-05 0.693D-04 0.463D-04-0.119D-03-0.280D-03
 Coeff:     -0.187D-04 0.538D-03 0.167D-03-0.124D-03-0.161D-02-0.192D-02
 Coeff:      0.177D-02 0.242D-01 0.298D-01-0.370D-01-0.211D+00-0.503D-01
 Coeff:      0.451D+00 0.795D+00
 Gap=     0.233 Goal=   None    Shift=    0.000
 Gap=     0.094 Goal=   None    Shift=    0.000
 RMSDP=9.86D-09 MaxDP=8.21D-07 DE=-1.66D-11 OVMax= 1.72D-06

 Error on total polarization charges =  0.00983
 SCF Done:  E(UB3LYP) =  -770.386797970     A.U. after   25 cycles
            NFock= 25  Conv=0.99D-08     -V/T= 2.0094
 <Sx>= 0.0000 <Sy>= 0.0000 <Sz>= 0.5000 <S**2>= 0.7535 S= 0.5017
 <L.S>=  0.00000000000    
 KE= 7.632334890403D+02 PE=-4.453541191110D+03 EE= 1.588281939149D+03
 Annihilation of the first spin contaminant:
 S**2 before annihilation     0.7535,   after     0.7500
 Leave Link  502 at Sat May 25 04:17:20 2019, MaxMem=   104857600 cpu:            1970.1 elap:              62.4
 (Enter /opt/software/gaussian/g16.b01/l801.exe)
 DoSCS=F DFT=T ScalE2(SS,OS)=  1.000000  1.000000
 ExpMin= 1.61D-01 ExpMax= 5.48D+03 ExpMxC= 8.25D+02 IAcc=3 IRadAn=         5 AccDes= 0.00D+00
 HarFok:  IExCor=  205 AccDes= 0.00D+00 IRadAn=         5 IDoV=-2 UseB2=F ITyADJ=14
 ICtDFT= 12500011 ScaDFX=  1.000000  1.000000  1.000000  1.000000
 Largest valence mixing into a core orbital is  5.89D-05
 Largest core mixing into a valence orbital is  1.20D-05
 Largest valence mixing into a core orbital is  5.94D-05
 Largest core mixing into a valence orbital is  1.21D-05
 Range of M.O.s used for correlation:    19   355
 NBasis=   355 NAE=    65 NBE=    64 NFC=    18 NFV=     0
 NROrb=    337 NOA=    47 NOB=    46 NVA=   290 NVB=   291

 **** Warning!!: The smallest beta delta epsilon is  0.94091187D-01

 Leave Link  801 at Sat May 25 04:17:20 2019, MaxMem=   104857600 cpu:               5.1 elap:               0.2
 (Enter /opt/software/gaussian/g16.b01/l914.exe)
 UHF ground state
 Ignoring spin specification with unrestricted ground state.
 Two-electron integrals replicated using symmetry.
 MDV=   104857600 DFT=T DoStab=F Mixed=T DoRPA=T DoScal=F NonHer=T
 NEqPCM:  Using non-equilibrium solvation (IEInf=1, Eps=  35.6880, EpsInf=   1.8069)
 Inv3:  Mode=1 IEnd=    16808067.
 Iteration    1 A*A^-1 deviation from unit magnitude is 3.55D-15 for   1404.
 Iteration    1 A*A^-1 deviation from orthogonality  is 2.19D-15 for   1830    820.
 Iteration    1 A^-1*A deviation from unit magnitude is 3.44D-15 for   1144.
 Iteration    1 A^-1*A deviation from orthogonality  is 1.78D-15 for   2247    609.
 Making orbital integer symmetry assigments:
 Orbital symmetries:
 Alpha Orbitals:
       Occupied  (A) (A) (A) (A) (A) (A) (A) (A) (A) (A) (A) (A)
                 (A) (A) (A) (A) (A) (A) (A) (A) (A) (A) (A) (A)
                 (A) (A) (A) (A) (A) (A) (A) (A) (A) (A) (A) (A)
                 (A) (A) (A) (A) (A) (A) (A) (A) (A) (A) (A) (A)
                 (A) (A) (A) (A) (A) (A) (A) (A) (A) (A) (A) (A)
                 (A) (A) (A) (A) (A)
       Virtual   (A) (A) (A) (A) (A) (A) (A) (A) (A) (A) (A) (A)
                 (A) (A) (A) (A) (A) (A) (A) (A) (A) (A) (A) (A)
                 (A) (A) (A) (A) (A) (A) (A) (A) (A) (A) (A) (A)
                 (A) (A) (A) (A) (A) (A) (A) (A) (A) (A) (A) (A)
                 (A) (A) (A) (A) (A) (A) (A) (A) (A) (A) (A) (A)
                 (A) (A) (A) (A) (A) (A) (A) (A) (A) (A) (A) (A)
                 (A) (A) (A) (A) (A) (A) (A) (A) (A) (A) (A) (A)
                 (A) (A) (A) (A) (A) (A) (A) (A) (A) (A) (A) (A)
                 (A) (A) (A) (A) (A) (A) (A) (A) (A) (A) (A) (A)
                 (A) (A) (A) (A) (A) (A) (A) (A) (A) (A) (A) (A)
                 (A) (A) (A) (A) (A) (A) (A) (A) (A) (A) (A) (A)
                 (A) (A) (A) (A) (A) (A) (A) (A) (A) (A) (A) (A)
                 (A) (A) (A) (A) (A) (A) (A) (A) (A) (A) (A) (A)
                 (A) (A) (A) (A) (A) (A) (A) (A) (A) (A) (A) (A)
                 (A) (A) (A) (A) (A) (A) (A) (A) (A) (A) (A) (A)
                 (A) (A) (A) (A) (A) (A) (A) (A) (A) (A) (A) (A)
                 (A) (A) (A) (A) (A) (A) (A) (A) (A) (A) (A) (A)
                 (A) (A) (A) (A) (A) (A) (A) (A) (A) (A) (A) (A)
                 (A) (A) (A) (A) (A) (A) (A) (A) (A) (A) (A) (A)
                 (A) (A) (A) (A) (A) (A) (A) (A) (A) (A) (A) (A)
                 (A) (A) (A) (A) (A) (A) (A) (A) (A) (A) (A) (A)
                 (A) (A) (A) (A) (A) (A) (A) (A) (A) (A) (A) (A)
                 (A) (A) (A) (A) (A) (A) (A) (A) (A) (A) (A) (A)
                 (A) (A) (A) (A) (A) (A) (A) (A) (A) (A) (A) (A)
                 (A) (A)
 Beta  Orbitals:
       Occupied  (A) (A) (A) (A) (A) (A) (A) (A) (A) (A) (A) (A)
                 (A) (A) (A) (A) (A) (A) (A) (A) (A) (A) (A) (A)
                 (A) (A) (A) (A) (A) (A) (A) (A) (A) (A) (A) (A)
                 (A) (A) (A) (A) (A) (A) (A) (A) (A) (A) (A) (A)
                 (A) (A) (A) (A) (A) (A) (A) (A) (A) (A) (A) (A)
                 (A) (A) (A) (A)
       Virtual   (A) (A) (A) (A) (A) (A) (A) (A) (A) (A) (A) (A)
                 (A) (A) (A) (A) (A) (A) (A) (A) (A) (A) (A) (A)
                 (A) (A) (A) (A) (A) (A) (A) (A) (A) (A) (A) (A)
                 (A) (A) (A) (A) (A) (A) (A) (A) (A) (A) (A) (A)
                 (A) (A) (A) (A) (A) (A) (A) (A) (A) (A) (A) (A)
                 (A) (A) (A) (A) (A) (A) (A) (A) (A) (A) (A) (A)
                 (A) (A) (A) (A) (A) (A) (A) (A) (A) (A) (A) (A)
                 (A) (A) (A) (A) (A) (A) (A) (A) (A) (A) (A) (A)
                 (A) (A) (A) (A) (A) (A) (A) (A) (A) (A) (A) (A)
                 (A) (A) (A) (A) (A) (A) (A) (A) (A) (A) (A) (A)
                 (A) (A) (A) (A) (A) (A) (A) (A) (A) (A) (A) (A)
                 (A) (A) (A) (A) (A) (A) (A) (A) (A) (A) (A) (A)
                 (A) (A) (A) (A) (A) (A) (A) (A) (A) (A) (A) (A)
                 (A) (A) (A) (A) (A) (A) (A) (A) (A) (A) (A) (A)
                 (A) (A) (A) (A) (A) (A) (A) (A) (A) (A) (A) (A)
                 (A) (A) (A) (A) (A) (A) (A) (A) (A) (A) (A) (A)
                 (A) (A) (A) (A) (A) (A) (A) (A) (A) (A) (A) (A)
                 (A) (A) (A) (A) (A) (A) (A) (A) (A) (A) (A) (A)
                 (A) (A) (A) (A) (A) (A) (A) (A) (A) (A) (A) (A)
                 (A) (A) (A) (A) (A) (A) (A) (A) (A) (A) (A) (A)
                 (A) (A) (A) (A) (A) (A) (A) (A) (A) (A) (A) (A)
                 (A) (A) (A) (A) (A) (A) (A) (A) (A) (A) (A) (A)
                 (A) (A) (A) (A) (A) (A) (A) (A) (A) (A) (A) (A)
                 (A) (A) (A) (A) (A) (A) (A) (A) (A) (A) (A) (A)
                 (A) (A) (A)
   144 initial guesses have been made.
 Convergence on wavefunction:    0.001000000000000
 Davidson Disk Diagonalization:  ConvIn= 1.00D-03 SkipCon=T Conv= 1.00D-03.
 Max sub-space:  2160 roots to seek:   144 dimension of matrix:        27016
 Iteration     1 Dimension   144 NMult     0 NNew    144
 CISAX will form     3 AO SS matrices at one time.
 NMat=     3 NSing=     3 JSym2X= 0.
 FoFJK:  IHMeth= 1 ICntrl=       0 DoSepK=F KAlg= 0 I1Cent=           0 FoldK=F
 IRaf= 840000000 NMat=       6 IRICut=       1 DoRegI=T DoRafI=F ISym2E= 0 IDoP0=0 IntGTp=1.
 NMat=     3 NSing=     3 JSym2X= 0.
 NMat=     3 NSing=     3 JSym2X= 0.
 NMat=     3 NSing=     3 JSym2X= 0.
 NMat=     3 NSing=     3 JSym2X= 0.
 NMat=     3 NSing=     3 JSym2X= 0.
 NMat=     3 NSing=     3 JSym2X= 0.
 NMat=     3 NSing=     3 JSym2X= 0.
 NMat=     3 NSing=     3 JSym2X= 0.
 NMat=     3 NSing=     3 JSym2X= 0.
 NMat=     3 NSing=     3 JSym2X= 0.
 NMat=     3 NSing=     3 JSym2X= 0.
 NMat=     3 NSing=     3 JSym2X= 0.
 NMat=     3 NSing=     3 JSym2X= 0.
 NMat=     3 NSing=     3 JSym2X= 0.
 NMat=     3 NSing=     3 JSym2X= 0.
 NMat=     3 NSing=     3 JSym2X= 0.
 NMat=     3 NSing=     3 JSym2X= 0.
 NMat=     3 NSing=     3 JSym2X= 0.
 NMat=     3 NSing=     3 JSym2X= 0.
 NMat=     3 NSing=     3 JSym2X= 0.
 NMat=     3 NSing=     3 JSym2X= 0.
 NMat=     3 NSing=     3 JSym2X= 0.
 NMat=     3 NSing=     3 JSym2X= 0.
 NMat=     3 NSing=     3 JSym2X= 0.
 NMat=     3 NSing=     3 JSym2X= 0.
 NMat=     3 NSing=     3 JSym2X= 0.
 NMat=     3 NSing=     3 JSym2X= 0.
 NMat=     3 NSing=     3 JSym2X= 0.
 NMat=     3 NSing=     3 JSym2X= 0.
 NMat=     3 NSing=     3 JSym2X= 0.
 NMat=     3 NSing=     3 JSym2X= 0.
 NMat=     3 NSing=     3 JSym2X= 0.
 NMat=     3 NSing=     3 JSym2X= 0.
 NMat=     3 NSing=     3 JSym2X= 0.
 NMat=     3 NSing=     3 JSym2X= 0.
 NMat=     3 NSing=     3 JSym2X= 0.
 NMat=     3 NSing=     3 JSym2X= 0.
 NMat=     3 NSing=     3 JSym2X= 0.
 NMat=     3 NSing=     3 JSym2X= 0.
 NMat=     3 NSing=     3 JSym2X= 0.
 NMat=     3 NSing=     3 JSym2X= 0.
 NMat=     3 NSing=     3 JSym2X= 0.
 NMat=     3 NSing=     3 JSym2X= 0.
 NMat=     3 NSing=     3 JSym2X= 0.
 NMat=     3 NSing=     3 JSym2X= 0.
 NMat=     3 NSing=     3 JSym2X= 0.
 NMat=     3 NSing=     3 JSym2X= 0.
 New state      1 was old state      6
 New state      2 was old state      1
 New state      4 was old state      2
 New state      5 was old state      4
 New state      6 was old state      5
 New state      8 was old state     10
 New state      9 was old state     24
 New state     10 was old state     21
 New state     11 was old state      9
 New state     12 was old state      8
 New state     13 was old state     16
 New state     14 was old state     22
 New state     15 was old state     27
 New state     16 was old state     39
 New state     17 was old state     11
 New state     18 was old state     14
 New state     19 was old state     12
 New state     20 was old state     17
 New state     21 was old state     19
 New state     22 was old state     13
 New state     23 was old state     15
 New state     24 was old state     30
 New state     25 was old state     23
 New state     26 was old state     28
 New state     27 was old state     41
 New state     28 was old state     20
 New state     29 was old state     18
 New state     30 was old state     35
 New state     31 was old state     25
 New state     32 was old state     36
 New state     34 was old state     40
 New state     35 was old state     48
 New state     36 was old state     42
 Excitation Energies [eV] at current iteration:
 Root      1 :     0.727185358063617
 Root      2 :     1.919656165984928
 Root      3 :     1.985192333992287
 Root      4 :     2.226202484668438
 Root      5 :     2.321779240309119
 Root      6 :     2.615653745749652
 Root      7 :     3.644458949046462
 Root      8 :     3.982767140094176
 Root      9 :     4.196073095195395
 Root     10 :     4.223660577057785
 Root     11 :     4.453436455756772
 Root     12 :     4.541490556622546
 Root     13 :     4.738919569121945
 Root     14 :     4.757692076196318
 Root     15 :     4.767652035970966
 Root     16 :     4.782286606888555
 Root     17 :     4.813840030752460
 Root     18 :     5.033308132108572
 Root     19 :     5.078035708261057
 Root     20 :     5.107896735616961
 Root     21 :     5.130640826233403
 Root     22 :     5.199291243098163
 Root     23 :     5.290921755534493
 Root     24 :     5.423377985807702
 Root     25 :     5.463441470944152
 Root     26 :     5.469571271930302
 Root     27 :     5.589685953754672
 Root     28 :     5.738266953122245
 Root     29 :     5.795634856183242
 Root     30 :     5.892039590648754
 Root     31 :     5.899386976011757
 Root     32 :     5.930691386356195
 Root     33 :     5.986584562801823
 Root     34 :     6.015492673073543
 Root     35 :     6.027169144307148
 Root     36 :     6.047574522349146
 Root     37 :     6.063532800662005
 Root     38 :     6.102777002896533
 Root     39 :     6.120996085636326
 Root     40 :     6.139030382049413
 Root     41 :     6.144111051174779
 Root     42 :     6.172073457456321
 Root     43 :     6.220263236358658
 Root     44 :     6.277572818939691
 Root     45 :     6.354804399464387
 Root     46 :     6.424521487448271
 Root     47 :     6.449154143449052
 Root     48 :     6.488496298642167
 Root     49 :     6.514894233581281
 Root     50 :     6.561860449999481
 Root     51 :     6.575528668363805
 Root     52 :     6.644955925069662
 Root     53 :     6.708512694116465
 Root     54 :     6.743307015594822
 Root     55 :     6.776383021055201
 Root     56 :     6.815893236345041
 Root     57 :     6.828870917959145
 Root     58 :     6.861979668754518
 Root     59 :     6.893512818557959
 Root     60 :     6.967361426269815
 Root     61 :     6.996909261428756
 Root     62 :     7.084932514094532
 Root     63 :     7.132416402849567
 Root     64 :     7.159535715319842
 Root     65 :     7.187360647081136
 Root     66 :     7.220926868903437
 Root     67 :     7.273274078072791
 Root     68 :     7.330283123248417
 Root     69 :     7.413895762381803
 Root     70 :     7.442522198075289
 Root     71 :     7.478300556028776
 Root     72 :     7.533551522625012
 Root     73 :     7.564979862776545
 Root     74 :     7.590804081669320
 Root     75 :     7.614232244512525
 Root     76 :     7.635895334045259
 Root     77 :     7.661961994962165
 Root     78 :     7.672214309593248
 Root     79 :     7.724577329595975
 Root     80 :     7.736243548500188
 Root     81 :     7.774392513468801
 Root     82 :     7.805099303135474
 Root     83 :     7.823973262072924
 Root     84 :     7.849299569786839
 Root     85 :     7.873355626484470
 Root     86 :     7.889913051422320
 Root     87 :     7.948909314943758
 Root     88 :     7.953378388779672
 Root     89 :     7.974779835048783
 Root     90 :     8.000109746168196
 Root     91 :     8.048462646206728
 Root     92 :     8.109068570063313
 Root     93 :     8.134330670421868
 Root     94 :     8.150823481242643
 Root     95 :     8.183227840725968
 Root     96 :     8.191686148747289
 Root     97 :     8.195787048792264
 Root     98 :     8.204604265540448
 Root     99 :     8.243971435984221
 Root    100 :     8.253835076902307
 Root    101 :     8.266955192389036
 Root    102 :     8.283104272058464
 Root    103 :     8.295618366020898
 Root    104 :     8.316710276241597
 Root    105 :     8.353893343826721
 Root    106 :     8.370254237332304
 Root    107 :     8.389683113150770
 Root    108 :     8.401929058297753
 Root    109 :     8.411978887140215
 Root    110 :     8.424658216482454
 Root    111 :     8.438987820532624
 Root    112 :     8.446192786037383
 Root    113 :     8.457722584664680
 Root    114 :     8.479063042287018
 Root    115 :     8.521453638782695
 Root    116 :     8.531926689295352
 Root    117 :     8.545604503779764
 Root    118 :     8.550678594294375
 Root    119 :     8.559541656844070
 Root    120 :     8.574557428817327
 Root    121 :     8.589051746742697
 Root    122 :     8.603422444943753
 Root    123 :     8.623741888745545
 Root    124 :     8.631967567622599
 Root    125 :     8.645336332983549
 Root    126 :     8.691034248102220
 Root    127 :     8.731715132342028
 Root    128 :     8.774366574498861
 Root    129 :     8.782164089393163
 Root    130 :     8.793323893220872
 Root    131 :     8.813467663532098
 Root    132 :     8.847078390185690
 Root    133 :     8.855441675728315
 Root    134 :     8.884240002837085
 Root    135 :     8.894527836983816
 Root    136 :     8.907879297958578
 Root    137 :     8.943763577516059
 Root    138 :     8.976152743692900
 Root    139 :     9.011128749004902
 Root    140 :     9.035691248775908
 Root    141 :     9.314831395723411
 Root    142 :     9.324952209063911
 Root    143 :     9.458861136506199
 Root    144 :     9.491588106703720
 Iteration     2 Dimension   216 NMult   144 NNew     72
 CISAX will form     3 AO SS matrices at one time.
 NMat=     3 NSing=     3 JSym2X= 0.
 NMat=     3 NSing=     3 JSym2X= 0.
 NMat=     3 NSing=     3 JSym2X= 0.
 NMat=     3 NSing=     3 JSym2X= 0.
 NMat=     3 NSing=     3 JSym2X= 0.
 NMat=     3 NSing=     3 JSym2X= 0.
 NMat=     3 NSing=     3 JSym2X= 0.
 NMat=     3 NSing=     3 JSym2X= 0.
 NMat=     3 NSing=     3 JSym2X= 0.
 NMat=     3 NSing=     3 JSym2X= 0.
 NMat=     3 NSing=     3 JSym2X= 0.
 NMat=     3 NSing=     3 JSym2X= 0.
 NMat=     3 NSing=     3 JSym2X= 0.
 NMat=     3 NSing=     3 JSym2X= 0.
 NMat=     3 NSing=     3 JSym2X= 0.
 NMat=     3 NSing=     3 JSym2X= 0.
 NMat=     3 NSing=     3 JSym2X= 0.
 NMat=     3 NSing=     3 JSym2X= 0.
 NMat=     3 NSing=     3 JSym2X= 0.
 NMat=     3 NSing=     3 JSym2X= 0.
 NMat=     3 NSing=     3 JSym2X= 0.
 NMat=     3 NSing=     3 JSym2X= 0.
 NMat=     3 NSing=     3 JSym2X= 0.
 NMat=     3 NSing=     3 JSym2X= 0.
 Root      1 not converged, maximum delta is    0.062206932327907
 New state      2 was old state      3
 Root      2 not converged, maximum delta is    0.483281761747784
 New state      3 was old state      2
 Root      3 not converged, maximum delta is    0.524186581353837
 Root      4 not converged, maximum delta is    0.208194375330684
 Root      5 not converged, maximum delta is    0.199570238472342
 Root      6 not converged, maximum delta is    0.017659832605484
 Root      7 not converged, maximum delta is    0.080393664894412
 New state      8 was old state      9
 Root      8 not converged, maximum delta is    0.071932313301881
 New state      9 was old state     10
 Root      9 not converged, maximum delta is    0.067679622408304
 New state     10 was old state      8
 Root     10 not converged, maximum delta is    0.081962172953707
 Root     11 not converged, maximum delta is    0.322224062133463
 Root     12 not converged, maximum delta is    0.188127439482074
 New state     13 was old state     17
 Root     13 not converged, maximum delta is    0.345436135452520
 New state     14 was old state     13
 Root     14 not converged, maximum delta is    0.160329144524738
 New state     15 was old state     14
 Root     15 not converged, maximum delta is    0.214119157420676
 New state     16 was old state     15
 Root     16 not converged, maximum delta is    0.340103682994288
 New state     17 was old state     16
 Root     17 not converged, maximum delta is    0.382710623633054
 Root     18 not converged, maximum delta is    0.190587858964797
 Root     19 not converged, maximum delta is    0.099734378616618
 Root     20 not converged, maximum delta is    0.125847239698214
 Root     21 not converged, maximum delta is    0.015080932922437
 Root     22 not converged, maximum delta is    0.203971058961588
 Root     23 not converged, maximum delta is    0.110753747455582
 Root     24 not converged, maximum delta is    0.108483557620936
 Root     25 not converged, maximum delta is    0.051165972160551
 Root     26 not converged, maximum delta is    0.049483302733775
 Root     27 not converged, maximum delta is    0.057503963594929
 Root     28 not converged, maximum delta is    0.067308457832111
 Root     29 not converged, maximum delta is    0.075060222706384
 Root     30 not converged, maximum delta is    0.316212284382885
 Root     31 not converged, maximum delta is    0.122101532326570
 Root     32 not converged, maximum delta is    0.483796937946101
 New state     33 was old state     34
 Root     33 not converged, maximum delta is    0.492960563746250
 New state     34 was old state     33
 Root     34 not converged, maximum delta is    0.046401015294064
 Root     35 not converged, maximum delta is    0.094876500859022
 Root     36 not converged, maximum delta is    0.416050360890594
 Excitation Energies [eV] at current iteration:
 Root      1 :     0.573006967289091   Change is   -0.154178390774526
 Root      2 :     1.845987331032387   Change is   -0.139205002959900
 Root      3 :     1.925704935149300   Change is    0.006048769164372
 Root      4 :     2.191990381845629   Change is   -0.034212102822808
 Root      5 :     2.292415356621027   Change is   -0.029363883688091
 Root      6 :     2.589195932777055   Change is   -0.026457812972598
 Root      7 :     3.526457208452020   Change is   -0.118001740594441
 Root      8 :     3.763574448722297   Change is   -0.432498646473098
 Root      9 :     3.788585012940261   Change is   -0.435075564117525
 Root     10 :     3.923507643483002   Change is   -0.059259496611174
 Root     11 :     4.397885982348775   Change is   -0.055550473407997
 Root     12 :     4.530093533076431   Change is   -0.011397023546115
 Root     13 :     4.600714851219434   Change is   -0.213125179533026
 Root     14 :     4.679327013847320   Change is   -0.059592555274625
 Root     15 :     4.699374393112596   Change is   -0.058317683083721
 Root     16 :     4.711484195537460   Change is   -0.056167840433506
 Root     17 :     4.725206175821519   Change is   -0.057080431067036
 Root     18 :     4.956100781026151   Change is   -0.077207351082421
 Root     19 :     5.066809822850324   Change is   -0.011225885410733
 Root     20 :     5.080652222457896   Change is   -0.027244513159065
 Root     21 :     5.102819914544331   Change is   -0.027820911689071
 Root     22 :     5.175467894884756   Change is   -0.023823348213407
 Root     23 :     5.252012547632046   Change is   -0.038909207902446
 Root     24 :     5.360504683982239   Change is   -0.062873301825461
 Root     25 :     5.398487076630833   Change is   -0.064954394313318
 Root     26 :     5.443089054939242   Change is   -0.026482216991060
 Root     27 :     5.546150596761678   Change is   -0.043535356992994
 Root     28 :     5.713996586191949   Change is   -0.024270366930297
 Root     29 :     5.768423033582773   Change is   -0.027211822600469
 Root     30 :     5.856777941308918   Change is   -0.035261649339836
 Root     31 :     5.876056774647783   Change is   -0.023330201363975
 Root     32 :     5.893102709061711   Change is   -0.037588677294486
 Root     33 :     5.937092132072540   Change is   -0.078400541001002
 Root     34 :     5.972790076870520   Change is   -0.013794485931303
 Root     35 :     5.994380480089174   Change is   -0.032788664217974
 Root     36 :     6.025065461948817   Change is   -0.022509060400329
 Iteration     3 Dimension   288 NMult   216 NNew     72
 CISAX will form     3 AO SS matrices at one time.
 NMat=     3 NSing=     3 JSym2X= 0.
 NMat=     3 NSing=     3 JSym2X= 0.
 NMat=     3 NSing=     3 JSym2X= 0.
 NMat=     3 NSing=     3 JSym2X= 0.
[...]
    10  H   -0.000008   0.000000   0.000000   0.000000  -0.000003   0.000000
    11  H    0.000022   0.000001  -0.000001   0.000003  -0.000008  -0.000000
    12  C   -0.000073  -0.000001  -0.000001  -0.000003   0.000022   0.000000
    13  C   -0.000019  -0.000000   0.000000  -0.000000   0.000002  -0.000000
    14  C    0.000029  -0.000002   0.000000  -0.000023   0.000026  -0.000002
    15  C    0.000001   0.000000  -0.000000   0.000000  -0.000001  -0.000000
    16  H   -0.000000  -0.000000   0.000000   0.000000  -0.000001  -0.000000
    17  C   -0.000009   0.000000  -0.000000   0.000004  -0.000007   0.000000
    18  H    0.000046  -0.000007   0.000001  -0.000022   0.000003  -0.000008
    19  C   -0.000000   0.000000  -0.000000   0.000000  -0.000001   0.000000
    20  H   -0.000000  -0.000000   0.000000  -0.000000   0.000000  -0.000000
    21  H    0.000001  -0.000000   0.000000  -0.000000   0.000000  -0.000000
    22  H    0.000000  -0.000000   0.000000  -0.000000   0.000000  -0.000000
    23  C   -0.000087   0.000099  -0.000041  -0.000044  -0.000041  -0.000088
    24  C   -0.000357  -0.000172   0.000055   0.000073  -0.000006  -0.000149
    25  C    0.004164   0.000085  -0.000007  -0.000184   0.000055  -0.000212
    26  C    0.000085  -0.002783   0.000032  -0.000057   0.000001  -0.000054
    27  H   -0.000007   0.000032  -0.000289   0.000000  -0.000000   0.000003
    28  C   -0.000184  -0.000057   0.000000  -0.002141   0.000050   0.000427
    29  H    0.000055   0.000001  -0.000000   0.000050  -0.000262  -0.000002
    30  C   -0.000212  -0.000054   0.000003   0.000427  -0.000002   0.005555
    31  H    0.000000   0.000040  -0.000006  -0.000001  -0.000000  -0.000023
    32  H   -0.000007   0.000002  -0.000000   0.000025  -0.000001  -0.000010
    33  H    0.000001  -0.000015   0.000000   0.000000   0.000000   0.000033
    34  O    0.000044   0.000000  -0.000006  -0.000000   0.000000  -0.000000
    35  H    0.000001  -0.000000  -0.000003   0.000000  -0.000000  -0.000000
              31         32         33         34         35
     1  C    0.000000  -0.000000  -0.000000   0.001095  -0.000152
     2  C   -0.000001   0.000000  -0.000000  -0.001543   0.001252
     3  O    0.000000  -0.000000  -0.000000   0.000346  -0.003303
     4  C   -0.000000  -0.000000   0.000000   0.000304   0.000041
     5  H    0.000000   0.000000  -0.000000  -0.000005   0.000013
     6  H    0.000005   0.000000  -0.000000  -0.000096   0.000004
     7  H    0.000000   0.000000  -0.000000  -0.000022  -0.000095
     8  C   -0.000000  -0.000000   0.000000  -0.001576   0.000078
     9  H    0.000000  -0.000000  -0.000000   0.000001  -0.000002
    10  H   -0.000000  -0.000000   0.000000  -0.000117  -0.000068
    11  H    0.000000   0.000000  -0.000000   0.000057   0.000021
    12  C   -0.000000  -0.000000   0.000000   0.000002  -0.000103
    13  C   -0.000000  -0.000000   0.000000  -0.000003   0.000001
    14  C   -0.000000  -0.000001   0.000000  -0.000001   0.000003
    15  C    0.000000   0.000000  -0.000000   0.000000   0.000000
    16  H   -0.000000  -0.000000   0.000000  -0.000000   0.000004
    17  C    0.000000   0.000000  -0.000000   0.000000  -0.000000
    18  H   -0.000000  -0.000000   0.000000  -0.000001   0.000000
    19  C    0.000000   0.000000  -0.000000   0.000000  -0.000000
    20  H   -0.000000  -0.000000   0.000000  -0.000000   0.000000
    21  H   -0.000000  -0.000000   0.000000   0.000000   0.000000
    22  H   -0.000000  -0.000000   0.000000  -0.000000   0.000000
    23  C    0.000015  -0.000002  -0.000003   0.000250  -0.000119
    24  C   -0.000042  -0.000002   0.000007   0.000017  -0.000000
    25  C    0.000000  -0.000007   0.000001   0.000044   0.000001
    26  C    0.000040   0.000002  -0.000015   0.000000  -0.000000
    27  H   -0.000006  -0.000000   0.000000  -0.000006  -0.000003
    28  C   -0.000001   0.000025   0.000000  -0.000000   0.000000
    29  H   -0.000000  -0.000001   0.000000   0.000000  -0.000000
    30  C   -0.000023  -0.000010   0.000033  -0.000000  -0.000000
    31  H    0.000117  -0.000000  -0.000002   0.000000   0.000000
    32  H   -0.000000   0.000051   0.000001   0.000000   0.000000
    33  H   -0.000002   0.000001  -0.000251  -0.000000  -0.000000
    34  O    0.000000   0.000000  -0.000000   0.002158   0.001736
    35  H    0.000000   0.000000  -0.000000   0.001736  -0.002397
 Mulliken charges and spin densities:
               1          2
     1  C    0.202934  -0.029191
     2  C    0.237930   0.018706
     3  O   -0.398290   0.832996
     4  C   -0.316172   0.109164
     5  H    0.135649  -0.003787
     6  H    0.144278   0.026996
     7  H    0.134532  -0.003937
     8  C   -0.327093   0.014689
     9  H    0.119021  -0.000393
    10  H    0.110068  -0.001632
    11  H    0.118626  -0.001209
    12  C    0.089148   0.011373
    13  C   -0.121549   0.012611
    14  C   -0.117598   0.006704
    15  C   -0.104741  -0.004855
    16  H    0.104912  -0.001246
    17  C   -0.111595  -0.003843
    18  H    0.105718  -0.000307
    19  C   -0.095207   0.009368
    20  H    0.104266   0.000430
    21  H    0.104718   0.000101
    22  H    0.103885  -0.000406
    23  C    0.077179  -0.000933
    24  C   -0.116467   0.005462
    25  C   -0.119814   0.003269
    26  C   -0.106382  -0.002781
    27  H    0.108491  -0.000289
    28  C   -0.111638  -0.001926
    29  H    0.101645  -0.000122
    30  C   -0.096082   0.005505
    31  H    0.101391   0.000103
    32  H    0.102496   0.000055
    33  H    0.101645  -0.000229
    34  O   -0.585973   0.002639
    35  H    0.320066  -0.003086
 Sum of Mulliken charges =  -0.00000   1.00000
 Mulliken charges and spin densities with hydrogens summed into heavy atoms:
               1          2
     1  C    0.202934  -0.029191
     2  C    0.237930   0.018706
     3  O   -0.398290   0.832996
     4  C    0.098287   0.128435
     8  C    0.020621   0.011455
    12  C    0.089148   0.011373
    13  C   -0.016637   0.011365
    14  C   -0.011879   0.006397
    15  C   -0.000475  -0.004425
    17  C   -0.006877  -0.003742
    19  C    0.008678   0.008962
    23  C    0.077179  -0.000933
    24  C   -0.007976   0.005173
    25  C   -0.018168   0.003147
    26  C   -0.004991  -0.002678
    28  C   -0.009142  -0.001871
    30  C    0.005563   0.005277
    34  O   -0.265906  -0.000447
 Electronic spatial extent (au):  <R**2>=           4078.6944
 Charge=             -0.0000 electrons
 Dipole moment (field-independent basis, Debye):
    X=             -0.6967    Y=              2.3599    Z=             -0.5409  Tot=              2.5193
 Quadrupole moment (field-independent basis, Debye-Ang):
   XX=           -102.8095   YY=           -101.0885   ZZ=           -102.5852
   XY=              0.5102   XZ=             -7.0565   YZ=              0.4614
 Traceless Quadrupole moment (field-independent basis, Debye-Ang):
   XX=             -0.6484   YY=              1.0726   ZZ=             -0.4241
   XY=              0.5102   XZ=             -7.0565   YZ=              0.4614
 Octapole moment (field-independent basis, Debye-Ang**2):
  XXX=             -9.7079  YYY=              3.4161  ZZZ=             -4.4428  XYY=              0.8755
  XXY=             23.7186  XXZ=             -1.3239  XZZ=              0.8015  YZZ=            -12.7229
  YYZ=             -0.2691  XYZ=              6.4146
 Hexadecapole moment (field-independent basis, Debye-Ang**3):
 XXXX=          -2961.4451 YYYY=          -1553.4043 ZZZZ=           -672.9723 XXXY=              2.8526
 XXXZ=           -134.3282 YYYX=            -14.4636 YYYZ=             -1.5903 ZZZX=             -1.8934
 ZZZY=              8.4059 XXYY=           -757.5107 XXZZ=           -647.4199 YYZZ=           -379.5559
 XXYZ=             -1.4429 YYXZ=             -4.8727 ZZXY=              2.0868
 N-N= 1.331638964951D+03 E-N=-4.453541180685D+03  KE= 7.632334890403D+02
 Leave Link  601 at Sat May 25 04:45:09 2019, MaxMem=   104857600 cpu:               3.5 elap:               0.2
 (Enter /opt/software/gaussian/g16.b01/l9999.exe)
 Electronic transition elements 
                 1             2             3             4             5 
      1  -0.770366D+03 -0.770319D+03 -0.770316D+03 -0.770306D+03 -0.770303D+03
      2  -0.291881D+00  0.658340D-01  0.207607D+00 -0.411964D+00 -0.125394D+00
      3   0.411941D-01 -0.379786D+00  0.112044D+00 -0.185307D+00 -0.106495D+00
      4  -0.811961D-01 -0.522697D-01  0.923248D-01 -0.559958D-01 -0.614453D-01
      5   0.689846D-02 -0.414129D-02 -0.135379D-01  0.319753D-01  0.104485D-01
      6  -0.879833D-03  0.245587D-01 -0.726694D-02  0.146344D-01  0.888796D-02
      7   0.990591D-03  0.394663D-02 -0.801789D-02  0.350500D-02  0.392906D-02
      8  -0.341395D+00  0.133307D+00 -0.682318D-01  0.712945D-01  0.644158D-01
      9  -0.662168D+00 -0.729727D-01 -0.118793D+00  0.101557D+00  0.777417D-01
     10   0.328583D-01  0.413653D-01 -0.224033D+00  0.211553D-01  0.540753D-01
     11  -0.141882D-01  0.106037D+00 -0.450989D-01  0.621821D-01 -0.138076D-03
     12   0.137039D-02 -0.592864D-01  0.206401D-01 -0.263627D-01 -0.124912D-02
     13   0.480010D-02  0.127732D-01 -0.150949D-03 -0.260640D-02  0.209106D-02
     14   0.929867D-02 -0.104477D+00 -0.217113D-01  0.368412D-01 -0.143591D-01
     15   0.552559D-02 -0.107958D-01  0.909710D-02 -0.599652D-02  0.974246D-02
     16   0.300286D-02 -0.210552D-01  0.357715D-02  0.117854D-03 -0.658099D-02
                 6             7             8             9            10 
      1  -0.770292D+03 -0.770258D+03 -0.770249D+03 -0.770248D+03 -0.770243D+03
      2   0.103550D+00  0.692271D-01  0.413761D-01 -0.160003D-01  0.934464D-01
      3  -0.229788D+00 -0.159746D+00 -0.477073D-02  0.497290D-01 -0.285895D-01
      4   0.604615D-01  0.941114D-01  0.638592D-03  0.119206D-02  0.319222D-01
      5  -0.883966D-02 -0.924738D-02 -0.544155D-02  0.208999D-02 -0.126461D-01
      6   0.213354D-01  0.200322D-01  0.578517D-03 -0.671140D-02  0.269752D-02
      7  -0.529874D-02 -0.101330D-01 -0.183329D-03 -0.187995D-03 -0.593519D-02
      8   0.849675D-02 -0.401950D+00  0.241686D-01 -0.306802D-01  0.532647D+00
      9  -0.852107D-01  0.256331D+00 -0.784927D-02 -0.262520D-02 -0.660264D-01
     10  -0.197980D-02 -0.158387D+00 -0.741624D-02 -0.131475D-01  0.251817D+00
     11   0.958719D-01  0.103013D-01  0.135706D-02 -0.318348D-01  0.383868D-01
     12  -0.244589D-01 -0.141684D+00 -0.333993D-03  0.980888D-02  0.252226D-01
     13  -0.335885D-01  0.117898D+00  0.814421D-03  0.150383D-02 -0.897192D-02
     14   0.203620D-01 -0.661398D-01 -0.176139D-01  0.155452D-01 -0.186548D-01
     15  -0.643262D-03 -0.552017D-01  0.456061D-03  0.381740D-02  0.193407D-01
     16   0.947795D-02 -0.329438D-01 -0.205340D-02  0.263004D-02  0.537885D-01
                11            12            13            14            15 
      1  -0.770225D+03 -0.770220D+03 -0.770218D+03 -0.770215D+03 -0.770214D+03
      2  -0.317390D-01 -0.432381D-01  0.138855D+00 -0.420258D-01  0.136664D-01
      3  -0.219216D+00 -0.343678D-01  0.901999D-01 -0.133843D-01 -0.100422D-01
      4   0.868390D-01 -0.468860D-02 -0.430453D-01  0.191222D-03 -0.805964D-02
      5   0.502707D-02  0.659165D-02 -0.223174D-01  0.695195D-02 -0.213611D-02
      6   0.342663D-01  0.570551D-02 -0.158668D-01  0.223858D-02  0.179703D-02
      7  -0.138367D-01 -0.816778D-03  0.828216D-02 -0.359064D-03  0.154196D-02
      8   0.236626D+00  0.801425D-01 -0.193779D+00  0.263317D-01 -0.781935D-02
      9  -0.170161D+00  0.166096D-01  0.237541D+00 -0.211826D-01  0.113018D-01
     10  -0.120286D+00  0.132279D+00 -0.144113D+00  0.134550D-01 -0.144387D-01
     11   0.113000D+00 -0.334530D-02  0.802191D-01  0.540925D-02  0.101190D-01
     12  -0.145208D+00 -0.520843D-01  0.172888D+00 -0.111790D-01  0.159706D-01
     13   0.972211D-01  0.490268D-01 -0.237142D+00  0.107034D-01 -0.230009D-01
     14  -0.106590D+00 -0.294712D-01  0.811195D-01  0.276151D-02  0.585068D-02
     15  -0.420056D-01 -0.652285D-02  0.126052D-01 -0.439500D-03  0.393115D-02
     16   0.217452D-01  0.987813D-02 -0.181749D-01  0.713252D-02 -0.114594D-02
                16            17            18            19            20 
      1  -0.770214D+03 -0.770213D+03 -0.770205D+03 -0.770201D+03 -0.770200D+03
      2   0.190326D-01 -0.244484D-01 -0.849112D-01  0.377434D-01  0.811328D-02
      3  -0.902424D-02  0.844006D-02 -0.349009D-01  0.294718D-01 -0.409470D-03
      4  -0.137993D-02  0.670998D-02  0.129037D+00  0.933924D-02 -0.654190D-02
      5  -0.315868D-02  0.392554D-02  0.147254D-01 -0.645893D-02 -0.169188D-02
      6   0.180540D-02 -0.145654D-02  0.649871D-02 -0.486838D-02 -0.110987D-03
      7   0.746368D-03 -0.147948D-02 -0.181769D-01 -0.858250D-03  0.101546D-02
      8  -0.338366D-01  0.290594D-01 -0.163173D+00 -0.105982D+00  0.294090D-01
      9   0.255499D-01 -0.463004D-01  0.165285D+00  0.871836D-01 -0.223848D-01
     10  -0.281453D-01  0.126694D-01  0.318458D-01  0.458840D-01 -0.151827D-01
     11   0.787119D-02 -0.396911D-01 -0.426903D-01 -0.266826D-01  0.294061D-02
     12   0.209719D-01 -0.781434D-02 -0.772910D-01 -0.128773D-03  0.343706D-02
     13  -0.281176D-01  0.346079D-01  0.768388D-01 -0.122559D-01  0.224458D-02
     14   0.549944D-03 -0.698136D-02  0.300523D-01  0.147238D-01 -0.700202D-02
     15   0.375457D-02  0.575785D-02 -0.590455D-01 -0.372987D-02  0.305044D-02
     16  -0.800175D-02  0.534601D-02 -0.117332D-01 -0.117819D-01  0.503132D-02
                21            22            23            24            25 
      1  -0.770199D+03 -0.770197D+03 -0.770194D+03 -0.770190D+03 -0.770188D+03
      2   0.251760D-02  0.904400D-01 -0.127638D+00  0.159607D+00  0.205393D-01
      3   0.102918D-01 -0.160172D-01 -0.101116D+00  0.180177D-02  0.312247D-01
      4   0.260420D-02  0.354372D-01 -0.274668D-01 -0.152729D-01  0.375221D-02
      5  -0.405101D-03 -0.151780D-01  0.244446D-01 -0.301529D-01 -0.420845D-02
      6  -0.211951D-02  0.284701D-02  0.205479D-01  0.536235D-04 -0.599764D-02
      7  -0.738326D-03 -0.585142D-02  0.526835D-02  0.238809D-02 -0.174740D-03
      8  -0.651002D-02  0.139828D+00 -0.110926D+00  0.842673D-01  0.190903D-01
      9   0.172339D-01 -0.999229D-01  0.162882D+00 -0.406552D-01  0.444948D-01
     10   0.318956D-02 -0.194908D+00  0.141638D+00  0.958247D-01  0.148202D-01
     11   0.158559D-02  0.198718D-01  0.313789D-01 -0.698057D-02 -0.352873D-01
     12  -0.104370D-01  0.318929D-01 -0.136096D+00  0.130274D-01 -0.337716D-01
     13   0.394152D-02 -0.359814D-01  0.539799D-01 -0.802423D-03  0.129448D-01
     14  -0.181526D-02 -0.450435D-02 -0.312629D-01 -0.105316D+00 -0.235256D-01
     15  -0.379718D-02  0.246660D-01 -0.352473D-01  0.956767D-02  0.156625D-02
     16  -0.230017D-03  0.394927D-01 -0.210061D-01 -0.135400D-01 -0.557133D-02
                26            27            28            29            30 
      1  -0.770187D+03 -0.770183D+03 -0.770177D+03 -0.770175D+03 -0.770172D+03
      2   0.770781D-02 -0.178171D-01  0.125427D-01  0.267072D+00  0.267282D+00
      3   0.120932D-01  0.520018D-01  0.457284D-01 -0.757194D-01 -0.396514D-01
      4  -0.168568D+00 -0.947743D-01  0.237634D-01  0.435579D-02 -0.122797D+00
      5  -0.168563D-02  0.142833D-02 -0.167342D-02 -0.543772D-01 -0.514720D-01
      6  -0.256287D-02 -0.898319D-02 -0.912181D-02  0.161516D-01  0.954396D-02
      7   0.304056D-01  0.172679D-01 -0.525104D-02 -0.108872D-02  0.302237D-01
      8  -0.331893D+00 -0.152751D+00  0.218352D-01  0.119549D+00 -0.258257D-01
      9   0.233972D+00  0.612079D-02  0.135696D-01  0.183704D+00 -0.103928D+00
     10  -0.158161D+00  0.971589D-01  0.785085D-01  0.135211D+00  0.711108D+00
     11   0.232019D-01 -0.424130D-01 -0.615214D-01  0.254915D+00 -0.863247D-01
     12   0.296627D-01 -0.410986D-02 -0.410388D-02 -0.506063D-01  0.591948D-01
     13  -0.201105D-01 -0.405100D-02  0.169164D-01 -0.608272D-01  0.148206D-01
     14  -0.328256D-01  0.642154D-01  0.529479D-01 -0.111685D-01  0.637692D-01
     15   0.238884D-01  0.197119D-01  0.604016D-02 -0.451314D-01  0.607129D-01
     16  -0.544431D-01 -0.590158D-01  0.259465D-01  0.381460D-01  0.665914D-01
                31            32            33            34            35 
      1  -0.770171D+03 -0.770170D+03 -0.770169D+03 -0.770167D+03 -0.770167D+03
      2  -0.366374D+00 -0.288631D-01  0.966834D-01 -0.795353D-01 -0.222945D-01
      3  -0.113072D+00 -0.205476D-01 -0.920600D-01 -0.146303D+00 -0.158002D+00
      4   0.592165D-01 -0.384893D-03 -0.818701D-02  0.238733D-01 -0.614057D-01
      5   0.785590D-01  0.341167D-02 -0.223225D-01  0.166752D-01  0.358714D-02
      6   0.231381D-01  0.582586D-02  0.217372D-01  0.322798D-01  0.346005D-01
      7  -0.128368D-01 -0.186543D-02  0.426017D-03 -0.721478D-02  0.110152D-01
      8  -0.158140D+00  0.319665D-01  0.434317D-01 -0.104453D+00 -0.182723D+00
      9   0.195693D+00 -0.617729D-02 -0.106788D+00  0.119764D+00  0.864508D-01
     10   0.104123D+00 -0.107001D+00 -0.131728D+00  0.184464D-01  0.290540D-01
     11   0.383680D+00  0.429027D-02 -0.164858D+00  0.255853D+00  0.168188D+00
     12  -0.574728D-01  0.195812D-01  0.100307D+00  0.292041D-01  0.137556D+00
     13  -0.985657D-01 -0.310392D-02  0.243853D-01 -0.878355D-01 -0.104310D+00
     14   0.205880D+00 -0.985661D-03 -0.926172D-01  0.352574D-01  0.415340D-01
     15  -0.977592D-01  0.132859D-01  0.834790D-01 -0.183612D-01  0.697540D-01
     16   0.210617D-01  0.414454D-03 -0.467937D-02  0.290120D-01 -0.176870D-02
                36 
      1  -0.770166D+03
      2  -0.246779D-01
      3   0.273618D+00
      4  -0.484333D-01
      5   0.601096D-02
      6  -0.606526D-01
      7   0.100506D-01
      8  -0.142147D+00
      9   0.105504D+00
     10   0.147444D+00
     11  -0.171804D+00
     12  -0.302444D-01
     13   0.278139D-01
     14   0.108010D+00
     15  -0.172948D-01
     16   0.259534D-01
 1\1\GINC-GRA793\SP\UB3LYP TD-FC\6-31G(d,p)\C16H17O2(2)\RZK\25-May-2019
 \0\\#p td=(50-50,nstates=36) ub3lyp/6-31g(d,p) scrf=(iefpcm,solvent=ac
 etonitrile) guess=(mix,always) empiricaldispersion=gd3\\Title Card Req
 uired\\0,2\C,0,-0.557763,-1.281213,-0.45934\C,0,0.576762,-1.274006,0.5
 21885\O,0,-1.215281,-2.493639,-0.359179\C,0,-0.037938,-1.363652,-1.947
 385\H,0,-0.88795,-1.427232,-2.626184\H,0,0.537567,-0.46116,-2.157917\H
 ,0,0.608109,-2.231982,-2.061781\C,0,0.027006,-1.330473,1.965461\H,0,-0
 .587633,-0.467599,2.224981\H,0,-0.590717,-2.227739,2.072931\H,0,0.8645
 23,-1.394617,2.662686\C,0,-1.54436,-0.109891,-0.320409\C,0,-2.743854,-
 0.313477,0.37641\C,0,-1.292138,1.157386,-0.863058\C,0,-3.664867,0.7220
 34,0.534664\H,0,-2.953343,-1.292641,0.794199\C,0,-2.212003,2.195473,-0
 .705167\H,0,-0.372708,1.34866,-1.403648\C,0,-3.401234,1.982735,-0.0054
 24\H,0,-4.586826,0.543503,1.080152\H,0,-1.997005,3.170393,-1.132409\H,
 0,-4.115941,2.791062,0.116775\C,0,1.540739,-0.09689,0.341278\C,0,2.688
 1,-0.242829,-0.452973\C,0,1.306473,1.14565,0.948181\C,0,3.570089,0.822
 361,-0.640813\H,0,2.888221,-1.201559,-0.915164\C,0,2.186869,2.212163,0
 .760621\H,0,0.425882,1.296317,1.561067\C,0,3.322769,2.056034,-0.035789
 \H,0,4.452573,0.685221,-1.259041\H,0,1.982182,3.165283,1.239249\H,0,4.
 008505,2.885561,-0.180629\O,0,1.346634,-2.468607,0.317689\H,0,0.685839
 ,-3.171932,0.207801\\Version=ES64L-G16RevB.01\State=2-A\HF=-770.386798
 \S2=0.753497\S2-1=0.\S2A=0.750009\RMSD=9.860e-09\PG=C01 [X(C16H17O2)]\
 \@


 CHILDREN YOU ARE VERY LITTLE,
 AND YOUR BONES ARE VERY BRITTLE;
 IF YOU WOULD GROW GREAT AND STATELY
 YOU MUST TRY TO WALK SEDATELY.
 YOU MUST STILL BE BRIGHT AND QUIET,
 AND CONTENT WITH SIMPLE DIET;
 AND REMAIN, THROUGH ALL BEWILD'RING
 INNOCENT AND HONEST CHILDREN.
     -- A CHILD'S GARDEN OF VERSE,
        ROBERT LOUIS STEVENSON
 Job cpu time:       0 days 15 hours 23 minutes  1.6 seconds.
 Elapsed time:       0 days  0 hours 28 minutes 53.5 seconds.
 File lengths (MBytes):  RWF=   2177 Int=      0 D2E=      0 Chk=    178 Scr=      1
 Normal termination of Gaussian 16 at Sat May 25 04:45:09 2019.
