 Entering Gaussian System, Link 0=g16
 Initial command:
 /opt/software/gaussian/g16.b01/l1.exe "/localscratch/rzk.15153362.0/Gau-9311.inp" -scrdir="/localscratch/rzk.15153362.0/"
 Entering Link 1 = /opt/software/gaussian/g16.b01/l1.exe PID=      9316.
  
 Copyright (c) 1988-2017, Gaussian, Inc.  All Rights Reserved.
  
 This is part of the Gaussian(R) 16 program.  It is based on
 the Gaussian(R) 09 system (copyright 2009, Gaussian, Inc.),
 the Gaussian(R) 03 system (copyright 2003, Gaussian, Inc.),
 the Gaussian(R) 98 system (copyright 1998, Gaussian, Inc.),
 the Gaussian(R) 94 system (copyright 1995, Gaussian, Inc.),
 the Gaussian 92(TM) system (copyright 1992, Gaussian, Inc.),
 the Gaussian 90(TM) system (copyright 1990, Gaussian, Inc.),
 the Gaussian 88(TM) system (copyright 1988, Gaussian, Inc.),
 the Gaussian 86(TM) system (copyright 1986, Carnegie Mellon
 University), and the Gaussian 82(TM) system (copyright 1983,
 Carnegie Mellon University). Gaussian is a federally registered
 trademark of Gaussian, Inc.
  
 This software contains proprietary and confidential information,
 including trade secrets, belonging to Gaussian, Inc.
  
 This software is provided under written license and may be
 used, copied, transmitted, or stored only in accord with that
 written license.
  
 The following legend is applicable only to US Government
 contracts under FAR:
  
                    RESTRICTED RIGHTS LEGEND
  
 Use, reproduction and disclosure by the US Government is
 subject to restrictions as set forth in subparagraphs (a)
 and (c) of the Commercial Computer Software - Restricted
 Rights clause in FAR 52.227-19.
  
 Gaussian, Inc.
 340 Quinnipiac St., Bldg. 40, Wallingford CT 06492
  
  
 ---------------------------------------------------------------
 Warning -- This program may not be used in any manner that
 competes with the business of Gaussian, Inc. or will provide
 assistance to any competitor of Gaussian, Inc.  The licensee
 of this program is prohibited from giving any competitor of
 Gaussian, Inc. access to this program.  By using this program,
 the user acknowledges that Gaussian, Inc. is engaged in the
 business of creating and licensing software in the field of
 computational chemistry and represents and warrants to the
 licensee that it is not a competitor of Gaussian, Inc. and that
 it will not use this program in any manner prohibited above.
 ---------------------------------------------------------------
  

 Cite this work as:
 Gaussian 16, Revision B.01,
 M. J. Frisch, G. W. Trucks, H. B. Schlegel, G. E. Scuseria, 
 M. A. Robb, J. R. Cheeseman, G. Scalmani, V. Barone, 
 G. A. Petersson, H. Nakatsuji, X. Li, M. Caricato, A. V. Marenich, 
 J. Bloino, B. G. Janesko, R. Gomperts, B. Mennucci, H. P. Hratchian, 
 J. V. Ortiz, A. F. Izmaylov, J. L. Sonnenberg, D. Williams-Young, 
 F. Ding, F. Lipparini, F. Egidi, J. Goings, B. Peng, A. Petrone, 
 T. Henderson, D. Ranasinghe, V. G. Zakrzewski, J. Gao, N. Rega, 
 G. Zheng, W. Liang, M. Hada, M. Ehara, K. Toyota, R. Fukuda, 
 J. Hasegawa, M. Ishida, T. Nakajima, Y. Honda, O. Kitao, H. Nakai, 
 T. Vreven, K. Throssell, J. A. Montgomery, Jr., J. E. Peralta, 
 F. Ogliaro, M. J. Bearpark, J. J. Heyd, E. N. Brothers, K. N. Kudin, 
 V. N. Staroverov, T. A. Keith, R. Kobayashi, J. Normand, 
 K. Raghavachari, A. P. Rendell, J. C. Burant, S. S. Iyengar, 
 J. Tomasi, M. Cossi, J. M. Millam, M. Klene, C. Adamo, R. Cammi, 
 J. W. Ochterski, R. L. Martin, K. Morokuma, O. Farkas, 
 J. B. Foresman, and D. J. Fox, Gaussian, Inc., Wallingford CT, 2016.
 
 ******************************************
 Gaussian 16:  ES64L-G16RevB.01 20-Dec-2017
                25-May-2019 
 ******************************************
 %NProcShared=32
 Will use up to   32 processors via shared memory.
 %chk=AH-A_19.chk
 ----------------------------------------------------------------------
 #p td=(50-50,nstates=36) ub3lyp/6-31g(d,p) scrf=(iefpcm,solvent=aceton
 itrile) guess=(mix,always) empiricaldispersion=gd3
 ----------------------------------------------------------------------
 1/38=1,172=1/1;
 2/12=2,17=6,18=5,40=1/2;
 3/5=1,6=6,7=101,11=2,25=1,30=1,70=2201,72=2,74=-5,116=2,124=31/1,2,3,8;
 4/13=-1/1;
 5/5=2,38=5,53=2/2;
 8/6=1,10=2,108=36/1;
 9/41=36,42=1,48=2,70=2/14;
 6/7=2,8=2,9=2,10=2/1;
 99/5=1,9=1/99;
 Leave Link    1 at Sat May 25 04:17:13 2019, MaxMem=           0 cpu:               2.4 elap:               0.1
 (Enter /opt/software/gaussian/g16.b01/l101.exe)
 -------------------
 Title Card Required
 -------------------
 Symbolic Z-matrix:
 Charge =  0 Multiplicity = 2
 C                    -0.52639  -1.28328  -0.41976 
 C                     0.54124  -1.27746   0.48586 
 O                    -1.22222  -2.48765  -0.32907 
 C                    -0.06649  -1.38545  -1.93507 
 H                    -0.94469  -1.42597  -2.57804 
 H                     0.5239   -0.49884  -2.17068 
 H                     0.55172  -2.27014  -2.07338 
 C                     0.03391  -1.34896   1.95136 
 H                    -0.57669  -0.49227   2.23912 
 H                    -0.57524  -2.25097   2.06823 
 H                     0.89394  -1.41594   2.6193 
 C                    -1.51585  -0.10094  -0.29692 
 C                    -2.7125   -0.29179   0.4077 
 C                    -1.27001   1.15278  -0.87188 
 C                    -3.63711   0.74411   0.54263 
 H                    -2.91835  -1.26033   0.85116 
 C                    -2.19354   2.19088  -0.73809 
 H                    -0.35225   1.33416  -1.41868 
 C                    -3.38015   1.9915   -0.02997 
 H                    -4.55668   0.57546   1.09518 
 H                    -1.98314   3.15539  -1.19047 
 H                    -4.09768   2.7999    0.0736 
 C                     1.51487  -0.09339   0.32243 
 C                     2.65434  -0.22907  -0.48392 
 C                     1.29681   1.13486   0.96226 
 C                     3.544     0.83323  -0.65287 
 H                     2.84386  -1.17751  -0.97097 
 C                     2.18522   2.19826   0.795 
 H                     0.42203   1.2785    1.58505 
 C                     3.31299   2.05308  -0.0147 
 H                     4.41994   0.70378  -1.28197 
 H                     1.99251   3.1404    1.29963 
 H                     4.00483   2.88007  -0.1442 
 O                     1.34309  -2.46501   0.28552 
 H                     0.69699  -3.18453   0.20111 
 
 ITRead=  0  0  0  0  0  0  0  0  0  0  0  0  0  0  0  0  0  0  0  0
 ITRead=  0  0  0  0  0  0  0  0  0  0  0  0  0  0  0
 MicOpt= -1 -1 -1 -1 -1 -1 -1 -1 -1 -1 -1 -1 -1 -1 -1 -1 -1 -1 -1 -1
 MicOpt= -1 -1 -1 -1 -1 -1 -1 -1 -1 -1 -1 -1 -1 -1 -1
 NAtoms=     35 NQM=       35 NQMF=       0 NMMI=      0 NMMIF=      0
                NMic=       0 NMicF=      0.
                    Isotopes and Nuclear Properties:
 (Nuclear quadrupole moments (NQMom) in fm**2, nuclear magnetic moments (NMagM)
  in nuclear magnetons)

  Atom         1           2           3           4           5           6           7           8           9          10
 IAtWgt=          12          12          16          12           1           1           1          12           1           1
 AtmWgt=  12.0000000  12.0000000  15.9949146  12.0000000   1.0078250   1.0078250   1.0078250  12.0000000   1.0078250   1.0078250
 NucSpn=           0           0           0           0           1           1           1           0           1           1
 AtZEff=  -0.0000000  -0.0000000  -0.0000000  -0.0000000  -0.0000000  -0.0000000  -0.0000000  -0.0000000  -0.0000000  -0.0000000
 NQMom=    0.0000000   0.0000000   0.0000000   0.0000000   0.0000000   0.0000000   0.0000000   0.0000000   0.0000000   0.0000000
 NMagM=    0.0000000   0.0000000   0.0000000   0.0000000   2.7928460   2.7928460   2.7928460   0.0000000   2.7928460   2.7928460
 AtZNuc=   6.0000000   6.0000000   8.0000000   6.0000000   1.0000000   1.0000000   1.0000000   6.0000000   1.0000000   1.0000000

  Atom        11          12          13          14          15          16          17          18          19          20
 IAtWgt=           1          12          12          12          12           1          12           1          12           1
 AtmWgt=   1.0078250  12.0000000  12.0000000  12.0000000  12.0000000   1.0078250  12.0000000   1.0078250  12.0000000   1.0078250
 NucSpn=           1           0           0           0           0           1           0           1           0           1
 AtZEff=  -0.0000000  -0.0000000  -0.0000000  -0.0000000  -0.0000000  -0.0000000  -0.0000000  -0.0000000  -0.0000000  -0.0000000
 NQMom=    0.0000000   0.0000000   0.0000000   0.0000000   0.0000000   0.0000000   0.0000000   0.0000000   0.0000000   0.0000000
 NMagM=    2.7928460   0.0000000   0.0000000   0.0000000   0.0000000   2.7928460   0.0000000   2.7928460   0.0000000   2.7928460
 AtZNuc=   1.0000000   6.0000000   6.0000000   6.0000000   6.0000000   1.0000000   6.0000000   1.0000000   6.0000000   1.0000000

  Atom        21          22          23          24          25          26          27          28          29          30
 IAtWgt=           1           1          12          12          12          12           1          12           1          12
 AtmWgt=   1.0078250   1.0078250  12.0000000  12.0000000  12.0000000  12.0000000   1.0078250  12.0000000   1.0078250  12.0000000
 NucSpn=           1           1           0           0           0           0           1           0           1           0
 AtZEff=  -0.0000000  -0.0000000  -0.0000000  -0.0000000  -0.0000000  -0.0000000  -0.0000000  -0.0000000  -0.0000000  -0.0000000
 NQMom=    0.0000000   0.0000000   0.0000000   0.0000000   0.0000000   0.0000000   0.0000000   0.0000000   0.0000000   0.0000000
 NMagM=    2.7928460   2.7928460   0.0000000   0.0000000   0.0000000   0.0000000   2.7928460   0.0000000   2.7928460   0.0000000
 AtZNuc=   1.0000000   1.0000000   6.0000000   6.0000000   6.0000000   6.0000000   1.0000000   6.0000000   1.0000000   6.0000000

  Atom        31          32          33          34          35
 IAtWgt=           1           1           1          16           1
 AtmWgt=   1.0078250   1.0078250   1.0078250  15.9949146   1.0078250
 NucSpn=           1           1           1           0           1
 AtZEff=  -0.0000000  -0.0000000  -0.0000000  -0.0000000  -0.0000000
 NQMom=    0.0000000   0.0000000   0.0000000   0.0000000   0.0000000
 NMagM=    2.7928460   2.7928460   2.7928460   0.0000000   2.7928460
 AtZNuc=   1.0000000   1.0000000   1.0000000   8.0000000   1.0000000
 Leave Link  101 at Sat May 25 04:17:13 2019, MaxMem=   104857600 cpu:               3.8 elap:               0.2
 (Enter /opt/software/gaussian/g16.b01/l202.exe)
                          Input orientation:                          
 ---------------------------------------------------------------------
 Center     Atomic      Atomic             Coordinates (Angstroms)
 Number     Number       Type             X           Y           Z
 ---------------------------------------------------------------------
      1          6           0       -0.526385   -1.283284   -0.419762
      2          6           0        0.541235   -1.277464    0.485861
      3          8           0       -1.222224   -2.487651   -0.329067
      4          6           0       -0.066494   -1.385454   -1.935072
      5          1           0       -0.944686   -1.425967   -2.578041
      6          1           0        0.523899   -0.498844   -2.170679
      7          1           0        0.551722   -2.270142   -2.073377
      8          6           0        0.033910   -1.348959    1.951362
      9          1           0       -0.576688   -0.492265    2.239121
     10          1           0       -0.575240   -2.250967    2.068227
     11          1           0        0.893936   -1.415939    2.619300
     12          6           0       -1.515850   -0.100936   -0.296916
     13          6           0       -2.712499   -0.291791    0.407703
     14          6           0       -1.270008    1.152778   -0.871882
     15          6           0       -3.637109    0.744107    0.542625
     16          1           0       -2.918351   -1.260325    0.851162
     17          6           0       -2.193537    2.190883   -0.738091
     18          1           0       -0.352254    1.334156   -1.418675
     19          6           0       -3.380148    1.991502   -0.029968
     20          1           0       -4.556683    0.575456    1.095178
     21          1           0       -1.983136    3.155389   -1.190472
     22          1           0       -4.097683    2.799904    0.073600
     23          6           0        1.514874   -0.093385    0.322428
     24          6           0        2.654336   -0.229068   -0.483919
     25          6           0        1.296813    1.134859    0.962261
     26          6           0        3.544001    0.833231   -0.652867
     27          1           0        2.843860   -1.177510   -0.970965
     28          6           0        2.185223    2.198255    0.794997
     29          1           0        0.422026    1.278497    1.585050
     30          6           0        3.312988    2.053084   -0.014701
     31          1           0        4.419938    0.703779   -1.281974
     32          1           0        1.992506    3.140398    1.299628
     33          1           0        4.004832    2.880073   -0.144200
     34          8           0        1.343087   -2.465014    0.285524
     35          1           0        0.696994   -3.184528    0.201107
 ---------------------------------------------------------------------
                    Distance matrix (angstroms):
                    1          2          3          4          5
     1  C    0.000000
     2  C    1.400000   0.000000
     3  O    1.393886   2.288766   0.000000
     4  C    1.586853   2.498382   2.264907   0.000000
     5  H    2.203067   3.408447   2.502416   1.089161   0.000000
     6  H    2.187271   2.768349   3.224257   1.090941   1.783884
     7  H    2.206954   2.745035   2.497361   1.088114   1.790685
     8  C    2.437308   1.552477   2.841628   3.887902   4.634552
     9  H    2.774509   2.222658   3.315701   4.299066   4.920597
    10  H    2.669997   2.167512   2.494319   4.127268   4.733384
    11  H    3.357202   2.166826   3.784120   4.654638   5.512983
    12  C    1.546635   2.495708   2.404924   2.536567   2.699160
    13  C    2.539065   3.400654   2.754188   3.699464   3.650505
    14  C    2.586849   3.321166   3.680986   3.003571   3.109138
    15  C    3.835767   4.642039   4.127442   4.839763   4.657995
    16  H    2.708741   3.478861   2.403355   3.988965   3.960079
    17  C    3.866596   4.583281   4.795772   4.329811   4.245780
    18  H    2.806981   3.353526   4.068206   2.782913   3.051784
    19  C    4.361207   5.131224   4.980854   5.100349   4.909506
    20  H    4.689697   5.458328   4.746548   5.761023   5.526731
    21  H    4.734758   5.369611   5.758898   4.984697   4.898219
    22  H    5.447018   6.189867   6.032300   6.148371   5.901743
    23  C    2.476579   1.541663   3.694409   3.044088   4.029632
    24  C    3.351488   2.550452   4.489197   3.293325   4.332537
    25  C    3.328882   2.572384   4.597353   4.074938   4.910793
    26  C    4.593693   3.842960   5.818076   4.427447   5.381318
    27  H    3.416660   2.726612   4.319901   3.072931   4.122803
    28  C    4.577070   3.857316   5.901858   5.036514   5.857363
    29  H    3.388433   2.784845   4.533351   4.441458   5.149112
    30  C    5.102569   4.361849   6.425360   5.189631   6.066490
    31  H    5.399809   4.700521   6.551889   4.991944   5.915640
    32  H    5.373088   4.720795   6.682969   5.931787   6.671964
    33  H    6.159659   5.447806   7.494581   6.162600   6.997377
    34  O    2.321387   1.446851   2.638002   2.843135   3.809663
    35  H    2.344539   1.934487   2.109531   2.895314   3.675774
                    6          7          8          9         10
     6  H    0.000000
     7  H    1.774187   0.000000
     8  C    4.237217   4.161157   0.000000
     9  H    4.545071   4.799145   1.090669   0.000000
    10  H    4.716605   4.292237   1.094687   1.766986   0.000000
    11  H    4.891001   4.782049   1.090996   1.777764   1.777479
    12  C    2.798195   3.483694   3.002344   2.732517   3.331859
    13  C    4.143090   4.552447   3.323139   2.820633   3.341195
    14  C    2.762758   4.059393   3.991190   3.586809   4.551090
    15  C    5.120638   5.785799   4.454419   3.711185   4.546754
    16  H    4.643324   4.649093   3.151847   2.828380   2.820069
    17  C    4.083062   5.405569   4.972440   4.321721   5.497667
    18  H    2.166343   3.773165   4.324971   4.094589   5.006128
    19  C    5.101573   6.147905   5.171087   4.379184   5.501679
    20  H    6.134514   6.650787   5.050739   4.276563   4.978693
    21  H    4.538662   6.053215   5.850534   5.200537   6.467610
    22  H    6.105534   7.206375   6.148912   5.284436   6.472823
    23  C    2.713303   3.377250   2.534393   2.864865   3.474414
    24  C    2.730696   3.333668   3.748517   4.233643   4.586032
    25  C    3.616863   4.622152   2.956788   2.790683   4.023874
    26  C    3.633069   4.538998   4.885151   5.205825   5.821063
    27  H    2.698540   2.768222   4.057734   4.740713   4.698855
    28  C    4.339306   5.555400   4.306745   4.117347   5.388585
    29  H    4.156299   5.098406   2.681109   2.135612   3.699340
    30  C    4.351965   5.527479   5.117778   5.166052   6.162934
    31  H    4.173155   4.943038   5.822838   6.228555   6.701207
    32  H    5.238694   6.536587   4.941172   4.547488   6.020870
    33  H    5.257432   6.493875   6.168007   6.167918   7.224920
    34  O    3.251127   2.495726   2.394690   3.375473   2.627513
    35  H    3.587231   2.455704   2.621524   3.608884   2.444638
                   11         12         13         14         15
    11  H    0.000000
    12  C    4.005074   0.000000
    13  C    4.377356   1.401743   0.000000
    14  C    4.844514   1.401008   2.409336   0.000000
    15  C    5.432195   2.432831   1.395060   2.787653   0.000000
    16  H    4.205242   2.151575   1.084937   3.392489   2.151640
    17  C    5.814957   2.430294   2.783134   1.395875   2.411907
    18  H    5.041949   2.161432   3.398546   1.083583   3.871063
    19  C    6.074296   2.815167   2.418830   2.421770   1.396383
    20  H    5.999821   3.412052   2.150757   3.873610   1.085990
    21  H    6.609761   3.408878   3.869003   2.149535   3.399049
    22  H    7.012145   3.901028   3.404253   3.406275   2.158336
    23  C    2.722193   3.093369   4.232885   3.276411   5.224252
    24  C    3.760005   4.176343   5.440757   4.178575   6.448499
    25  C    3.068332   3.320209   4.291555   3.154833   4.967129
    26  C    4.773750   5.157660   6.444709   4.829571   7.280487
    27  H    4.092561   4.540972   5.792957   4.729056   6.927231
    28  C    4.249459   4.491825   5.507995   3.976195   6.006479
    29  H    2.924441   3.033149   3.698270   2.985850   4.224784
    30  C    4.982358   5.295009   6.479457   4.748596   7.094215
    31  H    5.669730   6.070542   7.397150   5.722348   8.261162
    32  H    4.869147   5.036245   5.891733   4.394324   6.165049
    33  H    5.980830   6.275959   7.449017   5.597947   7.964505
    34  O    2.597846   3.755213   4.602782   4.610453   5.930170
    35  H    3.002391   3.827956   4.476075   4.881867   5.859629
                   16         17         18         19         20
    16  H    0.000000
    17  C    3.868064   0.000000
    18  H    4.297481   2.141845   0.000000
    19  C    3.400592   1.396151   3.395402   0.000000
    20  H    2.472603   3.399256   4.957046   2.157632   0.000000
    21  H    4.953930   1.085905   2.455350   2.157092   4.301557
    22  H    4.298940   2.157666   4.289935   1.085862   2.490476
    23  C    4.614628   4.482733   2.924975   5.332183   6.156971
    24  C    5.822437   5.424264   3.515256   6.446084   7.425604
    25  C    4.849418   4.023547   2.903101   4.857193   5.881668
    26  C    6.957519   5.896594   4.002273   7.047938   8.291151
    27  H    6.044012   6.064295   4.089505   7.047438   7.880982
    28  C    6.165338   4.639391   3.476464   5.629979   6.940957
    29  H    4.259381   3.615329   3.102414   4.192038   5.051909
    30  C    7.110414   5.555547   3.990238   6.693437   8.083745
    31  H    7.890403   6.800393   4.815587   8.004192   9.286929
    32  H    6.609387   4.751509   4.018654   5.652716   7.036519
    33  H    8.127983   6.264780   4.795659   7.439122   8.952478
    34  O    4.464423   5.935729   4.495794   6.501463   6.686351
    35  H    4.146788   6.175136   4.913565   6.593009   6.522114
                   21         22         23         24         25
    21  H    0.000000
    22  H    2.489088   0.000000
    23  C    5.007941   6.319322   0.000000
    24  C    5.784454   7.421271   1.402490   0.000000
    25  C    4.413034   5.715127   1.401970   2.407198   0.000000
    26  C    6.019193   7.924070   2.434579   1.395896   2.783787
    27  H    6.490153   8.068207   2.148115   1.082901   3.387885
    28  C    4.715232   6.352740   2.433989   2.783449   1.395729
    29  H    4.124445   5.002692   2.161155   3.396556   1.083398
    30  C    5.535923   7.448730   2.820319   2.421199   2.421271
    31  H    6.856976   8.875877   3.413059   2.150452   3.869926
    32  H    4.691114   6.221695   3.411804   3.869413   2.149417
    33  H    6.084919   8.105838   3.906288   3.406759   3.406376
    34  O    6.695614   7.574051   2.378129   2.703862   3.663223
    35  H    7.022402   7.669329   3.199814   3.610428   4.426764
                   26         27         28         29         30
    26  C    0.000000
    27  H    2.152780   0.000000
    28  C    2.409539   3.866292   0.000000
    29  H    3.866945   4.293072   2.139860   0.000000
    30  C    1.395946   3.401655   1.395901   3.393648   0.000000
    31  H    1.086186   2.473863   3.397237   4.953123   2.156836
    32  H    3.397410   4.952245   1.086014   2.452458   2.157171
    33  H    2.158858   4.300625   2.158227   4.288572   1.085969
    34  O    4.074680   2.342808   4.766008   4.068292   4.938001
    35  H    4.997710   3.164002   5.616216   4.680758   5.858547
                   31         32         33         34         35
    31  H    0.000000
    32  H    4.300489   0.000000
    33  H    2.490602   2.490354   0.000000
    34  O    4.686716   5.733306   5.986610   0.000000
    35  H    5.583796   6.549030   6.916677   0.970702   0.000000
 Stoichiometry    C16H17O2(2)
 Framework group  C1[X(C16H17O2)]
 Deg. of freedom    99
 Full point group                 C1      NOp   1
 Largest Abelian subgroup         C1      NOp   1
 Largest concise Abelian subgroup C1      NOp   1
                         Standard orientation:                         
 ---------------------------------------------------------------------
 Center     Atomic      Atomic             Coordinates (Angstroms)
 Number     Number       Type             X           Y           Z
 ---------------------------------------------------------------------
      1          6           0        0.526385    1.283284   -0.419762
      2          6           0       -0.541235    1.277464    0.485861
      3          8           0        1.222224    2.487651   -0.329067
      4          6           0        0.066494    1.385454   -1.935072
      5          1           0        0.944686    1.425967   -2.578041
      6          1           0       -0.523899    0.498844   -2.170679
      7          1           0       -0.551722    2.270142   -2.073377
      8          6           0       -0.033910    1.348959    1.951362
      9          1           0        0.576688    0.492265    2.239121
     10          1           0        0.575240    2.250967    2.068227
     11          1           0       -0.893936    1.415939    2.619300
     12          6           0        1.515850    0.100936   -0.296916
     13          6           0        2.712499    0.291790    0.407703
     14          6           0        1.270008   -1.152778   -0.871882
     15          6           0        3.637109   -0.744108    0.542625
     16          1           0        2.918351    1.260324    0.851162
     17          6           0        2.193537   -2.190883   -0.738091
     18          1           0        0.352254   -1.334156   -1.418675
     19          6           0        3.380148   -1.991503   -0.029968
     20          1           0        4.556683   -0.575457    1.095178
     21          1           0        1.983135   -3.155389   -1.190472
     22          1           0        4.097682   -2.799905    0.073600
     23          6           0       -1.514874    0.093385    0.322428
     24          6           0       -2.654336    0.229068   -0.483919
     25          6           0       -1.296813   -1.134859    0.962261
     26          6           0       -3.544001   -0.833230   -0.652867
     27          1           0       -2.843860    1.177510   -0.970965
     28          6           0       -2.185223   -2.198255    0.794997
     29          1           0       -0.422026   -1.278497    1.585050
     30          6           0       -3.312988   -2.053083   -0.014701
     31          1           0       -4.419938   -0.703778   -1.281974
     32          1           0       -1.992507   -3.140398    1.299628
     33          1           0       -4.004833   -2.880072   -0.144200
     34          8           0       -1.343087    2.465014    0.285524
     35          1           0       -0.696993    3.184528    0.201107
 ---------------------------------------------------------------------
 Rotational constants (GHZ):           0.6286094           0.3841114           0.2915014
 Leave Link  202 at Sat May 25 04:17:13 2019, MaxMem=   104857600 cpu:               3.3 elap:               0.1
 (Enter /opt/software/gaussian/g16.b01/l301.exe)
 Standard basis: 6-31G(d,p) (6D, 7F)
 Ernie: Thresh=  0.10000D-02 Tol=  0.10000D-05 Strict=F.
 There are   355 symmetry adapted cartesian basis functions of A   symmetry.
 There are   355 symmetry adapted basis functions of A   symmetry.
   355 basis functions,   623 primitive gaussians,   355 cartesian basis functions
    65 alpha electrons       64 beta electrons
       nuclear repulsion energy      1336.5576347535 Hartrees.
 IExCor=  402 DFT=T Ex+Corr=B3LYP ExCW=0 ScaHFX=  0.200000
 ScaDFX=  0.800000  0.720000  1.000000  0.810000 ScalE2=  1.000000  1.000000
 IRadAn=      5 IRanWt=     -1 IRanGd=            0 ICorTp=0 IEmpDi=131
 NAtoms=   35 NActive=   35 NUniq=   35 SFac= 1.00D+00 NAtFMM=   60 NAOKFM=F Big=F
 Integral buffers will be    131072 words long.
 Raffenetti 2 integral format.
 Two-electron integral symmetry is turned on.
 R6Disp:  Grimme-D3 Dispersion energy=       -0.0418840773 Hartrees.
 Nuclear repulsion after empirical dispersion term =     1336.5157506762 Hartrees.
 ------------------------------------------------------------------------------
 Polarizable Continuum Model (PCM)
 =================================
 Model                : PCM.
 Atomic radii         : UFF (Universal Force Field).
 Polarization charges : Total charges.
 Charge compensation  : None.
 Solution method      : On-the-fly selection.
 Cavity type          : Scaled VdW (van der Waals Surface) (Alpha=1.100).
 Cavity algorithm     : GePol (No added spheres)
                        Default sphere list used, NSphG=   35.
                        Lebedev-Laikov grids with approx.  5.0 points / Ang**2.
                        Smoothing algorithm: York/Karplus (Gamma=1.0000).
                        Polarization charges: spherical gaussians, with
                                              point-specific exponents (IZeta= 3).
                        Self-potential: point-specific (ISelfS= 7).
                        Self-field    : sphere-specific E.n sum rule (ISelfD= 2).
 Solvent              : Acetonitrile, Eps=  35.688000 Eps(inf)=   1.806874
 ------------------------------------------------------------------------------
 GePol: Number of generator spheres                  =      35
 GePol: Total number of spheres                      =      35
 GePol: Number of exposed spheres                    =      35 (100.00%)
 GePol: Number of points                             =    2337
 GePol: Average weight of points                     =       0.13
 GePol: Minimum weight of points                     =   0.29D-09
 GePol: Maximum weight of points                     =    0.20577
 GePol: Number of points with low weight             =     147
 GePol: Fraction of low-weight points (<1% of avg)   =       6.29%
 GePol: Cavity surface area                          =    308.506 Ang**2
 GePol: Cavity volume                                =    349.812 Ang**3
 Leave Link  301 at Sat May 25 04:17:13 2019, MaxMem=   104857600 cpu:               3.4 elap:               0.2
 (Enter /opt/software/gaussian/g16.b01/l302.exe)
 NPDir=0 NMtPBC=     1 NCelOv=     1 NCel=       1 NClECP=     1 NCelD=      1
         NCelK=      1 NCelE2=     1 NClLst=     1 CellRange=     0.0.
 One-electron integrals computed using PRISM.
 One-electron integral symmetry used in STVInt
 PrsmSu:  requested number of processors reduced to:  28 ShMem   1 Linda.
 NBasis=   355 RedAO= T EigKep=  4.46D-04  NBF=   355
 NBsUse=   355 1.00D-06 EigRej= -1.00D+00 NBFU=   355
 Precomputing XC quadrature grid using
 IXCGrd= 4 IRadAn=           5 IRanWt=          -1 IRanGd=           0 AccXCQ= 0.00D+00.
 Generated NRdTot=       0 NPtTot=           0 NUsed=           0 NTot=          32
 NSgBfM=   354   354   354   354   354 MxSgAt=    35 MxSgA2=    35.
 Leave Link  302 at Sat May 25 04:17:14 2019, MaxMem=   104857600 cpu:              16.8 elap:               0.6
 (Enter /opt/software/gaussian/g16.b01/l303.exe)
 DipDrv:  MaxL=1.
 Leave Link  303 at Sat May 25 04:17:14 2019, MaxMem=   104857600 cpu:               2.7 elap:               0.1
 (Enter /opt/software/gaussian/g16.b01/l308.exe)
 Leave Link  308 at Sat May 25 04:17:15 2019, MaxMem=   104857600 cpu:               1.4 elap:               0.1
 (Enter /opt/software/gaussian/g16.b01/l401.exe)
 ExpMin= 1.61D-01 ExpMax= 5.48D+03 ExpMxC= 8.25D+02 IAcc=3 IRadAn=         5 AccDes= 0.00D+00
 Harris functional with IExCor=  402 and IRadAn=       5 diagonalized for initial guess.
 HarFok:  IExCor=  402 AccDes= 0.00D+00 IRadAn=         5 IDoV= 1 UseB2=F ITyADJ=14
 ICtDFT=  3500011 ScaDFX=  1.000000  1.000000  1.000000  1.000000
 FoFCou: FMM=F IPFlag=           0 FMFlag=      100000 FMFlg1=           0
         NFxFlg=           0 DoJE=T BraDBF=F KetDBF=T FulRan=T
         wScrn=  0.000000 ICntrl=       500 IOpCl=  0 I1Cent=   200000004 NGrid=           0
         NMat0=    1 NMatS0=      1 NMatT0=    0 NMatD0=    1 NMtDS0=    0 NMtDT0=    0
 Petite list used in FoFCou.
 Harris En= -770.380317336760    
 JPrj=0 DoOrth=F DoCkMO=T.
 Mixing orbitals, IMix= 1 IMixAn=  0 NRI=1 NE=   65 Coef=  7.07106781D-01  7.07106781D-01
 Mixing orbitals, IMix= 1 IMixAn=  0 NRI=1 NE=   64 Coef= -7.07106781D-01  7.07106781D-01
 Initial guess <Sx>= 0.0000 <Sy>= 0.0000 <Sz>= 0.5000 <S**2>= 1.0000 S= 0.6180
 Leave Link  401 at Sat May 25 04:17:16 2019, MaxMem=   104857600 cpu:              31.3 elap:               1.0
 (Enter /opt/software/gaussian/g16.b01/l502.exe)
 Integral symmetry usage will be decided dynamically.
 UHF open shell SCF:
 Using DIIS extrapolation, IDIIS=  1040.
 NGot=   104857600 LenX=   104590331 LenY=   104463865
 Requested convergence on RMS density matrix=1.00D-08 within 128 cycles.
 Requested convergence on MAX density matrix=1.00D-06.
 Requested convergence on             energy=1.00D-06.
 No special actions if energy rises.
 Fock matrices will be formed incrementally for  20 cycles.

 Cycle   1  Pass 1  IDiag  1:
 FoFJK:  IHMeth= 1 ICntrl=       0 DoSepK=F KAlg= 0 I1Cent=           0 FoldK=F
 IRaf= 840000000 NMat=       1 IRICut=       1 DoRegI=T DoRafI=F ISym2E= 0 IDoP0=0 IntGTp=1.
 FoFCou: FMM=F IPFlag=           0 FMFlag=      100000 FMFlg1=           0
         NFxFlg=           0 DoJE=F BraDBF=F KetDBF=F FulRan=T
         wScrn=  0.000000 ICntrl=         0 IOpCl=  1 I1Cent=           0 NGrid=           0
         NMat0=    1 NMatS0=      1 NMatT0=    0 NMatD0=    1 NMtDS0=    0 NMtDT0=    0
 Symmetry not used in FoFCou.
 Inv3:  Mode=1 IEnd=    16384707.
 Iteration    1 A*A^-1 deviation from unit magnitude is 3.89D-15 for   1123.
 Iteration    1 A*A^-1 deviation from orthogonality  is 1.48D-15 for    414    345.
 Iteration    1 A^-1*A deviation from unit magnitude is 3.77D-15 for    726.
 Iteration    1 A^-1*A deviation from orthogonality  is 1.39D-15 for    810    757.
 E= -769.815571053622    
 DIIS: error= 2.65D-02 at cycle   1 NSaved=   1.
 NSaved= 1 IEnMin= 1 EnMin= -769.815571053622     IErMin= 1 ErrMin= 2.65D-02
 ErrMax= 2.65D-02  0.00D+00 EMaxC= 1.00D-01 BMatC= 1.70D+00 BMatP= 1.70D+00
 IDIUse=3 WtCom= 7.35D-01 WtEn= 2.65D-01
 Coeff-Com:  0.100D+01
 Coeff-En:   0.100D+01
 Coeff:      0.100D+01
 Gap=     0.020 Goal=   None    Shift=    0.000
 Gap=     0.071 Goal=   None    Shift=    0.000
 GapD=    0.020 DampG=0.250 DampE=0.500 DampFc=0.2500 IDamp=-1.
 Damping current iteration by 2.50D-01
 RMSDP=4.52D-03 MaxDP=1.38D-01              OVMax= 5.55D-01

 Cycle   2  Pass 1  IDiag  1:
 RMSU=  1.11D-03    CP:  9.86D-01
 E= -769.987470651644     Delta-E=       -0.171899598022 Rises=F Damp=T
 DIIS: error= 1.43D-02 at cycle   2 NSaved=   2.
 NSaved= 2 IEnMin= 2 EnMin= -769.987470651644     IErMin= 2 ErrMin= 1.43D-02
 ErrMax= 1.43D-02  0.00D+00 EMaxC= 1.00D-01 BMatC= 4.76D-01 BMatP= 1.70D+00
 IDIUse=3 WtCom= 8.57D-01 WtEn= 1.43D-01
 Coeff-Com: -0.669D+00 0.167D+01
 Coeff-En:   0.000D+00 0.100D+01
 Coeff:     -0.573D+00 0.157D+01
 Gap=     0.288 Goal=   None    Shift=    0.000
 Gap=     0.000 Goal=   None    Shift=    0.000
 RMSDP=2.57D-03 MaxDP=1.46D-01 DE=-1.72D-01 OVMax= 7.94D-01

 Cycle   3  Pass 1  IDiag  1:
 RMSU=  2.34D-03    CP:  9.59D-01  1.87D+00
 E= -770.248558898107     Delta-E=       -0.261088246463 Rises=F Damp=F
 DIIS: error= 1.93D-02 at cycle   3 NSaved=   3.
 NSaved= 3 IEnMin= 3 EnMin= -770.248558898107     IErMin= 2 ErrMin= 1.43D-02
 ErrMax= 1.93D-02  0.00D+00 EMaxC= 1.00D-01 BMatC= 5.02D-01 BMatP= 4.76D-01
 IDIUse=3 WtCom= 8.07D-01 WtEn= 1.93D-01
 Coeff-Com: -0.486D+00 0.108D+01 0.405D+00
 Coeff-En:   0.000D+00 0.000D+00 0.100D+01
 Coeff:     -0.393D+00 0.873D+00 0.519D+00
 Gap=     0.268 Goal=   None    Shift=    0.000
 Gap=     0.084 Goal=   None    Shift=    0.000
 RMSDP=1.67D-03 MaxDP=1.02D-01 DE=-2.61D-01 OVMax= 2.04D-01

 Cycle   4  Pass 1  IDiag  1:
 RMSU=  1.13D-03    CP:  9.62D-01  1.89D+00  4.78D-01
 E= -770.343147112176     Delta-E=       -0.094588214069 Rises=F Damp=F
 DIIS: error= 8.81D-03 at cycle   4 NSaved=   4.
 NSaved= 4 IEnMin= 4 EnMin= -770.343147112176     IErMin= 4 ErrMin= 8.81D-03
 ErrMax= 8.81D-03  0.00D+00 EMaxC= 1.00D-01 BMatC= 8.11D-02 BMatP= 4.76D-01
 IDIUse=3 WtCom= 9.12D-01 WtEn= 8.81D-02
 Coeff-Com: -0.144D+00 0.315D+00 0.291D+00 0.538D+00
 Coeff-En:   0.000D+00 0.000D+00 0.134D+00 0.866D+00
 Coeff:     -0.131D+00 0.287D+00 0.277D+00 0.567D+00
 Gap=     0.233 Goal=   None    Shift=    0.000
 Gap=     0.077 Goal=   None    Shift=    0.000
 RMSDP=6.53D-04 MaxDP=6.63D-02 DE=-9.46D-02 OVMax= 2.05D-01

 Cycle   5  Pass 1  IDiag  1:
 RMSU=  4.77D-04    CP:  9.61D-01  1.91D+00  6.22D-01  7.44D-01
 E= -770.360616833655     Delta-E=       -0.017469721479 Rises=F Damp=F
 DIIS: error= 4.27D-03 at cycle   5 NSaved=   5.
 NSaved= 5 IEnMin= 5 EnMin= -770.360616833655     IErMin= 5 ErrMin= 4.27D-03
 ErrMax= 4.27D-03  0.00D+00 EMaxC= 1.00D-01 BMatC= 2.69D-02 BMatP= 8.11D-02
 IDIUse=3 WtCom= 9.57D-01 WtEn= 4.27D-02
 Coeff-Com: -0.327D-01 0.523D-01 0.825D-01 0.405D+00 0.493D+00
 Coeff-En:   0.000D+00 0.000D+00 0.000D+00 0.169D+00 0.831D+00
 Coeff:     -0.313D-01 0.500D-01 0.790D-01 0.395D+00 0.507D+00
 Gap=     0.229 Goal=   None    Shift=    0.000
 Gap=     0.086 Goal=   None    Shift=    0.000
 RMSDP=2.72D-04 MaxDP=1.89D-02 DE=-1.75D-02 OVMax= 3.07D-02

 Cycle   6  Pass 1  IDiag  1:
 RMSU=  2.37D-04    CP:  9.59D-01  1.94D+00  5.88D-01  8.28D-01  9.32D-01
 E= -770.366526383402     Delta-E=       -0.005909549747 Rises=F Damp=F
 DIIS: error= 9.51D-04 at cycle   6 NSaved=   6.
 NSaved= 6 IEnMin= 6 EnMin= -770.366526383402     IErMin= 6 ErrMin= 9.51D-04
 ErrMax= 9.51D-04  0.00D+00 EMaxC= 1.00D-01 BMatC= 2.51D-03 BMatP= 2.69D-02
 IDIUse=3 WtCom= 9.90D-01 WtEn= 9.51D-03
 Coeff-Com: -0.152D-01 0.166D-01-0.207D-01 0.108D+00 0.168D+00 0.744D+00
 Coeff-En:   0.000D+00 0.000D+00 0.000D+00 0.000D+00 0.000D+00 0.100D+01
 Coeff:     -0.150D-01 0.164D-01-0.205D-01 0.107D+00 0.166D+00 0.747D+00
 Gap=     0.231 Goal=   None    Shift=    0.000
 Gap=     0.091 Goal=   None    Shift=    0.000
 RMSDP=1.74D-04 MaxDP=2.05D-02 DE=-5.91D-03 OVMax= 3.25D-02

 Cycle   7  Pass 1  IDiag  1:
 RMSU=  1.32D-04    CP:  9.59D-01  1.96D+00  5.65D-01  8.64D-01  1.10D+00
                    CP:  1.12D+00
 E= -770.367795668707     Delta-E=       -0.001269285305 Rises=F Damp=F
 DIIS: error= 8.75D-04 at cycle   7 NSaved=   7.
 NSaved= 7 IEnMin= 7 EnMin= -770.367795668707     IErMin= 7 ErrMin= 8.75D-04
 ErrMax= 8.75D-04  0.00D+00 EMaxC= 1.00D-01 BMatC= 1.45D-03 BMatP= 2.51D-03
 IDIUse=3 WtCom= 9.91D-01 WtEn= 8.75D-03
 Coeff-Com: -0.322D-02 0.233D-02-0.366D-01-0.219D-01-0.739D-01 0.507D+00
 Coeff-Com:  0.627D+00
 Coeff-En:   0.000D+00 0.000D+00 0.000D+00 0.000D+00 0.000D+00 0.000D+00
 Coeff-En:   0.100D+01
 Coeff:     -0.319D-02 0.231D-02-0.362D-01-0.217D-01-0.732D-01 0.502D+00
 Coeff:      0.630D+00
 Gap=     0.230 Goal=   None    Shift=    0.000
 Gap=     0.092 Goal=   None    Shift=    0.000
 RMSDP=1.33D-04 MaxDP=1.77D-02 DE=-1.27D-03 OVMax= 2.66D-02

 Cycle   8  Pass 1  IDiag  1:
 RMSU=  7.14D-05    CP:  9.59D-01  1.98D+00  5.50D-01  8.79D-01  1.20D+00
                    CP:  1.49D+00  1.21D+00
 E= -770.368767786112     Delta-E=       -0.000972117405 Rises=F Damp=F
 DIIS: error= 7.98D-04 at cycle   8 NSaved=   8.
 NSaved= 8 IEnMin= 8 EnMin= -770.368767786112     IErMin= 8 ErrMin= 7.98D-04
 ErrMax= 7.98D-04  0.00D+00 EMaxC= 1.00D-01 BMatC= 2.54D-04 BMatP= 1.45D-03
 IDIUse=3 WtCom= 9.92D-01 WtEn= 7.98D-03
 Coeff-Com: -0.107D-02 0.402D-02-0.404D-02-0.149D-01-0.756D-01 0.163D-01
 Coeff-Com:  0.211D+00 0.864D+00
 Coeff-En:   0.000D+00 0.000D+00 0.000D+00 0.000D+00 0.000D+00 0.000D+00
 Coeff-En:   0.000D+00 0.100D+01
 Coeff:     -0.106D-02 0.398D-02-0.401D-02-0.147D-01-0.750D-01 0.162D-01
 Coeff:      0.209D+00 0.865D+00
 Gap=     0.230 Goal=   None    Shift=    0.000
 Gap=     0.093 Goal=   None    Shift=    0.000
 RMSDP=1.21D-04 MaxDP=1.98D-02 DE=-9.72D-04 OVMax= 3.37D-02

 Cycle   9  Pass 1  IDiag  1:
 RMSU=  4.10D-05    CP:  9.58D-01  1.99D+00  5.38D-01  8.86D-01  1.27D+00
                    CP:  1.72D+00  1.74D+00  1.77D+00
 E= -770.369431140638     Delta-E=       -0.000663354526 Rises=F Damp=F
 DIIS: error= 7.05D-04 at cycle   9 NSaved=   9.
 NSaved= 9 IEnMin= 9 EnMin= -770.369431140638     IErMin= 9 ErrMin= 7.05D-04
 ErrMax= 7.05D-04  0.00D+00 EMaxC= 1.00D-01 BMatC= 1.70D-04 BMatP= 2.54D-04
 IDIUse=3 WtCom= 9.93D-01 WtEn= 7.05D-03
 Coeff-Com: -0.131D-02 0.575D-02 0.143D-01 0.866D-02-0.124D-01-0.168D+00
 Coeff-Com: -0.126D+00 0.486D+00 0.793D+00
 Coeff-En:   0.000D+00 0.000D+00 0.000D+00 0.000D+00 0.000D+00 0.000D+00
 Coeff-En:   0.000D+00 0.000D+00 0.100D+01
 Coeff:     -0.130D-02 0.571D-02 0.142D-01 0.860D-02-0.123D-01-0.167D+00
 Coeff:     -0.125D+00 0.482D+00 0.795D+00
 Gap=     0.231 Goal=   None    Shift=    0.000
 Gap=     0.094 Goal=   None    Shift=    0.000
 RMSDP=1.17D-04 MaxDP=1.95D-02 DE=-6.63D-04 OVMax= 3.52D-02

 Cycle  10  Pass 1  IDiag  1:
 RMSU=  2.35D-05    CP:  9.58D-01  2.00D+00  5.28D-01  8.89D-01  1.31D+00
                    CP:  1.92D+00  2.21D+00  2.73D+00  1.71D+00
 E= -770.370012171059     Delta-E=       -0.000581030421 Rises=F Damp=F
 DIIS: error= 6.41D-04 at cycle  10 NSaved=  10.
 NSaved=10 IEnMin=10 EnMin= -770.370012171059     IErMin=10 ErrMin= 6.41D-04
 ErrMax= 6.41D-04  0.00D+00 EMaxC= 1.00D-01 BMatC= 1.03D-04 BMatP= 1.70D-04
 IDIUse=3 WtCom= 9.94D-01 WtEn= 6.41D-03
 Coeff-Com:  0.251D-03-0.113D-02 0.119D-01 0.368D-01 0.966D-01-0.525D-01
 Coeff-Com: -0.253D+00-0.821D+00-0.126D+00 0.211D+01
 Coeff-En:   0.000D+00 0.000D+00 0.000D+00 0.000D+00 0.000D+00 0.000D+00
 Coeff-En:   0.000D+00 0.000D+00 0.000D+00 0.100D+01
 Coeff:      0.249D-03-0.112D-02 0.118D-01 0.366D-01 0.959D-01-0.521D-01
 Coeff:     -0.252D+00-0.816D+00-0.126D+00 0.210D+01
 Gap=     0.232 Goal=   None    Shift=    0.000
 Gap=     0.095 Goal=   None    Shift=    0.000
 RMSDP=2.89D-04 MaxDP=4.69D-02 DE=-5.81D-04 OVMax= 9.43D-02

 Cycle  11  Pass 1  IDiag  1:
 RMSU=  1.73D-04    CP:  9.57D-01  2.04D+00  4.98D-01  8.88D-01  1.38D+00
                    CP:  2.31D+00  3.00D+00  3.00D+00  3.00D+00  3.00D+00
 E= -770.371125710981     Delta-E=       -0.001113539922 Rises=F Damp=F
 DIIS: error= 4.28D-04 at cycle  11 NSaved=  11.
 NSaved=11 IEnMin=11 EnMin= -770.371125710981     IErMin=11 ErrMin= 4.28D-04
 ErrMax= 4.28D-04  0.00D+00 EMaxC= 1.00D-01 BMatC= 6.10D-05 BMatP= 1.03D-04
 IDIUse=3 WtCom= 9.96D-01 WtEn= 4.28D-03
 Coeff-Com: -0.221D-02 0.187D-02 0.862D-03 0.226D-01 0.492D-01 0.855D-01
 Coeff-Com: -0.282D-01-0.586D+00-0.559D+00 0.101D+01 0.100D+01
 Coeff-En:   0.000D+00 0.000D+00 0.000D+00 0.000D+00 0.000D+00 0.000D+00
 Coeff-En:   0.000D+00 0.000D+00 0.000D+00 0.000D+00 0.100D+01
 Coeff:     -0.220D-02 0.187D-02 0.858D-03 0.225D-01 0.490D-01 0.852D-01
 Coeff:     -0.281D-01-0.583D+00-0.556D+00 0.101D+01 0.100D+01
 Gap=     0.232 Goal=   None    Shift=    0.000
 Gap=     0.097 Goal=   None    Shift=    0.000
 RMSDP=1.70D-04 MaxDP=2.53D-02 DE=-1.11D-03 OVMax= 5.68D-02

 Cycle  12  Pass 1  IDiag  1:
 RMSU=  6.79D-05    CP:  9.57D-01  2.07D+00  4.78D-01  8.83D-01  1.37D+00
                    CP:  2.50D+00  3.00D+00  3.00D+00  3.00D+00  3.00D+00
                    CP:  1.80D+00
 E= -770.371567467804     Delta-E=       -0.000441756822 Rises=F Damp=F
 DIIS: error= 2.87D-04 at cycle  12 NSaved=  12.
 NSaved=12 IEnMin=12 EnMin= -770.371567467804     IErMin=12 ErrMin= 2.87D-04
 ErrMax= 2.87D-04  0.00D+00 EMaxC= 1.00D-01 BMatC= 3.93D-05 BMatP= 6.10D-05
 IDIUse=3 WtCom= 9.97D-01 WtEn= 2.87D-03
 Coeff-Com: -0.257D-02 0.342D-02-0.275D-02 0.740D-02-0.903D-03 0.883D-01
 Coeff-Com:  0.711D-01-0.110D+00-0.351D+00-0.822D-02 0.531D+00 0.774D+00
 Coeff-En:   0.000D+00 0.000D+00 0.000D+00 0.000D+00 0.000D+00 0.000D+00
 Coeff-En:   0.000D+00 0.000D+00 0.000D+00 0.000D+00 0.000D+00 0.100D+01
 Coeff:     -0.256D-02 0.341D-02-0.274D-02 0.738D-02-0.901D-03 0.881D-01
 Coeff:      0.709D-01-0.110D+00-0.350D+00-0.820D-02 0.530D+00 0.774D+00
 Gap=     0.232 Goal=   None    Shift=    0.000
 Gap=     0.096 Goal=   None    Shift=    0.000
 RMSDP=8.63D-05 MaxDP=1.17D-02 DE=-4.42D-04 OVMax= 2.81D-02

 Cycle  13  Pass 1  IDiag  1:
 RMSU=  1.49D-05    CP:  9.57D-01  2.08D+00  4.67D-01  8.79D-01  1.36D+00
                    CP:  2.57D+00  3.00D+00  3.00D+00  3.00D+00  3.00D+00
                    CP:  2.20D+00  1.52D+00
 E= -770.371732231891     Delta-E=       -0.000164764087 Rises=F Damp=F
 DIIS: error= 2.18D-04 at cycle  13 NSaved=  13.
 NSaved=13 IEnMin=13 EnMin= -770.371732231891     IErMin=13 ErrMin= 2.18D-04
 ErrMax= 2.18D-04  0.00D+00 EMaxC= 1.00D-01 BMatC= 1.72D-05 BMatP= 3.93D-05
 IDIUse=3 WtCom= 9.98D-01 WtEn= 2.18D-03
 Coeff-Com:  0.532D-03-0.386D-03 0.766D-03 0.180D-03-0.919D-02-0.237D-01
 Coeff-Com: -0.142D-01 0.153D+00 0.154D+00-0.270D+00-0.757D+00 0.110D+00
 Coeff-Com:  0.166D+01
 Coeff-En:   0.000D+00 0.000D+00 0.000D+00 0.000D+00 0.000D+00 0.000D+00
 Coeff-En:   0.000D+00 0.000D+00 0.000D+00 0.000D+00 0.000D+00 0.000D+00
 Coeff-En:   0.100D+01
 Coeff:      0.531D-03-0.385D-03 0.764D-03 0.180D-03-0.917D-02-0.236D-01
 Coeff:     -0.141D-01 0.153D+00 0.153D+00-0.270D+00-0.756D+00 0.110D+00
 Coeff:      0.166D+01
 Gap=     0.232 Goal=   None    Shift=    0.000
 Gap=     0.096 Goal=   None    Shift=    0.000
 RMSDP=1.68D-04 MaxDP=2.17D-02 DE=-1.65D-04 OVMax= 5.45D-02

 Cycle  14  Pass 1  IDiag  1:
 RMSU=  2.48D-05    CP:  9.56D-01  2.11D+00  4.44D-01  8.67D-01  1.33D+00
                    CP:  2.71D+00  3.00D+00  3.00D+00  3.00D+00  3.00D+00
                    CP:  2.95D+00  2.50D+00  2.35D+00
 E= -770.371911703671     Delta-E=       -0.000179471780 Rises=F Damp=F
 DIIS: error= 7.59D-05 at cycle  14 NSaved=  14.
 NSaved=14 IEnMin=14 EnMin= -770.371911703671     IErMin=14 ErrMin= 7.59D-05
 ErrMax= 7.59D-05  0.00D+00 EMaxC= 1.00D-01 BMatC= 1.20D-05 BMatP= 1.72D-05
 IDIUse=1 WtCom= 1.00D+00 WtEn= 0.00D+00
 Coeff-Com:  0.993D-03-0.100D-02 0.277D-02 0.613D-03-0.204D-02-0.510D-01
 Coeff-Com: -0.486D-01 0.110D+00 0.241D+00-0.732D-01-0.775D+00-0.243D+00
 Coeff-Com:  0.122D+01 0.622D+00
 Coeff:      0.993D-03-0.100D-02 0.277D-02 0.613D-03-0.204D-02-0.510D-01
 Coeff:     -0.486D-01 0.110D+00 0.241D+00-0.732D-01-0.775D+00-0.243D+00
 Coeff:      0.122D+01 0.622D+00
 Gap=     0.232 Goal=   None    Shift=    0.000
 Gap=     0.096 Goal=   None    Shift=    0.000
 RMSDP=5.00D-05 MaxDP=5.68D-03 DE=-1.79D-04 OVMax= 1.58D-02

 Cycle  15  Pass 1  IDiag  1:
 RMSU=  3.05D-05    CP:  9.56D-01  2.12D+00  4.37D-01  8.63D-01  1.32D+00
                    CP:  2.74D+00  3.00D+00  3.00D+00  3.00D+00  3.00D+00
                    CP:  3.00D+00  2.80D+00  3.00D+00  1.31D+00
 E= -770.371934738026     Delta-E=       -0.000023034355 Rises=F Damp=F
 DIIS: error= 3.42D-05 at cycle  15 NSaved=  15.
 NSaved=15 IEnMin=15 EnMin= -770.371934738026     IErMin=15 ErrMin= 3.42D-05
 ErrMax= 3.42D-05  0.00D+00 EMaxC= 1.00D-01 BMatC= 7.76D-07 BMatP= 1.20D-05
 IDIUse=1 WtCom= 1.00D+00 WtEn= 0.00D+00
 Coeff-Com:  0.275D-03-0.482D-03 0.802D-03 0.943D-03 0.389D-02-0.609D-02
 Coeff-Com: -0.111D-01-0.469D-01 0.144D-01 0.130D+00-0.768D-01-0.142D+00
 Coeff-Com: -0.145D-01 0.794D-01 0.107D+01
 Coeff:      0.275D-03-0.482D-03 0.802D-03 0.943D-03 0.389D-02-0.609D-02
 Coeff:     -0.111D-01-0.469D-01 0.144D-01 0.130D+00-0.768D-01-0.142D+00
 Coeff:     -0.145D-01 0.794D-01 0.107D+01
 Gap=     0.232 Goal=   None    Shift=    0.000
 Gap=     0.096 Goal=   None    Shift=    0.000
 RMSDP=2.73D-05 MaxDP=3.07D-03 DE=-2.30D-05 OVMax= 8.50D-03

 Cycle  16  Pass 1  IDiag  1:
 RMSU=  5.52D-06    CP:  9.56D-01  2.12D+00  4.33D-01  8.60D-01  1.31D+00
                    CP:  2.76D+00  3.00D+00  3.00D+00  3.00D+00  3.00D+00
                    CP:  3.00D+00  2.96D+00  3.00D+00  1.55D+00  1.66D+00
 E= -770.371939335868     Delta-E=       -0.000004597842 Rises=F Damp=F
 DIIS: error= 1.12D-05 at cycle  16 NSaved=  16.
 NSaved=16 IEnMin=16 EnMin= -770.371939335868     IErMin=16 ErrMin= 1.12D-05
 ErrMax= 1.12D-05  0.00D+00 EMaxC= 1.00D-01 BMatC= 1.75D-07 BMatP= 7.76D-07
 IDIUse=1 WtCom= 1.00D+00 WtEn= 0.00D+00
 Coeff-Com: -0.118D-04-0.863D-04 0.114D-03 0.707D-03 0.260D-02 0.314D-02
 Coeff-Com: -0.356D-03-0.410D-01-0.250D-01 0.798D-01 0.475D-01-0.454D-01
 Coeff-Com: -0.137D+00-0.471D-01 0.465D+00 0.697D+00
 Coeff:     -0.118D-04-0.863D-04 0.114D-03 0.707D-03 0.260D-02 0.314D-02
 Coeff:     -0.356D-03-0.410D-01-0.250D-01 0.798D-01 0.475D-01-0.454D-01
 Coeff:     -0.137D+00-0.471D-01 0.465D+00 0.697D+00
 Gap=     0.232 Goal=   None    Shift=    0.000
 Gap=     0.096 Goal=   None    Shift=    0.000
 RMSDP=9.09D-06 MaxDP=1.03D-03 DE=-4.60D-06 OVMax= 2.85D-03

 Cycle  17  Pass 1  IDiag  1:
 RMSU=  1.54D-06    CP:  9.56D-01  2.12D+00  4.32D-01  8.59D-01  1.31D+00
                    CP:  2.77D+00  3.00D+00  3.00D+00  3.00D+00  3.00D+00
                    CP:  3.00D+00  3.00D+00  3.00D+00  1.64D+00  1.89D+00
                    CP:  1.25D+00
 E= -770.371939815490     Delta-E=       -0.000000479622 Rises=F Damp=F
 DIIS: error= 4.70D-06 at cycle  17 NSaved=  17.
 NSaved=17 IEnMin=17 EnMin= -770.371939815490     IErMin=17 ErrMin= 4.70D-06
 ErrMax= 4.70D-06  0.00D+00 EMaxC= 1.00D-01 BMatC= 6.21D-08 BMatP= 1.75D-07
 IDIUse=1 WtCom= 1.00D+00 WtEn= 0.00D+00
 Coeff-Com: -0.670D-04 0.550D-04-0.517D-04 0.328D-03 0.690D-03 0.228D-02
 Coeff-Com:  0.909D-03-0.139D-01-0.122D-01 0.242D-01 0.330D-01-0.406D-02
 Coeff-Com: -0.733D-01-0.474D-01 0.562D-01 0.394D+00 0.640D+00
 Coeff:     -0.670D-04 0.550D-04-0.517D-04 0.328D-03 0.690D-03 0.228D-02
 Coeff:      0.909D-03-0.139D-01-0.122D-01 0.242D-01 0.330D-01-0.406D-02
 Coeff:     -0.733D-01-0.474D-01 0.562D-01 0.394D+00 0.640D+00
 Gap=     0.232 Goal=   None    Shift=    0.000
 Gap=     0.096 Goal=   None    Shift=    0.000
 RMSDP=2.75D-06 MaxDP=3.08D-04 DE=-4.80D-07 OVMax= 8.29D-04

 Cycle  18  Pass 1  IDiag  1:
 RMSU=  9.89D-07    CP:  9.56D-01  2.12D+00  4.31D-01  8.59D-01  1.31D+00
                    CP:  2.77D+00  3.00D+00  3.00D+00  3.00D+00  3.00D+00
                    CP:  3.00D+00  3.00D+00  3.00D+00  1.66D+00  1.95D+00
                    CP:  1.37D+00  1.38D+00
 E= -770.371939871209     Delta-E=       -0.000000055720 Rises=F Damp=F
 DIIS: error= 1.04D-06 at cycle  18 NSaved=  18.
 NSaved=18 IEnMin=18 EnMin= -770.371939871209     IErMin=18 ErrMin= 1.04D-06
 ErrMax= 1.04D-06  0.00D+00 EMaxC= 1.00D-01 BMatC= 5.73D-09 BMatP= 6.21D-08
 IDIUse=1 WtCom= 1.00D+00 WtEn= 0.00D+00
 Coeff-Com: -0.329D-04 0.438D-04-0.205D-04 0.105D-03 0.114D-03 0.384D-03
 Coeff-Com: -0.144D-03-0.263D-02-0.249D-02 0.410D-02 0.668D-02-0.170D-03
 Coeff-Com: -0.125D-01-0.129D-01-0.226D-01 0.103D+00 0.288D+00 0.651D+00
 Coeff:     -0.329D-04 0.438D-04-0.205D-04 0.105D-03 0.114D-03 0.384D-03
 Coeff:     -0.144D-03-0.263D-02-0.249D-02 0.410D-02 0.668D-02-0.170D-03
 Coeff:     -0.125D-01-0.129D-01-0.226D-01 0.103D+00 0.288D+00 0.651D+00
 Gap=     0.232 Goal=   None    Shift=    0.000
 Gap=     0.096 Goal=   None    Shift=    0.000
 RMSDP=9.28D-07 MaxDP=1.05D-04 DE=-5.57D-08 OVMax= 2.88D-04

 Cycle  19  Pass 1  IDiag  1:
 RMSU=  2.01D-07    CP:  9.56D-01  2.13D+00  4.31D-01  8.59D-01  1.31D+00
                    CP:  2.77D+00  3.00D+00  3.00D+00  3.00D+00  3.00D+00
                    CP:  3.00D+00  3.00D+00  3.00D+00  1.67D+00  1.97D+00
                    CP:  1.39D+00  1.59D+00  1.13D+00
 E= -770.371939875091     Delta-E=       -0.000000003881 Rises=F Damp=F
 DIIS: error= 8.77D-07 at cycle  19 NSaved=  19.
 NSaved=19 IEnMin=19 EnMin= -770.371939875091     IErMin=19 ErrMin= 8.77D-07
 ErrMax= 8.77D-07  0.00D+00 EMaxC= 1.00D-01 BMatC= 1.47D-09 BMatP= 5.73D-09
 IDIUse=1 WtCom= 1.00D+00 WtEn= 0.00D+00
 Coeff-Com:  0.390D-05-0.111D-05 0.516D-05 0.397D-05-0.693D-04-0.384D-03
 Coeff-Com: -0.439D-03 0.203D-02 0.241D-02-0.299D-02-0.513D-02 0.474D-03
 Coeff-Com:  0.107D-01 0.448D-02-0.236D-01-0.534D-01-0.427D-01 0.302D+00
 Coeff-Com:  0.807D+00
 Coeff:      0.390D-05-0.111D-05 0.516D-05 0.397D-05-0.693D-04-0.384D-03
 Coeff:     -0.439D-03 0.203D-02 0.241D-02-0.299D-02-0.513D-02 0.474D-03
 Coeff:      0.107D-01 0.448D-02-0.236D-01-0.534D-01-0.427D-01 0.302D+00
 Coeff:      0.807D+00
 Gap=     0.232 Goal=   None    Shift=    0.000
 Gap=     0.096 Goal=   None    Shift=    0.000
 RMSDP=1.52D-07 MaxDP=8.07D-06 DE=-3.88D-09 OVMax= 2.45D-05

 Cycle  20  Pass 1  IDiag  1:
 RMSU=  1.03D-07    CP:  9.56D-01  2.13D+00  4.31D-01  8.59D-01  1.31D+00
                    CP:  2.77D+00  3.00D+00  3.00D+00  3.00D+00  3.00D+00
                    CP:  3.00D+00  3.00D+00  3.00D+00  1.67D+00  1.97D+00
                    CP:  1.40D+00  1.57D+00  1.20D+00  7.19D-01
 E= -770.371939875858     Delta-E=       -0.000000000767 Rises=F Damp=F
 DIIS: error= 4.81D-07 at cycle  20 NSaved=  20.
 NSaved=20 IEnMin=20 EnMin= -770.371939875858     IErMin=20 ErrMin= 4.81D-07
 ErrMax= 4.81D-07  0.00D+00 EMaxC= 1.00D-01 BMatC= 4.15D-10 BMatP= 1.47D-09
 IDIUse=1 WtCom= 1.00D+00 WtEn= 0.00D+00
 Coeff-Com:  0.474D-05-0.527D-05-0.705D-06-0.195D-04-0.216D-04-0.470D-04
 Coeff-Com:  0.446D-04 0.745D-03 0.224D-03-0.151D-02-0.129D-02 0.438D-03
 Coeff-Com:  0.427D-02 0.328D-02-0.360D-02-0.249D-01-0.421D-01 0.274D-03
 Coeff-Com:  0.299D+00 0.766D+00
 Coeff:      0.474D-05-0.527D-05-0.705D-06-0.195D-04-0.216D-04-0.470D-04
 Coeff:      0.446D-04 0.745D-03 0.224D-03-0.151D-02-0.129D-02 0.438D-03
 Coeff:      0.427D-02 0.328D-02-0.360D-02-0.249D-01-0.421D-01 0.274D-03
 Coeff:      0.299D+00 0.766D+00
 Gap=     0.232 Goal=   None    Shift=    0.000
 Gap=     0.096 Goal=   None    Shift=    0.000
 RMSDP=6.62D-08 MaxDP=4.29D-06 DE=-7.67D-10 OVMax= 8.88D-06

 Cycle  21  Pass 1  IDiag  1:
 Restarting incremental Fock formation.
 E= -770.371939876068     Delta-E=       -0.000000000211 Rises=F Damp=F
 DIIS: error= 2.17D-07 at cycle  21 NSaved=  20.
 NSaved=20 IEnMin=20 EnMin= -770.371939876068     IErMin=20 ErrMin= 2.17D-07
 ErrMax= 2.17D-07  0.00D+00 EMaxC= 1.00D-01 BMatC= 7.40D-11 BMatP= 4.15D-10
 IDIUse=1 WtCom= 1.00D+00 WtEn= 0.00D+00
 Coeff-Com:  0.794D-06-0.127D-05-0.147D-04-0.181D-04 0.647D-04 0.154D-03
 Coeff-Com:  0.157D-03-0.223D-03-0.431D-03 0.633D-03 0.525D-03-0.778D-03
 Coeff-Com:  0.976D-04 0.144D-02-0.190D-02-0.987D-02-0.670D-01-0.474D-01
 Coeff-Com:  0.275D+00 0.849D+00
 Coeff:      0.794D-06-0.127D-05-0.147D-04-0.181D-04 0.647D-04 0.154D-03
 Coeff:      0.157D-03-0.223D-03-0.431D-03 0.633D-03 0.525D-03-0.778D-03
 Coeff:      0.976D-04 0.144D-02-0.190D-02-0.987D-02-0.670D-01-0.474D-01
 Coeff:      0.275D+00 0.849D+00
 Gap=     0.232 Goal=   None    Shift=    0.000
 Gap=     0.096 Goal=   None    Shift=    0.000
 RMSDP=7.29D-08 MaxDP=8.20D-06 DE=-2.11D-10 OVMax= 2.00D-05

 Cycle  22  Pass 1  IDiag  1:
 RMSU=  7.29D-08    CP:  1.00D+00
 E= -770.371939876158     Delta-E=       -0.000000000090 Rises=F Damp=F
 DIIS: error= 1.67D-07 at cycle  22 NSaved=  20.
 NSaved=20 IEnMin=20 EnMin= -770.371939876158     IErMin=20 ErrMin= 1.67D-07
 ErrMax= 1.67D-07  0.00D+00 EMaxC= 1.00D-01 BMatC= 4.78D-11 BMatP= 7.40D-11
 IDIUse=1 WtCom= 1.00D+00 WtEn= 0.00D+00
 Coeff-Com:  0.232D-06-0.322D-05-0.684D-05 0.814D-05 0.320D-04-0.106D-03
 Coeff-Com: -0.763D-04 0.174D-03 0.451D-03 0.509D-05-0.136D-02-0.678D-03
 Coeff-Com:  0.220D-02 0.804D-02 0.124D-01-0.403D-01-0.158D+00-0.240D+00
 Coeff-Com:  0.548D+00 0.870D+00
 Coeff:      0.232D-06-0.322D-05-0.684D-05 0.814D-05 0.320D-04-0.106D-03
 Coeff:     -0.763D-04 0.174D-03 0.451D-03 0.509D-05-0.136D-02-0.678D-03
 Coeff:      0.220D-02 0.804D-02 0.124D-01-0.403D-01-0.158D+00-0.240D+00
 Coeff:      0.548D+00 0.870D+00
 Gap=     0.232 Goal=   None    Shift=    0.000
 Gap=     0.096 Goal=   None    Shift=    0.000
 RMSDP=3.16D-08 MaxDP=1.58D-06 DE=-8.96D-11 OVMax= 5.63D-06

 Cycle  23  Pass 1  IDiag  1:
 RMSU=  3.09D-08    CP:  1.00D+00  1.09D+00
 E= -770.371939876206     Delta-E=       -0.000000000048 Rises=F Damp=F
 DIIS: error= 7.74D-08 at cycle  23 NSaved=  20.
 NSaved=20 IEnMin=20 EnMin= -770.371939876206     IErMin=20 ErrMin= 7.74D-08
 ErrMax= 7.74D-08  0.00D+00 EMaxC= 1.00D-01 BMatC= 7.15D-12 BMatP= 4.78D-11
 IDIUse=1 WtCom= 1.00D+00 WtEn= 0.00D+00
 Coeff-Com:  0.148D-05-0.190D-05-0.749D-05-0.135D-04-0.690D-04 0.281D-04
 Coeff-Com:  0.133D-03 0.129D-03-0.621D-04-0.608D-03-0.410D-03 0.736D-03
 Coeff-Com:  0.391D-02 0.797D-02-0.502D-02-0.626D-01-0.179D+00 0.859D-01
 Coeff-Com:  0.400D+00 0.749D+00
 Coeff:      0.148D-05-0.190D-05-0.749D-05-0.135D-04-0.690D-04 0.281D-04
 Coeff:      0.133D-03 0.129D-03-0.621D-04-0.608D-03-0.410D-03 0.736D-03
 Coeff:      0.391D-02 0.797D-02-0.502D-02-0.626D-01-0.179D+00 0.859D-01
 Coeff:      0.400D+00 0.749D+00
 Gap=     0.232 Goal=   None    Shift=    0.000
 Gap=     0.096 Goal=   None    Shift=    0.000
 RMSDP=1.20D-08 MaxDP=6.90D-07 DE=-4.82D-11 OVMax= 2.12D-06

 Cycle  24  Pass 1  IDiag  1:
 RMSU=  7.48D-09    CP:  1.00D+00  1.13D+00  1.29D+00
 E= -770.371939876218     Delta-E=       -0.000000000012 Rises=F Damp=F
 DIIS: error= 3.28D-08 at cycle  24 NSaved=  20.
 NSaved=20 IEnMin=20 EnMin= -770.371939876218     IErMin=20 ErrMin= 3.28D-08
 ErrMax= 3.28D-08  0.00D+00 EMaxC= 1.00D-01 BMatC= 1.99D-12 BMatP= 7.15D-12
 IDIUse=1 WtCom= 1.00D+00 WtEn= 0.00D+00
 Coeff-Com: -0.146D-05-0.932D-05-0.149D-04 0.129D-04 0.501D-04-0.661D-05
 Coeff-Com: -0.124D-03-0.453D-04 0.201D-03 0.493D-04-0.795D-04-0.851D-03
 Coeff-Com: -0.109D-02 0.851D-02 0.179D-01 0.736D-02-0.141D+00-0.846D-01
 Coeff-Com:  0.326D+00 0.867D+00
 Coeff:     -0.146D-05-0.932D-05-0.149D-04 0.129D-04 0.501D-04-0.661D-05
 Coeff:     -0.124D-03-0.453D-04 0.201D-03 0.493D-04-0.795D-04-0.851D-03
 Coeff:     -0.109D-02 0.851D-02 0.179D-01 0.736D-02-0.141D+00-0.846D-01
 Coeff:      0.326D+00 0.867D+00
 Gap=     0.232 Goal=   None    Shift=    0.000
 Gap=     0.096 Goal=   None    Shift=    0.000
 RMSDP=6.59D-09 MaxDP=3.64D-07 DE=-1.18D-11 OVMax= 1.16D-06

 Error on total polarization charges =  0.00982
 SCF Done:  E(UB3LYP) =  -770.371939876     A.U. after   24 cycles
            NFock= 24  Conv=0.66D-08     -V/T= 2.0091
 <Sx>= 0.0000 <Sy>= 0.0000 <Sz>= 0.5000 <S**2>= 0.7534 S= 0.5017
 <L.S>=  0.00000000000    
 KE= 7.633935747438D+02 PE=-4.463405174469D+03 EE= 1.593123909172D+03
 Annihilation of the first spin contaminant:
 S**2 before annihilation     0.7534,   after     0.7500
 Leave Link  502 at Sat May 25 04:18:15 2019, MaxMem=   104857600 cpu:            1858.6 elap:              59.0
 (Enter /opt/software/gaussian/g16.b01/l801.exe)
 DoSCS=F DFT=T ScalE2(SS,OS)=  1.000000  1.000000
 ExpMin= 1.61D-01 ExpMax= 5.48D+03 ExpMxC= 8.25D+02 IAcc=3 IRadAn=         5 AccDes= 0.00D+00
 HarFok:  IExCor=  205 AccDes= 0.00D+00 IRadAn=         5 IDoV=-2 UseB2=F ITyADJ=14
 ICtDFT= 12500011 ScaDFX=  1.000000  1.000000  1.000000  1.000000
 Largest valence mixing into a core orbital is  5.69D-05
 Largest core mixing into a valence orbital is  1.20D-05
 Largest valence mixing into a core orbital is  5.71D-05
 Largest core mixing into a valence orbital is  1.21D-05
 Range of M.O.s used for correlation:    19   355
 NBasis=   355 NAE=    65 NBE=    64 NFC=    18 NFV=     0
 NROrb=    337 NOA=    47 NOB=    46 NVA=   290 NVB=   291

 **** Warning!!: The smallest beta delta epsilon is  0.95851757D-01

 Leave Link  801 at Sat May 25 04:18:15 2019, MaxMem=   104857600 cpu:               6.6 elap:               0.3
 (Enter /opt/software/gaussian/g16.b01/l914.exe)
 UHF ground state
 Ignoring spin specification with unrestricted ground state.
 Two-electron integrals replicated using symmetry.
 MDV=   104857600 DFT=T DoStab=F Mixed=T DoRPA=T DoScal=F NonHer=T
 NEqPCM:  Using non-equilibrium solvation (IEInf=1, Eps=  35.6880, EpsInf=   1.8069)
 Inv3:  Mode=1 IEnd=    16384707.
 Iteration    1 A*A^-1 deviation from unit magnitude is 3.11D-15 for   1094.
 Iteration    1 A*A^-1 deviation from orthogonality  is 2.24D-15 for   1287    911.
 Iteration    1 A^-1*A deviation from unit magnitude is 3.11D-15 for    360.
 Iteration    1 A^-1*A deviation from orthogonality  is 2.25D-15 for   1980    523.
 Making orbital integer symmetry assigments:
 Orbital symmetries:
 Alpha Orbitals:
       Occupied  (A) (A) (A) (A) (A) (A) (A) (A) (A) (A) (A) (A)
                 (A) (A) (A) (A) (A) (A) (A) (A) (A) (A) (A) (A)
                 (A) (A) (A) (A) (A) (A) (A) (A) (A) (A) (A) (A)
                 (A) (A) (A) (A) (A) (A) (A) (A) (A) (A) (A) (A)
                 (A) (A) (A) (A) (A) (A) (A) (A) (A) (A) (A) (A)
                 (A) (A) (A) (A) (A)
       Virtual   (A) (A) (A) (A) (A) (A) (A) (A) (A) (A) (A) (A)
                 (A) (A) (A) (A) (A) (A) (A) (A) (A) (A) (A) (A)
                 (A) (A) (A) (A) (A) (A) (A) (A) (A) (A) (A) (A)
                 (A) (A) (A) (A) (A) (A) (A) (A) (A) (A) (A) (A)
                 (A) (A) (A) (A) (A) (A) (A) (A) (A) (A) (A) (A)
                 (A) (A) (A) (A) (A) (A) (A) (A) (A) (A) (A) (A)
                 (A) (A) (A) (A) (A) (A) (A) (A) (A) (A) (A) (A)
                 (A) (A) (A) (A) (A) (A) (A) (A) (A) (A) (A) (A)
                 (A) (A) (A) (A) (A) (A) (A) (A) (A) (A) (A) (A)
                 (A) (A) (A) (A) (A) (A) (A) (A) (A) (A) (A) (A)
                 (A) (A) (A) (A) (A) (A) (A) (A) (A) (A) (A) (A)
                 (A) (A) (A) (A) (A) (A) (A) (A) (A) (A) (A) (A)
                 (A) (A) (A) (A) (A) (A) (A) (A) (A) (A) (A) (A)
                 (A) (A) (A) (A) (A) (A) (A) (A) (A) (A) (A) (A)
                 (A) (A) (A) (A) (A) (A) (A) (A) (A) (A) (A) (A)
                 (A) (A) (A) (A) (A) (A) (A) (A) (A) (A) (A) (A)
                 (A) (A) (A) (A) (A) (A) (A) (A) (A) (A) (A) (A)
                 (A) (A) (A) (A) (A) (A) (A) (A) (A) (A) (A) (A)
                 (A) (A) (A) (A) (A) (A) (A) (A) (A) (A) (A) (A)
                 (A) (A) (A) (A) (A) (A) (A) (A) (A) (A) (A) (A)
                 (A) (A) (A) (A) (A) (A) (A) (A) (A) (A) (A) (A)
                 (A) (A) (A) (A) (A) (A) (A) (A) (A) (A) (A) (A)
                 (A) (A) (A) (A) (A) (A) (A) (A) (A) (A) (A) (A)
                 (A) (A) (A) (A) (A) (A) (A) (A) (A) (A) (A) (A)
                 (A) (A)
 Beta  Orbitals:
       Occupied  (A) (A) (A) (A) (A) (A) (A) (A) (A) (A) (A) (A)
                 (A) (A) (A) (A) (A) (A) (A) (A) (A) (A) (A) (A)
                 (A) (A) (A) (A) (A) (A) (A) (A) (A) (A) (A) (A)
                 (A) (A) (A) (A) (A) (A) (A) (A) (A) (A) (A) (A)
                 (A) (A) (A) (A) (A) (A) (A) (A) (A) (A) (A) (A)
                 (A) (A) (A) (A)
       Virtual   (A) (A) (A) (A) (A) (A) (A) (A) (A) (A) (A) (A)
                 (A) (A) (A) (A) (A) (A) (A) (A) (A) (A) (A) (A)
                 (A) (A) (A) (A) (A) (A) (A) (A) (A) (A) (A) (A)
                 (A) (A) (A) (A) (A) (A) (A) (A) (A) (A) (A) (A)
                 (A) (A) (A) (A) (A) (A) (A) (A) (A) (A) (A) (A)
                 (A) (A) (A) (A) (A) (A) (A) (A) (A) (A) (A) (A)
                 (A) (A) (A) (A) (A) (A) (A) (A) (A) (A) (A) (A)
                 (A) (A) (A) (A) (A) (A) (A) (A) (A) (A) (A) (A)
                 (A) (A) (A) (A) (A) (A) (A) (A) (A) (A) (A) (A)
                 (A) (A) (A) (A) (A) (A) (A) (A) (A) (A) (A) (A)
                 (A) (A) (A) (A) (A) (A) (A) (A) (A) (A) (A) (A)
                 (A) (A) (A) (A) (A) (A) (A) (A) (A) (A) (A) (A)
                 (A) (A) (A) (A) (A) (A) (A) (A) (A) (A) (A) (A)
                 (A) (A) (A) (A) (A) (A) (A) (A) (A) (A) (A) (A)
                 (A) (A) (A) (A) (A) (A) (A) (A) (A) (A) (A) (A)
                 (A) (A) (A) (A) (A) (A) (A) (A) (A) (A) (A) (A)
                 (A) (A) (A) (A) (A) (A) (A) (A) (A) (A) (A) (A)
                 (A) (A) (A) (A) (A) (A) (A) (A) (A) (A) (A) (A)
                 (A) (A) (A) (A) (A) (A) (A) (A) (A) (A) (A) (A)
                 (A) (A) (A) (A) (A) (A) (A) (A) (A) (A) (A) (A)
                 (A) (A) (A) (A) (A) (A) (A) (A) (A) (A) (A) (A)
                 (A) (A) (A) (A) (A) (A) (A) (A) (A) (A) (A) (A)
                 (A) (A) (A) (A) (A) (A) (A) (A) (A) (A) (A) (A)
                 (A) (A) (A) (A) (A) (A) (A) (A) (A) (A) (A) (A)
                 (A) (A) (A)
   144 initial guesses have been made.
 Convergence on wavefunction:    0.001000000000000
 Davidson Disk Diagonalization:  ConvIn= 1.00D-03 SkipCon=T Conv= 1.00D-03.
 Max sub-space:  2160 roots to seek:   144 dimension of matrix:        27016
 Iteration     1 Dimension   144 NMult     0 NNew    144
 CISAX will form     3 AO SS matrices at one time.
 NMat=     3 NSing=     3 JSym2X= 0.
 FoFJK:  IHMeth= 1 ICntrl=       0 DoSepK=F KAlg= 0 I1Cent=           0 FoldK=F
 IRaf= 840000000 NMat=       6 IRICut=       1 DoRegI=T DoRafI=F ISym2E= 0 IDoP0=0 IntGTp=1.
 NMat=     3 NSing=     3 JSym2X= 0.
 NMat=     3 NSing=     3 JSym2X= 0.
 NMat=     3 NSing=     3 JSym2X= 0.
 NMat=     3 NSing=     3 JSym2X= 0.
 NMat=     3 NSing=     3 JSym2X= 0.
 NMat=     3 NSing=     3 JSym2X= 0.
 NMat=     3 NSing=     3 JSym2X= 0.
 NMat=     3 NSing=     3 JSym2X= 0.
 NMat=     3 NSing=     3 JSym2X= 0.
 NMat=     3 NSing=     3 JSym2X= 0.
 NMat=     3 NSing=     3 JSym2X= 0.
 NMat=     3 NSing=     3 JSym2X= 0.
 NMat=     3 NSing=     3 JSym2X= 0.
 NMat=     3 NSing=     3 JSym2X= 0.
 NMat=     3 NSing=     3 JSym2X= 0.
 NMat=     3 NSing=     3 JSym2X= 0.
 NMat=     3 NSing=     3 JSym2X= 0.
 NMat=     3 NSing=     3 JSym2X= 0.
 NMat=     3 NSing=     3 JSym2X= 0.
 NMat=     3 NSing=     3 JSym2X= 0.
 NMat=     3 NSing=     3 JSym2X= 0.
 NMat=     3 NSing=     3 JSym2X= 0.
 NMat=     3 NSing=     3 JSym2X= 0.
 NMat=     3 NSing=     3 JSym2X= 0.
 NMat=     3 NSing=     3 JSym2X= 0.
 NMat=     3 NSing=     3 JSym2X= 0.
 NMat=     3 NSing=     3 JSym2X= 0.
 NMat=     3 NSing=     3 JSym2X= 0.
 NMat=     3 NSing=     3 JSym2X= 0.
 NMat=     3 NSing=     3 JSym2X= 0.
 NMat=     3 NSing=     3 JSym2X= 0.
 NMat=     3 NSing=     3 JSym2X= 0.
 NMat=     3 NSing=     3 JSym2X= 0.
 NMat=     3 NSing=     3 JSym2X= 0.
 NMat=     3 NSing=     3 JSym2X= 0.
 NMat=     3 NSing=     3 JSym2X= 0.
 NMat=     3 NSing=     3 JSym2X= 0.
 NMat=     3 NSing=     3 JSym2X= 0.
 NMat=     3 NSing=     3 JSym2X= 0.
 NMat=     3 NSing=     3 JSym2X= 0.
 NMat=     3 NSing=     3 JSym2X= 0.
 NMat=     3 NSing=     3 JSym2X= 0.
 NMat=     3 NSing=     3 JSym2X= 0.
 NMat=     3 NSing=     3 JSym2X= 0.
 NMat=     3 NSing=     3 JSym2X= 0.
 NMat=     3 NSing=     3 JSym2X= 0.
 NMat=     3 NSing=     3 JSym2X= 0.
 New state      1 was old state      6
 New state      2 was old state      1
 New state      4 was old state      2
 New state      5 was old state      4
 New state      6 was old state      5
 New state      9 was old state     18
 New state     10 was old state     20
 New state     11 was old state      9
 New state     12 was old state     10
 New state     13 was old state     16
 New state     14 was old state     19
 New state     15 was old state     21
 New state     16 was old state     39
 New state     17 was old state     11
 New state     18 was old state     17
 New state     19 was old state     13
 New state     20 was old state     12
 New state     21 was old state     37
 New state     22 was old state     14
 New state     23 was old state     15
 New state     24 was old state     28
 New state     25 was old state     29
 New state     26 was old state     31
 New state     27 was old state     42
 New state     28 was old state     25
 New state     29 was old state     24
 New state     31 was old state     33
 New state     32 was old state     36
 New state     33 was old state     35
 New state     35 was old state     40
 New state     36 was old state     48
 Excitation Energies [eV] at current iteration:
 Root      1 :     0.765703700804867
 Root      2 :     1.952334980328672
 Root      3 :     2.054034842798575
 Root      4 :     2.246199592123022
 Root      5 :     2.356056101996380
 Root      6 :     2.617694434125412
 Root      7 :     3.643277879802015
 Root      8 :     3.956336605804026
 Root      9 :     4.191585206636568
 Root     10 :     4.225541481303090
 Root     11 :     4.498590890207677
 Root     12 :     4.603390878440980
 Root     13 :     4.736358427721385
 Root     14 :     4.756414646757160
 Root     15 :     4.775462595457716
 Root     16 :     4.789125699753329
 Root     17 :     4.861241173442019
 Root     18 :     5.095577250666495
 Root     19 :     5.104540611440338
 Root     20 :     5.116720755996846
 Root     21 :     5.146721848527251
 Root     22 :     5.232617298659856
 Root     23 :     5.341202896296071
 Root     24 :     5.409040668346885
 Root     25 :     5.488244950478990
 Root     26 :     5.521982937466318
 Root     27 :     5.633499820005357
 Root     28 :     5.809656954053954
 Root     29 :     5.830184830181728
 Root     30 :     5.937470274479349
 Root     31 :     5.949128690734695
 Root     32 :     5.969074244148139
 Root     33 :     6.003005420152416
 Root     34 :     6.013749925444632
 Root     35 :     6.041314670594203
 Root     36 :     6.078146432905625
 Root     37 :     6.093082687209563
 Root     38 :     6.096058026426866
 Root     39 :     6.126440245388694
 Root     40 :     6.147717547920602
 Root     41 :     6.160063941680223
 Root     42 :     6.179337950326158
 Root     43 :     6.226953670057513
 Root     44 :     6.285395602900690
 Root     45 :     6.384865647814975
 Root     46 :     6.424296605933915
 Root     47 :     6.432673504196829
 Root     48 :     6.510718096126871
 Root     49 :     6.542976592862379
 Root     50 :     6.560094509138317
 Root     51 :     6.573923071634116
 Root     52 :     6.677070646567763
 Root     53 :     6.698442666643183
 Root     54 :     6.717497936744716
 Root     55 :     6.807420096757135
 Root     56 :     6.827855664460450
 Root     57 :     6.864794153864123
 Root     58 :     6.883333614952692
 Root     59 :     6.903691485346957
 Root     60 :     6.966822499884431
 Root     61 :     7.035424447159873
 Root     62 :     7.094262088909502
 Root     63 :     7.153942022415683
 Root     64 :     7.180300452674387
 Root     65 :     7.233188982504055
 Root     66 :     7.276066792630051
 Root     67 :     7.312612980926288
 Root     68 :     7.368295510114351
 Root     69 :     7.381395242802150
 Root     70 :     7.446729507880031
 Root     71 :     7.493970043619996
 Root     72 :     7.524841728800387
 Root     73 :     7.533497553312190
 Root     74 :     7.565593820078563
 Root     75 :     7.594777436276003
 Root     76 :     7.617531191702213
 Root     77 :     7.651418509726698
 Root     78 :     7.680695879907769
 Root     79 :     7.704901775537593
 Root     80 :     7.711425255291439
 Root     81 :     7.740096346998254
 Root     82 :     7.777433849390645
 Root     83 :     7.808906511317391
 Root     84 :     7.821269322361279
 Root     85 :     7.843377059265134
 Root     86 :     7.856735833128409
 Root     87 :     7.897876494999506
 Root     88 :     7.964456222482630
 Root     89 :     7.982659889203251
 Root     90 :     8.037915442017763
 Root     91 :     8.051926465921609
 Root     92 :     8.106045942865412
 Root     93 :     8.121560462476946
 Root     94 :     8.131545950238507
 Root     95 :     8.151171907247530
 Root     96 :     8.169559031316275
 Root     97 :     8.177905898515561
 Root     98 :     8.186882076036362
 Root     99 :     8.219111425225858
 Root    100 :     8.229657727164403
 Root    101 :     8.234651037989396
 Root    102 :     8.255041709271588
 Root    103 :     8.257365561464246
 Root    104 :     8.276953753893007
 Root    105 :     8.306599933454617
 Root    106 :     8.346370314650951
 Root    107 :     8.358128492634370
 Root    108 :     8.372136499941050
 Root    109 :     8.382858381563736
 Root    110 :     8.397443075528164
 Root    111 :     8.412144261693600
 Root    112 :     8.420121047077656
 Root    113 :     8.441906537547947
 Root    114 :     8.481995171490375
 Root    115 :     8.507667702720893
 Root    116 :     8.524902000695320
 Root    117 :     8.535273336738666
 Root    118 :     8.560713760782495
 Root    119 :     8.566276085252866
 Root    120 :     8.577184637925967
 Root    121 :     8.582966546567102
 Root    122 :     8.619844018088026
 Root    123 :     8.642694730481630
 Root    124 :     8.654891942980646
 Root    125 :     8.698755985674133
 Root    126 :     8.704327891219155
 Root    127 :     8.734817040861268
 Root    128 :     8.750595037487086
 Root    129 :     8.771396596244379
 Root    130 :     8.801564517734217
 Root    131 :     8.812733860074434
 Root    132 :     8.831669094383228
 Root    133 :     8.852124849605458
 Root    134 :     8.878305242739744
 Root    135 :     8.920716010568395
 Root    136 :     8.927874155497189
 Root    137 :     8.942933737121649
 Root    138 :     8.946221381555548
 Root    139 :     8.966799313265982
 Root    140 :     9.021732360185494
 Root    141 :     9.073189121707070
 Root    142 :     9.382721269063490
 Root    143 :     9.401867605895946
 Root    144 :     9.537883881501660
 Iteration     2 Dimension   216 NMult   144 NNew     72
 CISAX will form     3 AO SS matrices at one time.
 NMat=     3 NSing=     3 JSym2X= 0.
 NMat=     3 NSing=     3 JSym2X= 0.
 NMat=     3 NSing=     3 JSym2X= 0.
 NMat=     3 NSing=     3 JSym2X= 0.
 NMat=     3 NSing=     3 JSym2X= 0.
 NMat=     3 NSing=     3 JSym2X= 0.
 NMat=     3 NSing=     3 JSym2X= 0.
 NMat=     3 NSing=     3 JSym2X= 0.
 NMat=     3 NSing=     3 JSym2X= 0.
 NMat=     3 NSing=     3 JSym2X= 0.
 NMat=     3 NSing=     3 JSym2X= 0.
 NMat=     3 NSing=     3 JSym2X= 0.
 NMat=     3 NSing=     3 JSym2X= 0.
 NMat=     3 NSing=     3 JSym2X= 0.
 NMat=     3 NSing=     3 JSym2X= 0.
 NMat=     3 NSing=     3 JSym2X= 0.
 NMat=     3 NSing=     3 JSym2X= 0.
 NMat=     3 NSing=     3 JSym2X= 0.
 NMat=     3 NSing=     3 JSym2X= 0.
 NMat=     3 NSing=     3 JSym2X= 0.
 NMat=     3 NSing=     3 JSym2X= 0.
 NMat=     3 NSing=     3 JSym2X= 0.
 NMat=     3 NSing=     3 JSym2X= 0.
 NMat=     3 NSing=     3 JSym2X= 0.
 Root      1 not converged, maximum delta is    0.070328496304444
 Root      2 not converged, maximum delta is    0.474459616381933
 Root      3 not converged, maximum delta is    0.459114300808174
 Root      4 not converged, maximum delta is    0.123623899682130
 Root      5 not converged, maximum delta is    0.110722557437624
 Root      6 not converged, maximum delta is    0.010230970612850
 Root      7 not converged, maximum delta is    0.099982309405373
 New state      8 was old state      9
 Root      8 not converged, maximum delta is    0.064644145027319
 New state      9 was old state     10
 Root      9 not converged, maximum delta is    0.080391225022634
 New state     10 was old state      8
 Root     10 not converged, maximum delta is    0.054691521280351
 Root     11 not converged, maximum delta is    0.246910544627315
 Root     12 not converged, maximum delta is    0.195359583736350
 Root     13 not converged, maximum delta is    0.592958415490205
 New state     14 was old state     17
 Root     14 not converged, maximum delta is    0.313879160798494
 New state     15 was old state     14
 Root     15 not converged, maximum delta is    0.058910705718132
 New state     16 was old state     15
 Root     16 not converged, maximum delta is    0.364552567526992
 New state     17 was old state     16
 Root     17 not converged, maximum delta is    0.295038230338790
 New state     18 was old state     19
 Root     18 not converged, maximum delta is    0.364234140747038
 New state     19 was old state     18
 Root     19 not converged, maximum delta is    0.145124206941023
 Root     20 not converged, maximum delta is    0.309498983977214
 Root     21 not converged, maximum delta is    0.021363871738416
 Root     22 not converged, maximum delta is    0.172549893788463
 Root     23 not converged, maximum delta is    0.103725399106858
 Root     24 not converged, maximum delta is    0.073681723169692
 Root     25 not converged, maximum delta is    0.023226147643071
 Root     26 not converged, maximum delta is    0.047646705737511
 Root     27 not converged, maximum delta is    0.065318540703097
 New state     28 was old state     29
 Root     28 not converged, maximum delta is    0.303880156574353
 New state     29 was old state     28
 Root     29 not converged, maximum delta is    0.312035535485351
 Root     30 not converged, maximum delta is    0.406170436295953
 Root     31 not converged, maximum delta is    0.250599964962926
 Root     32 not converged, maximum delta is    0.394541334067856
 Root     33 not converged, maximum delta is    0.511543880164882
 Root     34 not converged, maximum delta is    0.353891120119282
 Root     35 not converged, maximum delta is    0.405858161945744
 Root     36 not converged, maximum delta is    0.373367575103345
 Excitation Energies [eV] at current iteration:
 Root      1 :     0.609329120554626   Change is   -0.156374580250241
 Root      2 :     1.918249463645137   Change is   -0.034085516683535
 Root      3 :     1.980125940406512   Change is   -0.073908902392063
 Root      4 :     2.220470464197629   Change is   -0.025729127925393
 Root      5 :     2.340693462736195   Change is   -0.015362639260186
 Root      6 :     2.598839839676140   Change is   -0.018854594449272
 Root      7 :     3.485326667208365   Change is   -0.157951212593650
 Root      8 :     3.756894521518729   Change is   -0.434690685117839
 Root      9 :     3.786678633772552   Change is   -0.438862847530538
 Root     10 :     3.896954261788156   Change is   -0.059382344015870
 Root     11 :     4.452574531084896   Change is   -0.046016359122781
 Root     12 :     4.590808966222850   Change is   -0.012581912218130
 Root     13 :     4.670154723165163   Change is   -0.066203704556222
 Root     14 :     4.680317685509761   Change is   -0.180923487932259
 Root     15 :     4.696925453786990   Change is   -0.059489192970170
 Root     16 :     4.718384790042723   Change is   -0.057077805414993
 Root     17 :     4.729544659313811   Change is   -0.059581040439518
 Root     18 :     5.049311829264704   Change is   -0.055228782175634
 Root     19 :     5.069144496706032   Change is   -0.026432753960463
 Root     20 :     5.104760709615479   Change is   -0.011960046381366
 Root     21 :     5.118338351546201   Change is   -0.028383496981050
 Root     22 :     5.209470761285267   Change is   -0.023146537374589
 Root     23 :     5.303982894514882   Change is   -0.037220001781189
 Root     24 :     5.346010329438585   Change is   -0.063030338908299
 Root     25 :     5.420589455798117   Change is   -0.067655494680873
 Root     26 :     5.492351493460212   Change is   -0.029631444006106
 Root     27 :     5.594718374508211   Change is   -0.038781445497147
 Root     28 :     5.771865698218893   Change is   -0.058319131962836
 Root     29 :     5.795439854912225   Change is   -0.014217099141729
 Root     30 :     5.878406271463308   Change is   -0.059064003016041
 Root     31 :     5.932805256927088   Change is   -0.016323433807607
 Root     32 :     5.946550228468583   Change is   -0.022524015679556
 Root     33 :     5.964443123253929   Change is   -0.038562296898487
 Root     34 :     5.995416214338036   Change is   -0.018333711106596
 Root     35 :     6.013109465022333   Change is   -0.028205205571871
 Root     36 :     6.036964430659356   Change is   -0.041182002246269
 Iteration     3 Dimension   288 NMult   216 NNew     72
 CISAX will form     3 AO SS matrices at one time.
 NMat=     3 NSing=     3 JSym2X= 0.
 NMat=     3 NSing=     3 JSym2X= 0.
 NMat=     3 NSing=     3 JSym2X= 0.
 NMat=     3 NSing=     3 JSym2X= 0.
 NMat=     3 NSing=     3 JSym2X= 0.
 NMat=     3 NSing=     3 JSym2X= 0.
 NMat=     3 NSing=     3 JSym2X= 0.
 NMat=     3 NSing=     3 JSym2X= 0.
 NMat=     3 NSing=     3 JSym2X= 0.
 NMat=     3 NSing=     3 JSym2X= 0.
 NMat=     3 NSing=     3 JSym2X= 0.
 NMat=     3 NSing=     3 JSym2X= 0.
 NMat=     3 NSing=     3 JSym2X= 0.
 NMat=     3 NSing=     3 JSym2X= 0.
 NMat=     3 NSing=     3 JSym2X= 0.
 NMat=     3 NSing=     3 JSym2X= 0.
 NMat=     3 NSing=     3 JSym2X= 0.
 NMat=     3 NSing=     3 JSym2X= 0.
 NMat=     3 NSing=     3 JSym2X= 0.
 NMat=     3 NSing=     3 JSym2X= 0.
 NMat=     3 NSing=     3 JSym2X= 0.
 NMat=     3 NSing=     3 JSym2X= 0.
 NMat=     3 NSing=     3 JSym2X= 0.
 NMat=     3 NSing=     3 JSym2X= 0.
 Root      1 not converged, maximum delta is    0.002288687298412
 Root      2 not converged, maximum delta is    0.024870482924160
 Root      3 not converged, maximum delta is    0.021801908507747
 Root      4 not converged, maximum delta is    0.003003890692054
 Root      5 not converged, maximum delta is    0.003362913693599
 Root      6 not converged, maximum delta is    0.001427752792252
 Root      7 not converged, maximum delta is    0.004550245901307
 Root      8 not converged, maximum delta is    0.003504259531911
 Root      9 not converged, maximum delta is    0.003624313680766
 Root     10 not converged, maximum delta is    0.003401693686915
 Root     11 not converged, maximum delta is    0.017081344890901
 Root     12 not converged, maximum delta is    0.021456775240932
 Root     13 not converged, maximum delta is    0.108533480480767
 Root     14 not converged, maximum delta is    0.168735279316975
 Root     15 not converged, maximum delta is    0.009812975153884
[...]
     7  H    0.000000   0.000001  -0.000026   0.000000  -0.000000  -0.000000
     8  C   -0.000982  -0.000011   0.000011   0.000013   0.000018   0.000004
     9  H    0.000006  -0.000000   0.000000  -0.000001   0.000015   0.000000
    10  H   -0.000002   0.000000   0.000000   0.000000  -0.000002  -0.000000
    11  H   -0.000014   0.000000  -0.000000   0.000003  -0.000004  -0.000000
    12  C   -0.000027   0.000000  -0.000003  -0.000002   0.000013   0.000000
    13  C   -0.000029  -0.000000   0.000000  -0.000000   0.000006  -0.000000
    14  C   -0.000015  -0.000002   0.000000  -0.000022   0.000030  -0.000001
    15  C    0.000001   0.000000   0.000000   0.000000  -0.000001  -0.000000
    16  H   -0.000000  -0.000000   0.000000   0.000000  -0.000000  -0.000000
    17  C    0.000000   0.000000  -0.000000   0.000004  -0.000009   0.000000
    18  H    0.000018  -0.000008   0.000001  -0.000018   0.000004  -0.000005
    19  C    0.000001   0.000000  -0.000000   0.000000  -0.000002   0.000000
    20  H   -0.000000  -0.000000   0.000000  -0.000000   0.000000   0.000000
    21  H    0.000000  -0.000000   0.000000  -0.000000   0.000000  -0.000000
    22  H    0.000000  -0.000000   0.000000  -0.000000   0.000000  -0.000000
    23  C   -0.000115   0.000148  -0.000058  -0.000049  -0.000008  -0.000024
    24  C   -0.000330  -0.000258   0.000067   0.000074  -0.000003  -0.000054
    25  C    0.001837   0.000081  -0.000007  -0.000018   0.000008  -0.000124
    26  C    0.000081  -0.001231   0.000010  -0.000052   0.000000  -0.000077
    27  H   -0.000007   0.000010  -0.000122   0.000001  -0.000000   0.000003
    28  C   -0.000018  -0.000052   0.000001  -0.000939   0.000042   0.000268
    29  H    0.000008   0.000000  -0.000000   0.000042  -0.000151  -0.000002
    30  C   -0.000124  -0.000077   0.000003   0.000268  -0.000002   0.002442
    31  H    0.000001   0.000042  -0.000007  -0.000001  -0.000000  -0.000008
    32  H   -0.000000   0.000000  -0.000000   0.000017  -0.000002  -0.000002
    33  H   -0.000001  -0.000008   0.000000   0.000001   0.000000   0.000012
    34  O    0.000043   0.000005  -0.000025  -0.000000  -0.000001  -0.000001
    35  H    0.000002  -0.000000  -0.000007   0.000000  -0.000000  -0.000000
              31         32         33         34         35
     1  C   -0.000000  -0.000000  -0.000000   0.000941  -0.000302
     2  C   -0.000001  -0.000000  -0.000000  -0.001061   0.001213
     3  O    0.000000  -0.000000  -0.000000   0.000667  -0.003066
     4  C   -0.000000  -0.000000   0.000000  -0.000515  -0.000146
     5  H    0.000000  -0.000000  -0.000000  -0.000002   0.000014
     6  H    0.000004   0.000000  -0.000000   0.000055   0.000024
     7  H    0.000000   0.000000  -0.000000   0.000047  -0.000061
     8  C   -0.000000  -0.000000   0.000000  -0.001770   0.000052
     9  H    0.000000  -0.000000  -0.000000   0.000002  -0.000001
    10  H    0.000000  -0.000000   0.000000  -0.000053  -0.000082
    11  H    0.000000   0.000000  -0.000000  -0.000017   0.000015
    12  C    0.000000  -0.000000   0.000000   0.000089  -0.000079
    13  C   -0.000000  -0.000000   0.000000  -0.000009  -0.000001
    14  C   -0.000000  -0.000000   0.000000  -0.000001   0.000003
    15  C    0.000000   0.000000  -0.000000  -0.000000   0.000000
    16  H   -0.000000  -0.000000   0.000000  -0.000002   0.000002
    17  C    0.000000   0.000000  -0.000000   0.000000  -0.000000
    18  H   -0.000000  -0.000000   0.000000  -0.000001   0.000000
    19  C    0.000000   0.000000  -0.000000   0.000000  -0.000000
    20  H   -0.000000  -0.000000   0.000000  -0.000000   0.000000
    21  H   -0.000000   0.000000   0.000000  -0.000000   0.000000
    22  H   -0.000000   0.000000   0.000000  -0.000000   0.000000
    23  C    0.000007  -0.000003  -0.000001   0.000210  -0.000122
    24  C   -0.000031  -0.000001   0.000005  -0.000042  -0.000003
    25  C    0.000001  -0.000000  -0.000001   0.000043   0.000002
    26  C    0.000042   0.000000  -0.000008   0.000005  -0.000000
    27  H   -0.000007  -0.000000   0.000000  -0.000025  -0.000007
    28  C   -0.000001   0.000017   0.000001  -0.000000   0.000000
    29  H   -0.000000  -0.000002   0.000000  -0.000001  -0.000000
    30  C   -0.000008  -0.000002   0.000012  -0.000001  -0.000000
    31  H    0.000033  -0.000000  -0.000000   0.000000   0.000000
    32  H   -0.000000   0.000000   0.000001   0.000000   0.000000
    33  H   -0.000000   0.000001  -0.000109  -0.000000  -0.000000
    34  O    0.000000   0.000000  -0.000000   0.000205   0.001763
    35  H    0.000000   0.000000  -0.000000   0.001763  -0.002173
 Mulliken charges and spin densities:
               1          2
     1  C    0.206243  -0.028454
     2  C    0.245901   0.009904
     3  O   -0.397863   0.844393
     4  C   -0.315723   0.104937
     5  H    0.135815  -0.003696
     6  H    0.144301   0.030214
     7  H    0.134631  -0.003623
     8  C   -0.327587   0.015235
     9  H    0.118313  -0.000398
    10  H    0.110324  -0.001540
    11  H    0.119003  -0.001180
    12  C    0.082943   0.015817
    13  C   -0.119548   0.012702
    14  C   -0.114855   0.005620
    15  C   -0.105484  -0.004881
    16  H    0.105710  -0.001143
    17  C   -0.111947  -0.003083
    18  H    0.106455  -0.000243
    19  C   -0.094847   0.008681
    20  H    0.104636   0.000495
    21  H    0.104999   0.000088
    22  H    0.104119  -0.000382
    23  C    0.069576  -0.000924
    24  C   -0.115558   0.002577
    25  C   -0.117902   0.001138
    26  C   -0.107057  -0.001293
    27  H    0.108782  -0.000169
    28  C   -0.112096  -0.000724
    29  H    0.101635  -0.000039
    30  C   -0.096113   0.002451
    31  H    0.101260   0.000037
    32  H    0.102325   0.000010
    33  H    0.101435  -0.000100
    34  O   -0.590225   0.000527
    35  H    0.318399  -0.002956
 Sum of Mulliken charges =  -0.00000   1.00000
 Mulliken charges and spin densities with hydrogens summed into heavy atoms:
               1          2
     1  C    0.206243  -0.028454
     2  C    0.245901   0.009904
     3  O   -0.397863   0.844393
     4  C    0.099025   0.127833
     8  C    0.020054   0.012117
    12  C    0.082943   0.015817
    13  C   -0.013838   0.011560
    14  C   -0.008400   0.005376
    15  C   -0.000849  -0.004386
    17  C   -0.006948  -0.002995
    19  C    0.009272   0.008298
    23  C    0.069576  -0.000924
    24  C   -0.006776   0.002408
    25  C   -0.016267   0.001100
    26  C   -0.005797  -0.001256
    28  C   -0.009771  -0.000714
    30  C    0.005322   0.002351
    34  O   -0.271826  -0.002429
 Electronic spatial extent (au):  <R**2>=           4046.1164
 Charge=             -0.0000 electrons
 Dipole moment (field-independent basis, Debye):
    X=              0.7668    Y=             -2.3375    Z=             -0.5206  Tot=              2.5145
 Quadrupole moment (field-independent basis, Debye-Ang):
   XX=           -102.8491   YY=           -101.0456   ZZ=           -102.3208
   XY=              0.4620   XZ=              6.9411   YZ=             -0.3906
 Traceless Quadrupole moment (field-independent basis, Debye-Ang):
   XX=             -0.7773   YY=              1.0262   ZZ=             -0.2490
   XY=              0.4620   XZ=              6.9411   YZ=             -0.3906
 Octapole moment (field-independent basis, Debye-Ang**2):
  XXX=             10.5055  YYY=             -1.7440  ZZZ=             -4.2994  XYY=             -0.9212
  XXY=            -24.4774  XXZ=             -1.1713  XZZ=             -0.7841  YZZ=             12.4522
  YYZ=             -0.2557  XYZ=              6.7840
 Hexadecapole moment (field-independent basis, Debye-Ang**3):
 XXXX=          -2919.5859 YYYY=          -1552.3319 ZZZZ=           -674.2074 XXXY=              2.6158
 XXXZ=            131.5101 YYYX=            -15.9725 YYYZ=              1.8663 ZZZX=              2.9865
 ZZZY=             -8.2207 XXYY=           -749.9381 XXZZ=           -637.6173 YYZZ=           -377.9297
 XXYZ=              1.9430 YYXZ=              2.2281 ZZXY=              2.0670
 N-N= 1.336515750676D+03 E-N=-4.463405179225D+03  KE= 7.633935747438D+02
 Leave Link  601 at Sat May 25 04:46:25 2019, MaxMem=   104857600 cpu:               5.7 elap:               0.2
 (Enter /opt/software/gaussian/g16.b01/l9999.exe)
 Electronic transition elements 
                 1             2             3             4             5 
      1  -0.770350D+03 -0.770302D+03 -0.770299D+03 -0.770290D+03 -0.770286D+03
      2   0.231136D+00  0.156176D+00 -0.106385D+00 -0.330515D+00 -0.615320D-01
      3  -0.954421D-01 -0.288159D+00 -0.224956D+00 -0.127737D+00 -0.558409D-01
      4   0.368084D-01  0.104088D-01 -0.819249D-01 -0.458535D-01 -0.383824D-01
      5  -0.604771D-02 -0.100256D-01  0.699102D-02  0.259592D-01  0.543210D-02
      6   0.215577D-02  0.193054D-01  0.150221D-01  0.105193D-01  0.480273D-02
      7  -0.380824D-04 -0.926840D-03  0.754561D-02  0.282487D-02  0.230079D-02
      8   0.371386D+00  0.654411D-01  0.949075D-01  0.928079D-01  0.326436D-01
      9   0.652769D+00 -0.142577D+00  0.544352D-01  0.750534D-01  0.614047D-01
     10  -0.272034D-02 -0.480360D-01  0.188043D+00  0.157967D-01  0.412820D-01
     11   0.199601D-01  0.721822D-01  0.771948D-01  0.343738D-01 -0.142802D-01
     12  -0.296652D-02 -0.429784D-01 -0.402338D-01 -0.193580D-01  0.115781D-02
     13  -0.705038D-02  0.133065D-01  0.943162D-02  0.361033D-02  0.652523D-02
     14  -0.111100D-01 -0.965515D-01 -0.270270D-01  0.266136D-01 -0.174124D-01
     15  -0.564016D-02 -0.387509D-02 -0.120948D-01 -0.138237D-02  0.952005D-02
     16  -0.468421D-02 -0.139423D-01 -0.102819D-01  0.104032D-02 -0.549978D-02
                 6             7             8             9            10 
      1  -0.770276D+03 -0.770244D+03 -0.770234D+03 -0.770233D+03 -0.770229D+03
      2   0.918728D-01 -0.851083D-02  0.261885D-01  0.207042D-01  0.622861D-01
      3  -0.195850D+00  0.181420D+00 -0.143060D-01 -0.466775D-01 -0.877254D-01
      4   0.411616D-01 -0.856419D-01 -0.270916D-04  0.472315D-03  0.486982D-01
      5  -0.773031D-02  0.160191D-02 -0.336653D-02 -0.268335D-02 -0.800021D-02
      6   0.180850D-01 -0.227503D-01  0.181866D-02  0.617377D-02  0.109126D-01
      7  -0.418708D-02  0.896138D-02 -0.117155D-03 -0.107885D-03 -0.782271D-02
      8   0.404560D-01  0.390934D+00  0.276826D-01  0.541073D-01  0.522501D+00
      9  -0.756163D-01 -0.222488D+00 -0.869283D-02 -0.678257D-02 -0.898413D-01
     10   0.843290D-02  0.212092D+00  0.166931D-02  0.201381D-01  0.235768D+00
     11   0.831782D-01 -0.816843D-02  0.666602D-02  0.279700D-01  0.431741D-01
     12  -0.121953D-01  0.162703D+00 -0.236627D-02 -0.959038D-02 -0.224247D-01
     13  -0.381744D-01 -0.142774D+00  0.140333D-02  0.138477D-02  0.370788D-01
     14   0.158166D-02  0.779788D-01 -0.150886D-01 -0.212115D-01 -0.672687D-01
     15   0.329719D-02  0.549348D-01 -0.330359D-03 -0.260066D-02  0.598025D-02
     16   0.613834D-02  0.367748D-01 -0.165059D-02 -0.117413D-02  0.442762D-01
                11            12            13            14            15 
      1  -0.770208D+03 -0.770203D+03 -0.770201D+03 -0.770200D+03 -0.770199D+03
      2  -0.786707D-02  0.514307D-01  0.121848D+00  0.804285D-01 -0.121778D-01
      3   0.195760D+00  0.426883D-01  0.634590D-01  0.357977D-01 -0.768668D-03
      4  -0.883192D-01  0.247420D-02 -0.513185D-01 -0.263193D-01  0.695341D-02
      5   0.129487D-02 -0.806082D-02 -0.199242D-01 -0.131295D-01  0.190325D-02
      6  -0.309802D-01 -0.730198D-02 -0.115237D-01 -0.635240D-02  0.249455D-03
      7   0.142831D-01  0.996264D-03  0.942224D-02  0.507092D-02 -0.113764D-02
      8  -0.163152D+00 -0.843431D-01 -0.194875D+00 -0.107633D+00  0.663194D-02
      9   0.149177D+00 -0.973059D-02  0.256385D+00  0.124345D+00 -0.170494D-01
     10   0.183101D+00 -0.141542D+00 -0.109190D+00 -0.568046D-01  0.763005D-02
     11  -0.117403D+00 -0.218662D-02  0.648430D-01  0.256864D-01 -0.105345D-01
     12   0.118738D+00  0.546292D-01  0.122476D+00  0.620270D-01 -0.672707D-02
     13  -0.592193D-01 -0.514355D-01 -0.180411D+00 -0.870467D-01  0.139024D-01
     14   0.984947D-01  0.234328D-01  0.594418D-01  0.243189D-01 -0.518406D-02
     15   0.407339D-01  0.806208D-02  0.952939D-02  0.501019D-02  0.111381D-03
     16  -0.231351D-01 -0.128670D-01 -0.256060D-01 -0.186894D-01  0.255509D-03
                16            17            18            19            20 
      1  -0.770199D+03 -0.770198D+03 -0.770187D+03 -0.770186D+03 -0.770184D+03
      2   0.428025D-01 -0.393444D-01  0.364832D-01  0.204713D-01 -0.296828D-01
      3   0.497011D-03 -0.161597D-02  0.520455D-02  0.634531D-02 -0.153299D-01
      4  -0.150392D-01  0.142157D-01 -0.131081D+00 -0.151740D-01 -0.292527D-03
      5  -0.699271D-02  0.645718D-02 -0.638504D-02 -0.368429D-02  0.503139D-02
      6  -0.450095D-04  0.390369D-03 -0.120445D-02 -0.104172D-02  0.211905D-02
      7   0.314378D-02 -0.280199D-02  0.186110D-01  0.257456D-02 -0.301681D-03
      8  -0.646437D-01  0.463358D-01  0.172645D+00 -0.189913D-02  0.827067D-01
      9   0.664053D-01 -0.657382D-01 -0.194973D+00 -0.230173D-03 -0.856813D-01
     10  -0.486291D-01  0.227057D-01  0.268831D-01  0.184586D-01 -0.716203D-01
     11   0.188079D-01 -0.370284D-01  0.415954D-01 -0.204361D-02  0.153762D-01
     12   0.403562D-01 -0.186708D-01  0.469650D-01  0.516085D-02  0.182757D-01
     13  -0.568310D-01  0.445206D-01 -0.406835D-01 -0.583488D-02 -0.219830D-02
     14   0.988312D-02 -0.905396D-02 -0.399172D-01 -0.555897D-03 -0.122741D-01
     15   0.622832D-02  0.325432D-02  0.519983D-01  0.467244D-02  0.605613D-02
     16  -0.135557D-01  0.925753D-02  0.108269D-01  0.300864D-03  0.911940D-02
                21            22            23            24            25 
      1  -0.770184D+03 -0.770181D+03 -0.770177D+03 -0.770176D+03 -0.770173D+03
      2  -0.664495D-02 -0.790227D-01  0.100225D+00  0.199839D+00 -0.919376D-02
      3  -0.926002D-02  0.655167D-03  0.964866D-01  0.117728D-01 -0.294360D-01
      4  -0.277393D-02 -0.288214D-01  0.207042D-01 -0.951527D-02 -0.299250D-02
      5   0.122620D-02  0.129922D-01 -0.194121D-01 -0.380085D-01  0.227652D-02
      6   0.182223D-02  0.425432D-03 -0.197655D-01 -0.202842D-02  0.544585D-02
      7   0.688161D-03  0.476903D-02 -0.437796D-02  0.111107D-02  0.274244D-04
      8   0.713596D-02 -0.102015D+00  0.114118D+00  0.899937D-01 -0.564131D-02
      9  -0.145040D-01  0.119058D+00 -0.177023D+00 -0.319436D-01 -0.394781D-01
     10  -0.505816D-02  0.220161D+00 -0.116402D+00  0.425512D-01  0.637573D-02
     11   0.348881D-02 -0.133281D-01 -0.237115D-01  0.137337D-02  0.708014D-01
     12   0.740224D-02 -0.545962D-01  0.138066D+00  0.564014D-02  0.244359D-01
     13  -0.396514D-02  0.490675D-01 -0.714980D-01 -0.291325D-02 -0.162673D-01
     14   0.265916D-02  0.149196D-01  0.350182D-01 -0.147391D+00  0.119541D-01
     15   0.183940D-02 -0.294743D-01  0.351084D-01  0.675011D-02 -0.137195D-01
     16   0.796601D-04 -0.344018D-01  0.246640D-01 -0.253645D-01  0.373985D-02
                26            27            28            29            30 
      1  -0.770170D+03 -0.770166D+03 -0.770160D+03 -0.770159D+03 -0.770156D+03
      2  -0.733840D-02  0.379892D-01  0.129928D+00  0.106710D+00 -0.345674D+00
      3  -0.198645D-01 -0.492113D-01 -0.231395D-02 -0.695146D-01 -0.556092D-01
      4   0.184795D+00  0.103374D+00 -0.452000D-01 -0.341469D-01  0.141882D+00
      5   0.192669D-02 -0.573261D-02 -0.234718D-01 -0.215025D-01  0.692071D-01
      6   0.432345D-02  0.863554D-02  0.510233D-03  0.143243D-01  0.111297D-01
      7  -0.339755D-01 -0.195841D-01  0.113412D-01  0.795541D-02 -0.348117D-01
      8   0.379518D+00  0.142529D+00  0.736351D-01  0.395392D-01 -0.165708D-01
      9  -0.253951D+00  0.371805D-03  0.945531D-01  0.825660D-01  0.226913D+00
     10   0.200869D+00 -0.132074D+00  0.530915D+00  0.158123D+00 -0.510458D+00
     11  -0.313010D-01  0.399003D-01  0.794193D-01  0.178107D+00  0.302613D+00
     12  -0.483228D-01  0.916190D-02 -0.225365D-01 -0.224536D-01 -0.679944D-01
     13   0.428224D-01 -0.169681D-02 -0.190966D-01 -0.437607D-01 -0.772460D-01
     14   0.261156D-01 -0.650647D-01  0.177789D+00  0.117759D-01  0.506280D-01
     15  -0.254518D-01 -0.165055D-01 -0.144523D-01 -0.275707D-01 -0.946736D-01
     16   0.719665D-01  0.634987D-01  0.735451D-01  0.158177D-01 -0.395308D-01
                31            32            33            34            35 
      1  -0.770154D+03 -0.770154D+03 -0.770153D+03 -0.770152D+03 -0.770151D+03
      2   0.715393D-01 -0.165966D+00  0.147343D+00  0.308328D+00 -0.206381D+00
      3  -0.763500D-01 -0.428909D-01 -0.252596D-02  0.372856D-01  0.264307D+00
      4  -0.129822D-01  0.617121D-01 -0.170097D-01 -0.220221D-01  0.312510D-01
      5  -0.135533D-01  0.372340D-01 -0.312691D-01 -0.647338D-01  0.451362D-01
      6   0.164686D-01  0.772958D-02  0.883905D-03 -0.895581D-02 -0.585934D-01
      7   0.397339D-02 -0.122964D-01  0.356742D-02  0.566753D-02 -0.566980D-02
      8  -0.746824D-01 -0.105547D+00  0.322709D-01 -0.807869D-02  0.229154D-01
      9   0.919021D-01  0.524632D-01 -0.234040D-01  0.133501D+00 -0.153265D-02
     10   0.184305D+00 -0.722804D-01  0.246978D-02  0.103043D+00  0.159923D-01
     11   0.239134D+00  0.152281D+00 -0.105097D+00  0.201925D+00 -0.257510D+00
     12  -0.234650D-01 -0.378141D-01  0.315054D-01 -0.894763D-01 -0.105295D+00
     13  -0.674298D-01 -0.449411D-01  0.258843D-01 -0.439502D-01  0.909129D-01
     14   0.180273D-03  0.286407D-01 -0.768045D-01 -0.158035D+00  0.148377D+00
     15  -0.396693D-01 -0.411588D-01  0.256813D-01 -0.722519D-01 -0.529811D-01
     16   0.381444D-01 -0.244863D-01  0.169313D-01  0.447277D-01 -0.501998D-02
                36 
      1  -0.770150D+03
      2  -0.256899D-01
      3   0.889035D-01
      4   0.466292D-01
      5   0.610067D-02
      6  -0.198294D-01
      7  -0.936601D-02
      8   0.652837D-01
      9  -0.505796D-01
     10  -0.792443D-01
     11  -0.126985D+00
     12  -0.581967D-01
     13   0.610059D-01
     14  -0.429951D-01
     15  -0.300094D-01
     16  -0.130193D-01
 1\1\GINC-GRA452\SP\UB3LYP TD-FC\6-31G(d,p)\C16H17O2(2)\RZK\25-May-2019
 \0\\#p td=(50-50,nstates=36) ub3lyp/6-31g(d,p) scrf=(iefpcm,solvent=ac
 etonitrile) guess=(mix,always) empiricaldispersion=gd3\\Title Card Req
 uired\\0,2\C,0,-0.526385,-1.283284,-0.419762\C,0,0.541235,-1.277464,0.
 485861\O,0,-1.222224,-2.487651,-0.329067\C,0,-0.066494,-1.385454,-1.93
 5072\H,0,-0.944686,-1.425967,-2.578041\H,0,0.523899,-0.498844,-2.17067
 9\H,0,0.551722,-2.270142,-2.073377\C,0,0.03391,-1.348959,1.951362\H,0,
 -0.576688,-0.492265,2.239121\H,0,-0.57524,-2.250967,2.068227\H,0,0.893
 936,-1.415939,2.6193\C,0,-1.51585,-0.100936,-0.296916\C,0,-2.712499,-0
 .291791,0.407703\C,0,-1.270008,1.152778,-0.871882\C,0,-3.637109,0.7441
 07,0.542625\H,0,-2.918351,-1.260325,0.851162\C,0,-2.193537,2.190883,-0
 .738091\H,0,-0.352254,1.334156,-1.418675\C,0,-3.380148,1.991502,-0.029
 968\H,0,-4.556683,0.575456,1.095178\H,0,-1.983136,3.155389,-1.190472\H
 ,0,-4.097683,2.799904,0.0736\C,0,1.514874,-0.093385,0.322428\C,0,2.654
 336,-0.229068,-0.483919\C,0,1.296813,1.134859,0.962261\C,0,3.544001,0.
 833231,-0.652867\H,0,2.84386,-1.17751,-0.970965\C,0,2.185223,2.198255,
 0.794997\H,0,0.422026,1.278497,1.58505\C,0,3.312988,2.053084,-0.014701
 \H,0,4.419938,0.703779,-1.281974\H,0,1.992506,3.140398,1.299628\H,0,4.
 004832,2.880073,-0.1442\O,0,1.343087,-2.465014,0.285524\H,0,0.696994,-
 3.184528,0.201107\\Version=ES64L-G16RevB.01\State=2-A\HF=-770.3719399\
 S2=0.753428\S2-1=0.\S2A=0.750009\RMSD=6.588e-09\PG=C01 [X(C16H17O2)]\\
 @


 The arm of the moral universe is long, but it bends toward justice.
 -- Martin Luther King, Jr.
 Job cpu time:       0 days 15 hours 32 minutes 36.6 seconds.
 Elapsed time:       0 days  0 hours 29 minutes 11.4 seconds.
 File lengths (MBytes):  RWF=   2170 Int=      0 D2E=      0 Chk=    178 Scr=      1
 Normal termination of Gaussian 16 at Sat May 25 04:46:26 2019.
