 Entering Gaussian System, Link 0=g16
 Initial command:
 /opt/software/gaussian/g16.b01/l1.exe "/localscratch/rzk.15153364.0/Gau-9337.inp" -scrdir="/localscratch/rzk.15153364.0/"
 Entering Link 1 = /opt/software/gaussian/g16.b01/l1.exe PID=      9342.
  
 Copyright (c) 1988-2017, Gaussian, Inc.  All Rights Reserved.
  
 This is part of the Gaussian(R) 16 program.  It is based on
 the Gaussian(R) 09 system (copyright 2009, Gaussian, Inc.),
 the Gaussian(R) 03 system (copyright 2003, Gaussian, Inc.),
 the Gaussian(R) 98 system (copyright 1998, Gaussian, Inc.),
 the Gaussian(R) 94 system (copyright 1995, Gaussian, Inc.),
 the Gaussian 92(TM) system (copyright 1992, Gaussian, Inc.),
 the Gaussian 90(TM) system (copyright 1990, Gaussian, Inc.),
 the Gaussian 88(TM) system (copyright 1988, Gaussian, Inc.),
 the Gaussian 86(TM) system (copyright 1986, Carnegie Mellon
 University), and the Gaussian 82(TM) system (copyright 1983,
 Carnegie Mellon University). Gaussian is a federally registered
 trademark of Gaussian, Inc.
  
 This software contains proprietary and confidential information,
 including trade secrets, belonging to Gaussian, Inc.
  
 This software is provided under written license and may be
 used, copied, transmitted, or stored only in accord with that
 written license.
  
 The following legend is applicable only to US Government
 contracts under FAR:
  
                    RESTRICTED RIGHTS LEGEND
  
 Use, reproduction and disclosure by the US Government is
 subject to restrictions as set forth in subparagraphs (a)
 and (c) of the Commercial Computer Software - Restricted
 Rights clause in FAR 52.227-19.
  
 Gaussian, Inc.
 340 Quinnipiac St., Bldg. 40, Wallingford CT 06492
  
  
 ---------------------------------------------------------------
 Warning -- This program may not be used in any manner that
 competes with the business of Gaussian, Inc. or will provide
 assistance to any competitor of Gaussian, Inc.  The licensee
 of this program is prohibited from giving any competitor of
 Gaussian, Inc. access to this program.  By using this program,
 the user acknowledges that Gaussian, Inc. is engaged in the
 business of creating and licensing software in the field of
 computational chemistry and represents and warrants to the
 licensee that it is not a competitor of Gaussian, Inc. and that
 it will not use this program in any manner prohibited above.
 ---------------------------------------------------------------
  

 Cite this work as:
 Gaussian 16, Revision B.01,
 M. J. Frisch, G. W. Trucks, H. B. Schlegel, G. E. Scuseria, 
 M. A. Robb, J. R. Cheeseman, G. Scalmani, V. Barone, 
 G. A. Petersson, H. Nakatsuji, X. Li, M. Caricato, A. V. Marenich, 
 J. Bloino, B. G. Janesko, R. Gomperts, B. Mennucci, H. P. Hratchian, 
 J. V. Ortiz, A. F. Izmaylov, J. L. Sonnenberg, D. Williams-Young, 
 F. Ding, F. Lipparini, F. Egidi, J. Goings, B. Peng, A. Petrone, 
 T. Henderson, D. Ranasinghe, V. G. Zakrzewski, J. Gao, N. Rega, 
 G. Zheng, W. Liang, M. Hada, M. Ehara, K. Toyota, R. Fukuda, 
 J. Hasegawa, M. Ishida, T. Nakajima, Y. Honda, O. Kitao, H. Nakai, 
 T. Vreven, K. Throssell, J. A. Montgomery, Jr., J. E. Peralta, 
 F. Ogliaro, M. J. Bearpark, J. J. Heyd, E. N. Brothers, K. N. Kudin, 
 V. N. Staroverov, T. A. Keith, R. Kobayashi, J. Normand, 
 K. Raghavachari, A. P. Rendell, J. C. Burant, S. S. Iyengar, 
 J. Tomasi, M. Cossi, J. M. Millam, M. Klene, C. Adamo, R. Cammi, 
 J. W. Ochterski, R. L. Martin, K. Morokuma, O. Farkas, 
 J. B. Foresman, and D. J. Fox, Gaussian, Inc., Wallingford CT, 2016.
 
 ******************************************
 Gaussian 16:  ES64L-G16RevB.01 20-Dec-2017
                25-May-2019 
 ******************************************
 %NProcShared=32
 Will use up to   32 processors via shared memory.
 %chk=AH-A_20.chk
 ----------------------------------------------------------------------
 #p td=(50-50,nstates=36) ub3lyp/6-31g(d,p) scrf=(iefpcm,solvent=aceton
 itrile) guess=(mix,always) empiricaldispersion=gd3
 ----------------------------------------------------------------------
 1/38=1,172=1/1;
 2/12=2,17=6,18=5,40=1/2;
 3/5=1,6=6,7=101,11=2,25=1,30=1,70=2201,72=2,74=-5,116=2,124=31/1,2,3,8;
 4/13=-1/1;
 5/5=2,38=5,53=2/2;
 8/6=1,10=2,108=36/1;
 9/41=36,42=1,48=2,70=2/14;
 6/7=2,8=2,9=2,10=2/1;
 99/5=1,9=1/99;
 Leave Link    1 at Sat May 25 04:17:44 2019, MaxMem=           0 cpu:               2.9 elap:               0.1
 (Enter /opt/software/gaussian/g16.b01/l101.exe)
 -------------------
 Title Card Required
 -------------------
 Symbolic Z-matrix:
 Charge =  0 Multiplicity = 2
 C                    -0.51247  -1.25648  -0.36006 
 C                     0.5536   -1.24743   0.38386 
 O                    -1.21574  -2.46793  -0.31414 
 C                    -0.07251  -1.33353  -1.8996 
 H                    -0.96483  -1.36652  -2.52209 
 H                     0.5137   -0.4417   -2.12538 
 H                     0.53978  -2.21907  -2.0515 
 C                     0.0476   -1.29741   1.8586 
 H                    -0.51587  -0.41053   2.15023 
 H                    -0.59765  -2.17295   1.98252 
 H                     0.91433  -1.39935   2.5123 
 C                    -1.55343  -0.10186  -0.2516 
 C                    -2.72219  -0.32712   0.48917 
 C                    -1.39115   1.13777  -0.88335 
 C                    -3.6971    0.66382   0.60982 
 H                    -2.86551  -1.28545   0.97719 
 C                    -2.36556   2.13001  -0.76594 
 H                    -0.50066   1.34364  -1.46532 
 C                    -3.52104   1.89875  -0.01698 
 H                    -4.59199   0.46925   1.19349 
 H                    -2.22083   3.08333  -1.26538 
 H                    -4.27875   2.67146   0.07175 
 C                     1.55688  -0.06735   0.25627 
 C                     2.78005  -0.25258  -0.40284 
 C                     1.28666   1.19207   0.81024 
 C                     3.69912   0.79288  -0.51597 
 H                     3.01333  -1.22312  -0.82147 
 C                     2.20531   2.23672   0.70187 
 H                     0.35115   1.37269   1.32585 
 C                     3.41592   2.04356   0.03413 
 H                     4.64011   0.62389  -1.0316 
 H                     1.97052   3.20197   1.14074 
 H                     4.13115   2.85625  -0.05133 
 O                     1.39127  -2.43      0.23495 
 H                     0.79959  -3.19144   0.32785 
 
 ITRead=  0  0  0  0  0  0  0  0  0  0  0  0  0  0  0  0  0  0  0  0
 ITRead=  0  0  0  0  0  0  0  0  0  0  0  0  0  0  0
 MicOpt= -1 -1 -1 -1 -1 -1 -1 -1 -1 -1 -1 -1 -1 -1 -1 -1 -1 -1 -1 -1
 MicOpt= -1 -1 -1 -1 -1 -1 -1 -1 -1 -1 -1 -1 -1 -1 -1
 NAtoms=     35 NQM=       35 NQMF=       0 NMMI=      0 NMMIF=      0
                NMic=       0 NMicF=      0.
                    Isotopes and Nuclear Properties:
 (Nuclear quadrupole moments (NQMom) in fm**2, nuclear magnetic moments (NMagM)
  in nuclear magnetons)

  Atom         1           2           3           4           5           6           7           8           9          10
 IAtWgt=          12          12          16          12           1           1           1          12           1           1
 AtmWgt=  12.0000000  12.0000000  15.9949146  12.0000000   1.0078250   1.0078250   1.0078250  12.0000000   1.0078250   1.0078250
 NucSpn=           0           0           0           0           1           1           1           0           1           1
 AtZEff=  -0.0000000  -0.0000000  -0.0000000  -0.0000000  -0.0000000  -0.0000000  -0.0000000  -0.0000000  -0.0000000  -0.0000000
 NQMom=    0.0000000   0.0000000   0.0000000   0.0000000   0.0000000   0.0000000   0.0000000   0.0000000   0.0000000   0.0000000
 NMagM=    0.0000000   0.0000000   0.0000000   0.0000000   2.7928460   2.7928460   2.7928460   0.0000000   2.7928460   2.7928460
 AtZNuc=   6.0000000   6.0000000   8.0000000   6.0000000   1.0000000   1.0000000   1.0000000   6.0000000   1.0000000   1.0000000

  Atom        11          12          13          14          15          16          17          18          19          20
 IAtWgt=           1          12          12          12          12           1          12           1          12           1
 AtmWgt=   1.0078250  12.0000000  12.0000000  12.0000000  12.0000000   1.0078250  12.0000000   1.0078250  12.0000000   1.0078250
 NucSpn=           1           0           0           0           0           1           0           1           0           1
 AtZEff=  -0.0000000  -0.0000000  -0.0000000  -0.0000000  -0.0000000  -0.0000000  -0.0000000  -0.0000000  -0.0000000  -0.0000000
 NQMom=    0.0000000   0.0000000   0.0000000   0.0000000   0.0000000   0.0000000   0.0000000   0.0000000   0.0000000   0.0000000
 NMagM=    2.7928460   0.0000000   0.0000000   0.0000000   0.0000000   2.7928460   0.0000000   2.7928460   0.0000000   2.7928460
 AtZNuc=   1.0000000   6.0000000   6.0000000   6.0000000   6.0000000   1.0000000   6.0000000   1.0000000   6.0000000   1.0000000

  Atom        21          22          23          24          25          26          27          28          29          30
 IAtWgt=           1           1          12          12          12          12           1          12           1          12
 AtmWgt=   1.0078250   1.0078250  12.0000000  12.0000000  12.0000000  12.0000000   1.0078250  12.0000000   1.0078250  12.0000000
 NucSpn=           1           1           0           0           0           0           1           0           1           0
 AtZEff=  -0.0000000  -0.0000000  -0.0000000  -0.0000000  -0.0000000  -0.0000000  -0.0000000  -0.0000000  -0.0000000  -0.0000000
 NQMom=    0.0000000   0.0000000   0.0000000   0.0000000   0.0000000   0.0000000   0.0000000   0.0000000   0.0000000   0.0000000
 NMagM=    2.7928460   2.7928460   0.0000000   0.0000000   0.0000000   0.0000000   2.7928460   0.0000000   2.7928460   0.0000000
 AtZNuc=   1.0000000   1.0000000   6.0000000   6.0000000   6.0000000   6.0000000   1.0000000   6.0000000   1.0000000   6.0000000

  Atom        31          32          33          34          35
 IAtWgt=           1           1           1          16           1
 AtmWgt=   1.0078250   1.0078250   1.0078250  15.9949146   1.0078250
 NucSpn=           1           1           1           0           1
 AtZEff=  -0.0000000  -0.0000000  -0.0000000  -0.0000000  -0.0000000
 NQMom=    0.0000000   0.0000000   0.0000000   0.0000000   0.0000000
 NMagM=    2.7928460   2.7928460   2.7928460   0.0000000   2.7928460
 AtZNuc=   1.0000000   1.0000000   1.0000000   8.0000000   1.0000000
 Leave Link  101 at Sat May 25 04:17:44 2019, MaxMem=   104857600 cpu:               5.7 elap:               0.2
 (Enter /opt/software/gaussian/g16.b01/l202.exe)
                          Input orientation:                          
 ---------------------------------------------------------------------
 Center     Atomic      Atomic             Coordinates (Angstroms)
 Number     Number       Type             X           Y           Z
 ---------------------------------------------------------------------
      1          6           0       -0.512470   -1.256482   -0.360064
      2          6           0        0.553595   -1.247426    0.383861
      3          8           0       -1.215739   -2.467926   -0.314140
      4          6           0       -0.072514   -1.333531   -1.899599
      5          1           0       -0.964833   -1.366524   -2.522090
      6          1           0        0.513701   -0.441701   -2.125381
      7          1           0        0.539784   -2.219073   -2.051502
      8          6           0        0.047596   -1.297405    1.858597
      9          1           0       -0.515871   -0.410534    2.150230
     10          1           0       -0.597652   -2.172955    1.982516
     11          1           0        0.914334   -1.399347    2.512302
     12          6           0       -1.553428   -0.101858   -0.251604
     13          6           0       -2.722193   -0.327115    0.489167
     14          6           0       -1.391148    1.137769   -0.883353
     15          6           0       -3.697095    0.663824    0.609824
     16          1           0       -2.865505   -1.285446    0.977189
     17          6           0       -2.365555    2.130014   -0.765942
     18          1           0       -0.500655    1.343640   -1.465320
     19          6           0       -3.521035    1.898752   -0.016977
     20          1           0       -4.591994    0.469252    1.193488
     21          1           0       -2.220831    3.083331   -1.265384
     22          1           0       -4.278750    2.671463    0.071753
     23          6           0        1.556882   -0.067352    0.256272
     24          6           0        2.780045   -0.252582   -0.402837
     25          6           0        1.286656    1.192068    0.810238
     26          6           0        3.699122    0.792877   -0.515970
     27          1           0        3.013327   -1.223117   -0.821468
     28          6           0        2.205314    2.236723    0.701873
     29          1           0        0.351145    1.372689    1.325847
     30          6           0        3.415919    2.043561    0.034130
     31          1           0        4.640112    0.623894   -1.031595
     32          1           0        1.970518    3.201974    1.140736
     33          1           0        4.131150    2.856253   -0.051327
     34          8           0        1.391274   -2.429998    0.234948
     35          1           0        0.799592   -3.191445    0.327849
 ---------------------------------------------------------------------
                    Distance matrix (angstroms):
                    1          2          3          4          5
     1  C    0.000000
     2  C    1.300000   0.000000
     3  O    1.401532   2.259949   0.000000
     4  C    1.603018   2.369307   2.259977   0.000000
     5  H    2.211583   3.280908   2.480138   1.088493   0.000000
     6  H    2.198463   2.635731   3.221358   1.090865   1.788502
     7  H    2.212416   2.622076   2.482381   1.087275   1.792251
     8  C    2.288625   1.559929   2.772530   3.760288   4.496689
     9  H    2.649003   2.228050   3.285696   4.177272   4.790204
    10  H    2.516915   2.176619   2.396595   4.006397   4.590929
    11  H    3.210400   2.164133   3.697005   4.521401   5.373774
    12  C    1.558369   2.481066   2.390862   2.534958   2.664757
    13  C    2.543185   3.404240   2.738207   3.706734   3.638180
    14  C    2.603525   3.328215   3.654560   2.979744   3.023026
    15  C    3.843188   4.666080   4.101060   4.839857   4.625630
    16  H    2.706632   3.470408   2.405726   4.009865   3.982974
    17  C    3.881625   4.609836   4.761014   4.305736   4.155942
    18  H    2.825308   3.353287   4.045318   2.745751   2.945711
    19  C    4.373177   5.163498   4.946774   5.087653   4.844769
    20  H    4.694060   5.484484   4.722187   5.765667   5.507440
    21  H    4.751008   5.401195   5.721148   4.952390   4.791456
    22  H    5.458945   6.229499   5.995354   6.133403   5.832273
    23  C    2.464978   1.554168   3.711543   2.984279   3.970666
    24  C    3.442426   2.562360   4.569672   3.397917   4.444796
    25  C    3.256049   2.582694   4.574031   3.945784   4.766551
    26  C    4.686330   3.855758   5.901646   4.545468   5.517246
    27  H    3.556016   2.739286   4.437559   3.270623   4.328792
    28  C    4.551543   3.868928   5.905049   4.970198   5.781622
    29  H    3.240473   2.791653   4.460382   4.231621   4.903234
    30  C    5.145669   4.375592   6.475111   5.226205   6.111786
    31  H    5.525927   4.712216   6.660712   5.176272   6.131782
    32  H    5.319348   4.730506   6.664583   5.829959   6.550096
    33  H    6.210726   5.461545   7.550177   6.216204   7.064387
    34  O    2.314178   1.456831   2.664480   2.810908   3.779349
    35  H    2.436968   1.960322   2.235439   3.028851   3.816502
                    6          7          8          9         10
     6  H    0.000000
     7  H    1.779098   0.000000
     8  C    4.101410   4.047295   0.000000
     9  H    4.397936   4.694654   1.090452   0.000000
    10  H    4.594253   4.191562   1.094664   1.772271   0.000000
    11  H    4.752441   4.651940   1.090393   1.776044   1.779113
    12  C    2.810615   3.479047   2.906124   2.634504   3.192842
    13  C    4.161731   4.546977   3.238600   2.762960   3.186046
    14  C    2.768720   4.044930   3.939333   3.516529   4.450139
    15  C    5.141433   5.774504   4.407784   3.694223   4.420197
    16  H    4.664427   4.651948   3.043547   2.768082   2.634675
    17  C    4.092909   5.385928   4.945574   4.287164   5.403244
    18  H    2.156859   3.757532   4.280668   4.018651   4.925791
    19  C    5.118807   6.130744   5.144738   4.365845   5.396567
    20  H    6.157341   6.640196   5.008916   4.278336   4.853719
    21  H    4.543469   6.029466   5.839167   5.174978   6.388435
    22  H    6.122644   7.186364   6.136937   5.289426   6.377294
    23  C    2.626906   3.315149   2.521591   2.828631   3.472103
    24  C    2.852935   3.406457   3.697569   4.172069   4.559230
    25  C    3.447393   4.514782   2.971835   2.759169   4.030910
    26  C    3.776413   4.627215   4.831303   5.130593   5.787993
    27  H    2.925565   2.936550   3.997978   4.684711   4.669442
    28  C    4.246042   5.496288   4.299281   4.063318   5.379770
    29  H    3.902488   4.933845   2.739592   2.147372   3.728676
    30  C    4.388950   5.549060   5.082945   5.095040   6.138727
    31  H    4.399901   5.092677   5.756371   6.146398   6.658934
    32  H    5.105507   6.451754   4.945439   4.500158   6.016141
    33  H    5.316403   6.531274   6.129935   6.092090   7.196598
    34  O    3.208522   2.448955   2.392587   3.373980   2.660055
    35  H    3.696101   2.583470   2.548740   3.575609   2.393227
                   11         12         13         14         15
    11  H    0.000000
    12  C    3.925876   0.000000
    13  C    4.297335   1.401961   0.000000
    14  C    4.825213   1.400756   2.408605   0.000000
    15  C    5.398275   2.433852   1.395332   2.787758   0.000000
    16  H    4.081266   2.152292   1.084943   3.392244   2.150849
    17  C    5.827602   2.430092   2.782081   1.395638   2.411523
    18  H    5.034645   2.161227   3.398040   1.083534   3.871124
    19  C    6.078421   2.815842   2.418432   2.422008   1.396039
    20  H    5.962431   3.412820   2.150912   3.873706   1.085986
    21  H    6.647900   3.408608   3.867939   2.149310   3.398496
    22  H    7.035332   3.901698   3.404199   3.406272   2.158346
    23  C    2.697545   3.151691   4.293274   3.382594   5.316380
    24  C    3.646091   4.338730   5.574572   4.422988   6.619564
    25  C    3.122671   3.296639   4.299055   3.168885   5.015674
    26  C    4.661687   5.334765   6.595299   5.115151   7.482519
    27  H    3.943457   4.736794   5.951199   4.997701   7.116102
    28  C    4.262076   4.528380   5.558672   4.081076   6.109085
    29  H    3.067416   2.879243   3.610370   2.823356   4.171741
    30  C    4.924721   5.420228   6.595725   4.976960   7.268429
    31  H    5.525770   6.284508   7.577643   6.054927   8.497345
    32  H    4.916185   5.027138   5.907669   4.433811   6.232649
    33  H    5.918634   6.411315   7.575901   5.843050   8.156303
    34  O    2.544809   3.785266   4.626808   4.660626   5.966889
    35  H    2.827829   3.926578   4.542398   5.000845   5.929823
                   16         17         18         19         20
    16  H    0.000000
    17  C    3.867017   0.000000
    18  H    4.297727   2.141347   0.000000
    19  C    3.399589   1.396268   3.395371   0.000000
    20  H    2.471136   3.399195   4.957103   2.157695   0.000000
    21  H    4.952873   1.085910   2.454690   2.156914   4.301381
    22  H    4.298163   2.157595   4.289488   1.085858   2.491213
    23  C    4.643380   4.610732   3.031210   5.452107   6.242996
    24  C    5.902840   5.682060   3.799972   6.669388   7.577352
    25  C    4.838015   4.086898   2.897519   4.929258   5.935307
    26  C    7.045799   6.215362   4.340822   7.321381   8.471693
    27  H    6.148147   6.338686   4.398961   7.286368   8.047675
    28  C    6.180184   4.801949   3.580027   5.781180   7.040528
    29  H    4.187372   3.511350   2.918393   4.132033   5.026762
    30  C    7.171327   5.837211   4.251799   6.938653   8.243132
    31  H    8.000942   7.170658   5.208996   8.322201   9.497720
    32  H    6.599303   4.856547   4.043715   5.761583   7.108946
    33  H    8.195407   6.576114   5.073558   7.711934   9.129106
    34  O    4.470021   5.992433   4.550896   6.552276   6.717436
    35  H    4.181795   6.287484   5.047088   6.685569   6.574134
                   21         22         23         24         25
    21  H    0.000000
    22  H    2.488494   0.000000
    23  C    5.149112   6.449012   0.000000
    24  C    6.072978   7.655185   1.401736   0.000000
    25  C    4.493055   5.805834   1.402155   2.405987   0.000000
    26  C    6.391686   8.217113   2.434244   1.396598   2.781757
    27  H    6.792567   8.315046   2.149081   1.082410   3.387769
    28  C    4.917073   6.529099   2.434704   2.783404   1.395342
    29  H    4.031853   4.969456   2.161368   3.395498   1.083355
    30  C    5.877313   7.720337   2.821581   2.422302   2.420980
    31  H    7.292189   9.217159   3.412144   2.150208   3.867924
    32  H    4.834345   6.362194   3.412018   3.869355   2.148632
    33  H    6.470947   8.412830   3.907549   3.407917   3.406311
    34  O    6.759815   7.628939   2.368539   2.660187   3.668960
    35  H    7.143820   7.760724   3.215364   3.618427   4.436791
                   26         27         28         29         30
    26  C    0.000000
    27  H    2.151250   0.000000
    28  C    2.408173   3.865740   0.000000
    29  H    3.864896   4.293761   2.138654   0.000000
    30  C    1.395358   3.400781   1.395979   3.392852   0.000000
    31  H    1.086226   2.470229   3.396229   4.951107   2.156356
    32  H    3.396542   4.951679   1.086020   2.450085   2.157703
    33  H    2.158718   4.299291   2.158697   4.287891   1.085968
    34  O    4.034472   2.281147   4.760143   4.090520   4.914493
    35  H    4.999413   3.177399   5.619694   4.693445   5.859755
                   31         32         33         34         35
    31  H    0.000000
    32  H    4.300262   0.000000
    33  H    2.490661   2.491760   0.000000
    34  O    4.635228   5.733680   5.960983   0.000000
    35  H    5.581621   6.550394   6.915035   0.968772   0.000000
 Stoichiometry    C16H17O2(2)
 Framework group  C1[X(C16H17O2)]
 Deg. of freedom    99
 Full point group                 C1      NOp   1
 Largest Abelian subgroup         C1      NOp   1
 Largest concise Abelian subgroup C1      NOp   1
                         Standard orientation:                         
 ---------------------------------------------------------------------
 Center     Atomic      Atomic             Coordinates (Angstroms)
 Number     Number       Type             X           Y           Z
 ---------------------------------------------------------------------
      1          6           0        0.512470   -1.256482    0.360064
      2          6           0       -0.553595   -1.247426   -0.383861
      3          8           0        1.215739   -2.467926    0.314140
      4          6           0        0.072514   -1.333531    1.899599
      5          1           0        0.964833   -1.366524    2.522090
      6          1           0       -0.513701   -0.441701    2.125381
      7          1           0       -0.539784   -2.219073    2.051502
      8          6           0       -0.047596   -1.297405   -1.858597
      9          1           0        0.515871   -0.410534   -2.150230
     10          1           0        0.597652   -2.172955   -1.982516
     11          1           0       -0.914334   -1.399347   -2.512302
     12          6           0        1.553428   -0.101858    0.251604
     13          6           0        2.722193   -0.327115   -0.489167
     14          6           0        1.391148    1.137769    0.883353
     15          6           0        3.697095    0.663824   -0.609824
     16          1           0        2.865505   -1.285446   -0.977189
     17          6           0        2.365555    2.130014    0.765942
     18          1           0        0.500655    1.343640    1.465320
     19          6           0        3.521035    1.898752    0.016977
     20          1           0        4.591994    0.469252   -1.193488
     21          1           0        2.220831    3.083331    1.265384
     22          1           0        4.278750    2.671463   -0.071753
     23          6           0       -1.556882   -0.067352   -0.256272
     24          6           0       -2.780045   -0.252582    0.402837
     25          6           0       -1.286656    1.192068   -0.810238
     26          6           0       -3.699122    0.792877    0.515970
     27          1           0       -3.013327   -1.223117    0.821468
     28          6           0       -2.205314    2.236723   -0.701873
     29          1           0       -0.351145    1.372689   -1.325847
     30          6           0       -3.415919    2.043561   -0.034130
     31          1           0       -4.640112    0.623894    1.031595
     32          1           0       -1.970518    3.201974   -1.140736
     33          1           0       -4.131150    2.856253    0.051327
     34          8           0       -1.391274   -2.429998   -0.234948
     35          1           0       -0.799592   -3.191445   -0.327849
 ---------------------------------------------------------------------
 Rotational constants (GHZ):           0.6567181           0.3683944           0.2824298
 Leave Link  202 at Sat May 25 04:17:44 2019, MaxMem=   104857600 cpu:               0.9 elap:               0.1
 (Enter /opt/software/gaussian/g16.b01/l301.exe)
 Standard basis: 6-31G(d,p) (6D, 7F)
 Ernie: Thresh=  0.10000D-02 Tol=  0.10000D-05 Strict=F.
 There are   355 symmetry adapted cartesian basis functions of A   symmetry.
 There are   355 symmetry adapted basis functions of A   symmetry.
   355 basis functions,   623 primitive gaussians,   355 cartesian basis functions
    65 alpha electrons       64 beta electrons
       nuclear repulsion energy      1335.7308316109 Hartrees.
 IExCor=  402 DFT=T Ex+Corr=B3LYP ExCW=0 ScaHFX=  0.200000
 ScaDFX=  0.800000  0.720000  1.000000  0.810000 ScalE2=  1.000000  1.000000
 IRadAn=      5 IRanWt=     -1 IRanGd=            0 ICorTp=0 IEmpDi=131
 NAtoms=   35 NActive=   35 NUniq=   35 SFac= 1.00D+00 NAtFMM=   60 NAOKFM=F Big=F
 Integral buffers will be    131072 words long.
 Raffenetti 2 integral format.
 Two-electron integral symmetry is turned on.
 R6Disp:  Grimme-D3 Dispersion energy=       -0.0416624668 Hartrees.
 Nuclear repulsion after empirical dispersion term =     1335.6891691441 Hartrees.
 ------------------------------------------------------------------------------
 Polarizable Continuum Model (PCM)
 =================================
 Model                : PCM.
 Atomic radii         : UFF (Universal Force Field).
 Polarization charges : Total charges.
 Charge compensation  : None.
 Solution method      : On-the-fly selection.
 Cavity type          : Scaled VdW (van der Waals Surface) (Alpha=1.100).
 Cavity algorithm     : GePol (No added spheres)
                        Default sphere list used, NSphG=   35.
                        Lebedev-Laikov grids with approx.  5.0 points / Ang**2.
                        Smoothing algorithm: York/Karplus (Gamma=1.0000).
                        Polarization charges: spherical gaussians, with
                                              point-specific exponents (IZeta= 3).
                        Self-potential: point-specific (ISelfS= 7).
                        Self-field    : sphere-specific E.n sum rule (ISelfD= 2).
 Solvent              : Acetonitrile, Eps=  35.688000 Eps(inf)=   1.806874
 ------------------------------------------------------------------------------
 GePol: Number of generator spheres                  =      35
 GePol: Total number of spheres                      =      35
 GePol: Number of exposed spheres                    =      33 ( 94.29%)
 GePol: Number of points                             =    2312
 GePol: Average weight of points                     =       0.13
 GePol: Minimum weight of points                     =   0.14D-09
 GePol: Maximum weight of points                     =    0.20577
 GePol: Number of points with low weight             =     136
 GePol: Fraction of low-weight points (<1% of avg)   =       5.88%
 GePol: Cavity surface area                          =    308.930 Ang**2
 GePol: Cavity volume                                =    349.495 Ang**3
 Leave Link  301 at Sat May 25 04:17:45 2019, MaxMem=   104857600 cpu:               4.6 elap:               0.2
 (Enter /opt/software/gaussian/g16.b01/l302.exe)
 NPDir=0 NMtPBC=     1 NCelOv=     1 NCel=       1 NClECP=     1 NCelD=      1
         NCelK=      1 NCelE2=     1 NClLst=     1 CellRange=     0.0.
 One-electron integrals computed using PRISM.
 One-electron integral symmetry used in STVInt
 PrsmSu:  requested number of processors reduced to:  28 ShMem   1 Linda.
 NBasis=   355 RedAO= T EigKep=  4.40D-04  NBF=   355
 NBsUse=   355 1.00D-06 EigRej= -1.00D+00 NBFU=   355
 Precomputing XC quadrature grid using
 IXCGrd= 4 IRadAn=           5 IRanWt=          -1 IRanGd=           0 AccXCQ= 0.00D+00.
 Generated NRdTot=       0 NPtTot=           0 NUsed=           0 NTot=          32
 NSgBfM=   354   354   354   354   354 MxSgAt=    35 MxSgA2=    35.
 Leave Link  302 at Sat May 25 04:17:46 2019, MaxMem=   104857600 cpu:              19.3 elap:               0.7
 (Enter /opt/software/gaussian/g16.b01/l303.exe)
 DipDrv:  MaxL=1.
 Leave Link  303 at Sat May 25 04:17:46 2019, MaxMem=   104857600 cpu:               1.6 elap:               0.1
 (Enter /opt/software/gaussian/g16.b01/l308.exe)
 Leave Link  308 at Sat May 25 04:17:46 2019, MaxMem=   104857600 cpu:               1.5 elap:               0.1
 (Enter /opt/software/gaussian/g16.b01/l401.exe)
 ExpMin= 1.61D-01 ExpMax= 5.48D+03 ExpMxC= 8.25D+02 IAcc=3 IRadAn=         5 AccDes= 0.00D+00
 Harris functional with IExCor=  402 and IRadAn=       5 diagonalized for initial guess.
 HarFok:  IExCor=  402 AccDes= 0.00D+00 IRadAn=         5 IDoV= 1 UseB2=F ITyADJ=14
 ICtDFT=  3500011 ScaDFX=  1.000000  1.000000  1.000000  1.000000
 FoFCou: FMM=F IPFlag=           0 FMFlag=      100000 FMFlg1=           0
         NFxFlg=           0 DoJE=T BraDBF=F KetDBF=T FulRan=T
         wScrn=  0.000000 ICntrl=       500 IOpCl=  0 I1Cent=   200000004 NGrid=           0
         NMat0=    1 NMatS0=      1 NMatT0=    0 NMatD0=    1 NMtDS0=    0 NMtDT0=    0
 Petite list used in FoFCou.
 Harris En= -770.344597872428    
 JPrj=0 DoOrth=F DoCkMO=T.
 Mixing orbitals, IMix= 1 IMixAn=  0 NRI=1 NE=   65 Coef=  7.07106781D-01  7.07106781D-01
 Mixing orbitals, IMix= 1 IMixAn=  0 NRI=1 NE=   64 Coef= -7.07106781D-01  7.07106781D-01
 Initial guess <Sx>= 0.0000 <Sy>= 0.0000 <Sz>= 0.5000 <S**2>= 1.0000 S= 0.6180
 Leave Link  401 at Sat May 25 04:17:47 2019, MaxMem=   104857600 cpu:              27.8 elap:               0.9
 (Enter /opt/software/gaussian/g16.b01/l502.exe)
 Integral symmetry usage will be decided dynamically.
 UHF open shell SCF:
 Using DIIS extrapolation, IDIIS=  1040.
 NGot=   104857600 LenX=   104590331 LenY=   104463865
 Requested convergence on RMS density matrix=1.00D-08 within 128 cycles.
 Requested convergence on MAX density matrix=1.00D-06.
 Requested convergence on             energy=1.00D-06.
 No special actions if energy rises.
 Fock matrices will be formed incrementally for  20 cycles.

 Cycle   1  Pass 1  IDiag  1:
 FoFJK:  IHMeth= 1 ICntrl=       0 DoSepK=F KAlg= 0 I1Cent=           0 FoldK=F
 IRaf= 830000000 NMat=       1 IRICut=       1 DoRegI=T DoRafI=F ISym2E= 0 IDoP0=0 IntGTp=1.
 FoFCou: FMM=F IPFlag=           0 FMFlag=      100000 FMFlg1=           0
         NFxFlg=           0 DoJE=F BraDBF=F KetDBF=F FulRan=T
         wScrn=  0.000000 ICntrl=         0 IOpCl=  1 I1Cent=           0 NGrid=           0
         NMat0=    1 NMatS0=      1 NMatT0=    0 NMatD0=    1 NMtDS0=    0 NMtDT0=    0
 Symmetry not used in FoFCou.
 Inv3:  Mode=1 IEnd=    16036032.
 Iteration    1 A*A^-1 deviation from unit magnitude is 3.77D-15 for    892.
 Iteration    1 A*A^-1 deviation from orthogonality  is 2.04D-15 for   1636    203.
 Iteration    1 A^-1*A deviation from unit magnitude is 4.22D-15 for    892.
 Iteration    1 A^-1*A deviation from orthogonality  is 1.98D-15 for   1637    181.
 E= -769.774069804265    
 DIIS: error= 2.20D-02 at cycle   1 NSaved=   1.
 NSaved= 1 IEnMin= 1 EnMin= -769.774069804265     IErMin= 1 ErrMin= 2.20D-02
 ErrMax= 2.20D-02  0.00D+00 EMaxC= 1.00D-01 BMatC= 1.70D+00 BMatP= 1.70D+00
 IDIUse=3 WtCom= 7.80D-01 WtEn= 2.20D-01
 Coeff-Com:  0.100D+01
 Coeff-En:   0.100D+01
 Coeff:      0.100D+01
 Gap=     0.021 Goal=   None    Shift=    0.000
 Gap=     0.048 Goal=   None    Shift=    0.000
 GapD=    0.021 DampG=0.250 DampE=0.500 DampFc=0.2500 IDamp=-1.
 Damping current iteration by 2.50D-01
 RMSDP=4.60D-03 MaxDP=2.74D-01              OVMax= 5.75D-01

 Cycle   2  Pass 1  IDiag  1:
 RMSU=  1.13D-03    CP:  9.86D-01
 E= -769.948768606255     Delta-E=       -0.174698801991 Rises=F Damp=T
 DIIS: error= 1.26D-02 at cycle   2 NSaved=   2.
 NSaved= 2 IEnMin= 2 EnMin= -769.948768606255     IErMin= 2 ErrMin= 1.26D-02
 ErrMax= 1.26D-02  0.00D+00 EMaxC= 1.00D-01 BMatC= 4.75D-01 BMatP= 1.70D+00
 IDIUse=3 WtCom= 8.74D-01 WtEn= 1.26D-01
 Coeff-Com: -0.643D+00 0.164D+01
 Coeff-En:   0.000D+00 0.100D+01
 Coeff:     -0.562D+00 0.156D+01
 Gap=     0.247 Goal=   None    Shift=    0.000
 Gap=    -0.001 Goal=   None    Shift=    0.000
 RMSDP=2.57D-03 MaxDP=1.77D-01 DE=-1.75D-01 OVMax= 7.50D-01

 Cycle   3  Pass 1  IDiag  1:
 RMSU=  2.37D-03    CP:  9.59D-01  1.80D+00
 E= -770.218696140149     Delta-E=       -0.269927533893 Rises=F Damp=F
 DIIS: error= 1.51D-02 at cycle   3 NSaved=   3.
 NSaved= 3 IEnMin= 3 EnMin= -770.218696140149     IErMin= 2 ErrMin= 1.26D-02
 ErrMax= 1.51D-02  0.00D+00 EMaxC= 1.00D-01 BMatC= 4.83D-01 BMatP= 4.75D-01
 IDIUse=3 WtCom= 8.49D-01 WtEn= 1.51D-01
 Coeff-Com: -0.473D+00 0.105D+01 0.419D+00
 Coeff-En:   0.000D+00 0.000D+00 0.100D+01
 Coeff:     -0.402D+00 0.895D+00 0.507D+00
 Gap=     0.261 Goal=   None    Shift=    0.000
 Gap=     0.089 Goal=   None    Shift=    0.000
 RMSDP=1.54D-03 MaxDP=9.70D-02 DE=-2.70D-01 OVMax= 1.44D-01

 Cycle   4  Pass 1  IDiag  1:
 RMSU=  1.08D-03    CP:  9.62D-01  1.83D+00  5.36D-01
 E= -770.317896701889     Delta-E=       -0.099200561740 Rises=F Damp=F
 DIIS: error= 4.90D-03 at cycle   4 NSaved=   4.
 NSaved= 4 IEnMin= 4 EnMin= -770.317896701889     IErMin= 4 ErrMin= 4.90D-03
 ErrMax= 4.90D-03  0.00D+00 EMaxC= 1.00D-01 BMatC= 4.03D-02 BMatP= 4.75D-01
 IDIUse=3 WtCom= 9.51D-01 WtEn= 4.90D-02
 Coeff-Com: -0.120D+00 0.251D+00 0.239D+00 0.631D+00
 Coeff-En:   0.000D+00 0.000D+00 0.446D-02 0.996D+00
 Coeff:     -0.114D+00 0.239D+00 0.227D+00 0.649D+00
 Gap=     0.229 Goal=   None    Shift=    0.000
 Gap=     0.089 Goal=   None    Shift=    0.000
 RMSDP=4.67D-04 MaxDP=5.59D-02 DE=-9.92D-02 OVMax= 1.19D-01

 Cycle   5  Pass 1  IDiag  1:
 RMSU=  3.82D-04    CP:  9.61D-01  1.87D+00  6.16D-01  8.28D-01
 E= -770.325831146622     Delta-E=       -0.007934444732 Rises=F Damp=F
 DIIS: error= 2.79D-03 at cycle   5 NSaved=   5.
 NSaved= 5 IEnMin= 5 EnMin= -770.325831146622     IErMin= 5 ErrMin= 2.79D-03
 ErrMax= 2.79D-03  0.00D+00 EMaxC= 1.00D-01 BMatC= 1.76D-02 BMatP= 4.03D-02
 IDIUse=3 WtCom= 9.72D-01 WtEn= 2.79D-02
 Coeff-Com: -0.356D-01 0.555D-01 0.748D-01 0.445D+00 0.460D+00
 Coeff-En:   0.000D+00 0.000D+00 0.000D+00 0.199D+00 0.801D+00
 Coeff:     -0.346D-01 0.540D-01 0.727D-01 0.438D+00 0.470D+00
 Gap=     0.232 Goal=   None    Shift=    0.000
 Gap=     0.094 Goal=   None    Shift=    0.000
 RMSDP=2.27D-04 MaxDP=1.25D-02 DE=-7.93D-03 OVMax= 2.90D-02

 Cycle   6  Pass 1  IDiag  1:
 RMSU=  2.01D-04    CP:  9.60D-01  1.89D+00  5.98D-01  8.93D-01  8.43D-01
 E= -770.329767653250     Delta-E=       -0.003936506629 Rises=F Damp=F
 DIIS: error= 8.17D-04 at cycle   6 NSaved=   6.
 NSaved= 6 IEnMin= 6 EnMin= -770.329767653250     IErMin= 6 ErrMin= 8.17D-04
 ErrMax= 8.17D-04  0.00D+00 EMaxC= 1.00D-01 BMatC= 1.31D-03 BMatP= 1.76D-02
 IDIUse=3 WtCom= 9.92D-01 WtEn= 8.17D-03
 Coeff-Com: -0.869D-02 0.619D-02-0.293D-01 0.539D-01 0.150D+00 0.827D+00
 Coeff-En:   0.000D+00 0.000D+00 0.000D+00 0.000D+00 0.000D+00 0.100D+01
 Coeff:     -0.861D-02 0.614D-02-0.291D-01 0.535D-01 0.149D+00 0.829D+00
 Gap=     0.234 Goal=   None    Shift=    0.000
 Gap=     0.098 Goal=   None    Shift=    0.000
 RMSDP=1.50D-04 MaxDP=1.52D-02 DE=-3.94D-03 OVMax= 3.06D-02

 Cycle   7  Pass 1  IDiag  1:
 RMSU=  1.05D-04    CP:  9.60D-01  1.91D+00  5.78D-01  9.33D-01  1.05D+00
                    CP:  1.14D+00
 E= -770.330671671738     Delta-E=       -0.000904018488 Rises=F Damp=F
 DIIS: error= 7.20D-04 at cycle   7 NSaved=   7.
 NSaved= 7 IEnMin= 7 EnMin= -770.330671671738     IErMin= 7 ErrMin= 7.20D-04
 ErrMax= 7.20D-04  0.00D+00 EMaxC= 1.00D-01 BMatC= 6.51D-04 BMatP= 1.31D-03
 IDIUse=3 WtCom= 9.93D-01 WtEn= 7.20D-03
 Coeff-Com: -0.660D-03-0.186D-02-0.313D-01-0.399D-01-0.205D-01 0.513D+00
 Coeff-Com:  0.581D+00
 Coeff-En:   0.000D+00 0.000D+00 0.000D+00 0.000D+00 0.000D+00 0.000D+00
 Coeff-En:   0.100D+01
 Coeff:     -0.655D-03-0.184D-02-0.311D-01-0.396D-01-0.203D-01 0.509D+00
 Coeff:      0.584D+00
 Gap=     0.234 Goal=   None    Shift=    0.000
 Gap=     0.099 Goal=   None    Shift=    0.000
 RMSDP=9.45D-05 MaxDP=1.12D-02 DE=-9.04D-04 OVMax= 1.91D-02

 Cycle   8  Pass 1  IDiag  1:
 RMSU=  5.61D-05    CP:  9.59D-01  1.92D+00  5.69D-01  9.44D-01  1.13D+00
                    CP:  1.44D+00  1.21D+00
 E= -770.331201943828     Delta-E=       -0.000530272090 Rises=F Damp=F
 DIIS: error= 6.44D-04 at cycle   8 NSaved=   8.
 NSaved= 8 IEnMin= 8 EnMin= -770.331201943828     IErMin= 8 ErrMin= 6.44D-04
 ErrMax= 6.44D-04  0.00D+00 EMaxC= 1.00D-01 BMatC= 1.70D-04 BMatP= 6.51D-04
 IDIUse=3 WtCom= 9.94D-01 WtEn= 6.44D-03
 Coeff-Com: -0.963D-03 0.437D-02 0.130D-02-0.190D-01-0.632D-01-0.527D-01
 Coeff-Com:  0.263D+00 0.868D+00
 Coeff-En:   0.000D+00 0.000D+00 0.000D+00 0.000D+00 0.000D+00 0.000D+00
 Coeff-En:   0.000D+00 0.100D+01
 Coeff:     -0.956D-03 0.435D-02 0.129D-02-0.189D-01-0.628D-01-0.523D-01
 Coeff:      0.261D+00 0.868D+00
 Gap=     0.234 Goal=   None    Shift=    0.000
 Gap=     0.100 Goal=   None    Shift=    0.000
 RMSDP=1.03D-04 MaxDP=1.42D-02 DE=-5.30D-04 OVMax= 2.83D-02

 Cycle   9  Pass 1  IDiag  1:
 RMSU=  3.08D-05    CP:  9.59D-01  1.93D+00  5.62D-01  9.53D-01  1.19D+00
                    CP:  1.68D+00  1.86D+00  1.71D+00
 E= -770.331670901343     Delta-E=       -0.000468957515 Rises=F Damp=F
 DIIS: error= 5.54D-04 at cycle   9 NSaved=   9.
 NSaved= 9 IEnMin= 9 EnMin= -770.331670901343     IErMin= 9 ErrMin= 5.54D-04
 ErrMax= 5.54D-04  0.00D+00 EMaxC= 1.00D-01 BMatC= 9.30D-05 BMatP= 1.70D-04
 IDIUse=3 WtCom= 9.94D-01 WtEn= 5.54D-03
 Coeff-Com: -0.663D-03 0.415D-02 0.154D-01 0.161D-01-0.461D-02-0.209D+00
 Coeff-Com: -0.138D+00 0.221D+00 0.110D+01
 Coeff-En:   0.000D+00 0.000D+00 0.000D+00 0.000D+00 0.000D+00 0.000D+00
 Coeff-En:   0.000D+00 0.000D+00 0.100D+01
 Coeff:     -0.659D-03 0.413D-02 0.153D-01 0.160D-01-0.458D-02-0.208D+00
 Coeff:     -0.137D+00 0.219D+00 0.110D+01
 Gap=     0.234 Goal=   None    Shift=    0.000
 Gap=     0.101 Goal=   None    Shift=    0.000
 RMSDP=1.21D-04 MaxDP=1.64D-02 DE=-4.69D-04 OVMax= 3.62D-02

 Cycle  10  Pass 1  IDiag  1:
 RMSU=  2.02D-05    CP:  9.59D-01  1.94D+00  5.53D-01  9.60D-01  1.26D+00
                    CP:  1.93D+00  2.57D+00  2.83D+00  1.95D+00
 E= -770.332124777744     Delta-E=       -0.000453876400 Rises=F Damp=F
 DIIS: error= 4.56D-04 at cycle  10 NSaved=  10.
 NSaved=10 IEnMin=10 EnMin= -770.332124777744     IErMin=10 ErrMin= 4.56D-04
 ErrMax= 4.56D-04  0.00D+00 EMaxC= 1.00D-01 BMatC= 6.78D-05 BMatP= 9.30D-05
 IDIUse=3 WtCom= 9.95D-01 WtEn= 4.56D-03
 Coeff-Com:  0.103D-02-0.212D-02 0.128D-01 0.441D-01 0.874D-01-0.874D-01
 Coeff-Com: -0.385D+00-0.927D+00 0.676D+00 0.158D+01
 Coeff-En:   0.000D+00 0.000D+00 0.000D+00 0.000D+00 0.000D+00 0.000D+00
 Coeff-En:   0.000D+00 0.000D+00 0.000D+00 0.100D+01
 Coeff:      0.103D-02-0.211D-02 0.127D-01 0.439D-01 0.870D-01-0.870D-01
 Coeff:     -0.384D+00-0.923D+00 0.673D+00 0.158D+01
 Gap=     0.234 Goal=   None    Shift=    0.000
 Gap=     0.102 Goal=   None    Shift=    0.000
 RMSDP=2.33D-04 MaxDP=3.04D-02 DE=-4.54D-04 OVMax= 7.49D-02

 Cycle  11  Pass 1  IDiag  1:
 RMSU=  1.58D-04    CP:  9.58D-01  1.97D+00  5.33D-01  9.63D-01  1.35D+00
                    CP:  2.35D+00  3.00D+00  3.00D+00  3.00D+00  2.60D+00
 E= -770.332736827036     Delta-E=       -0.000612049292 Rises=F Damp=F
 DIIS: error= 2.48D-04 at cycle  11 NSaved=  11.
 NSaved=11 IEnMin=11 EnMin= -770.332736827036     IErMin=11 ErrMin= 2.48D-04
 ErrMax= 2.48D-04  0.00D+00 EMaxC= 1.00D-01 BMatC= 3.24D-05 BMatP= 6.78D-05
 IDIUse=3 WtCom= 9.98D-01 WtEn= 2.48D-03
 Coeff-Com: -0.866D-03 0.162D-04 0.305D-02 0.266D-01 0.536D-01 0.580D-01
 Coeff-Com: -0.130D+00-0.640D+00-0.139D+00 0.939D+00 0.829D+00
 Coeff-En:   0.000D+00 0.000D+00 0.000D+00 0.000D+00 0.000D+00 0.000D+00
 Coeff-En:   0.000D+00 0.000D+00 0.000D+00 0.000D+00 0.100D+01
 Coeff:     -0.864D-03 0.161D-04 0.304D-02 0.265D-01 0.535D-01 0.578D-01
 Coeff:     -0.130D+00-0.638D+00-0.139D+00 0.937D+00 0.830D+00
 Gap=     0.234 Goal=   None    Shift=    0.000
 Gap=     0.104 Goal=   None    Shift=    0.000
 RMSDP=1.11D-04 MaxDP=1.32D-02 DE=-6.12D-04 OVMax= 3.63D-02

 Cycle  12  Pass 1  IDiag  1:
 RMSU=  2.70D-05    CP:  9.58D-01  1.99D+00  5.23D-01  9.62D-01  1.37D+00
                    CP:  2.52D+00  3.00D+00  3.00D+00  3.00D+00  3.00D+00
                    CP:  1.61D+00
 E= -770.332905383068     Delta-E=       -0.000168556032 Rises=F Damp=F
 DIIS: error= 1.63D-04 at cycle  12 NSaved=  12.
 NSaved=12 IEnMin=12 EnMin= -770.332905383068     IErMin=12 ErrMin= 1.63D-04
 ErrMax= 1.63D-04  0.00D+00 EMaxC= 1.00D-01 BMatC= 1.46D-05 BMatP= 3.24D-05
 IDIUse=3 WtCom= 9.98D-01 WtEn= 1.63D-03
 Coeff-Com: -0.143D-02 0.158D-02-0.119D-02 0.779D-02 0.810D-02 0.750D-01
 Coeff-Com:  0.437D-01-0.145D+00-0.291D+00 0.144D+00 0.368D+00 0.791D+00
 Coeff-En:   0.000D+00 0.000D+00 0.000D+00 0.000D+00 0.000D+00 0.000D+00
 Coeff-En:   0.000D+00 0.000D+00 0.000D+00 0.000D+00 0.000D+00 0.100D+01
 Coeff:     -0.143D-02 0.158D-02-0.119D-02 0.778D-02 0.809D-02 0.749D-01
 Coeff:      0.436D-01-0.145D+00-0.290D+00 0.144D+00 0.367D+00 0.791D+00
 Gap=     0.234 Goal=   None    Shift=    0.000
 Gap=     0.103 Goal=   None    Shift=    0.000
 RMSDP=4.92D-05 MaxDP=5.24D-03 DE=-1.69D-04 OVMax= 1.56D-02

 Cycle  13  Pass 1  IDiag  1:
 RMSU=  1.08D-05    CP:  9.58D-01  1.99D+00  5.18D-01  9.61D-01  1.37D+00
                    CP:  2.58D+00  3.00D+00  3.00D+00  3.00D+00  3.00D+00
                    CP:  1.87D+00  1.54D+00
 E= -770.332954916444     Delta-E=       -0.000049533376 Rises=F Damp=F
 DIIS: error= 1.04D-04 at cycle  13 NSaved=  13.
 NSaved=13 IEnMin=13 EnMin= -770.332954916444     IErMin=13 ErrMin= 1.04D-04
 ErrMax= 1.04D-04  0.00D+00 EMaxC= 1.00D-01 BMatC= 4.84D-06 BMatP= 1.46D-05
 IDIUse=3 WtCom= 9.99D-01 WtEn= 1.04D-03
 Coeff-Com:  0.416D-03-0.373D-03-0.225D-04-0.151D-02-0.565D-02-0.113D-01
 Coeff-Com:  0.160D-01 0.908D-01 0.154D-01-0.210D+00-0.392D+00 0.171D+00
 Coeff-Com:  0.133D+01
 Coeff-En:   0.000D+00 0.000D+00 0.000D+00 0.000D+00 0.000D+00 0.000D+00
 Coeff-En:   0.000D+00 0.000D+00 0.000D+00 0.000D+00 0.000D+00 0.000D+00
 Coeff-En:   0.100D+01
 Coeff:      0.416D-03-0.373D-03-0.225D-04-0.151D-02-0.564D-02-0.113D-01
 Coeff:      0.160D-01 0.907D-01 0.154D-01-0.210D+00-0.392D+00 0.171D+00
 Coeff:      0.133D+01
 Gap=     0.233 Goal=   None    Shift=    0.000
 Gap=     0.103 Goal=   None    Shift=    0.000
 RMSDP=8.25D-05 MaxDP=8.82D-03 DE=-4.95D-05 OVMax= 2.57D-02

 Cycle  14  Pass 1  IDiag  1:
 RMSU=  9.17D-06    CP:  9.57D-01  2.01D+00  5.10D-01  9.58D-01  1.38D+00
                    CP:  2.70D+00  3.00D+00  3.00D+00  3.00D+00  3.00D+00
                    CP:  2.31D+00  2.50D+00  1.66D+00
 E= -770.332995808107     Delta-E=       -0.000040891663 Rises=F Damp=F
 DIIS: error= 3.74D-05 at cycle  14 NSaved=  14.
 NSaved=14 IEnMin=14 EnMin= -770.332995808107     IErMin=14 ErrMin= 3.74D-05
 ErrMax= 3.74D-05  0.00D+00 EMaxC= 1.00D-01 BMatC= 3.24D-06 BMatP= 4.84D-06
 IDIUse=1 WtCom= 1.00D+00 WtEn= 0.00D+00
 Coeff-Com:  0.516D-03-0.486D-03 0.989D-03-0.564D-03-0.262D-02-0.273D-01
 Coeff-Com: -0.122D-01 0.604D-01 0.103D+00-0.121D+00-0.362D+00-0.134D+00
 Coeff-Com:  0.902D+00 0.594D+00
 Coeff:      0.516D-03-0.486D-03 0.989D-03-0.564D-03-0.262D-02-0.273D-01
 Coeff:     -0.122D-01 0.604D-01 0.103D+00-0.121D+00-0.362D+00-0.134D+00
 Coeff:      0.902D+00 0.594D+00
 Gap=     0.233 Goal=   None    Shift=    0.000
 Gap=     0.103 Goal=   None    Shift=    0.000
 RMSDP=2.17D-05 MaxDP=2.43D-03 DE=-4.09D-05 OVMax= 6.64D-03

 Cycle  15  Pass 1  IDiag  1:
 RMSU=  2.97D-06    CP:  9.57D-01  2.01D+00  5.08D-01  9.57D-01  1.37D+00
                    CP:  2.73D+00  3.00D+00  3.00D+00  3.00D+00  3.00D+00
                    CP:  2.42D+00  2.76D+00  1.97D+00  1.14D+00
 E= -770.332999577726     Delta-E=       -0.000003769620 Rises=F Damp=F
 DIIS: error= 1.66D-05 at cycle  15 NSaved=  15.
 NSaved=15 IEnMin=15 EnMin= -770.332999577726     IErMin=15 ErrMin= 1.66D-05
 ErrMax= 1.66D-05  0.00D+00 EMaxC= 1.00D-01 BMatC= 1.89D-07 BMatP= 3.24D-06
 IDIUse=1 WtCom= 1.00D+00 WtEn= 0.00D+00
 Coeff-Com:  0.141D-03-0.180D-03 0.564D-03 0.579D-03 0.604D-03-0.755D-02
 Coeff-Com: -0.108D-01-0.127D-01 0.465D-01 0.260D-01-0.735D-01-0.105D+00
 Coeff-Com:  0.791D-01 0.120D+00 0.936D+00
 Coeff:      0.141D-03-0.180D-03 0.564D-03 0.579D-03 0.604D-03-0.755D-02
 Coeff:     -0.108D-01-0.127D-01 0.465D-01 0.260D-01-0.735D-01-0.105D+00
 Coeff:      0.791D-01 0.120D+00 0.936D+00
 Gap=     0.233 Goal=   None    Shift=    0.000
 Gap=     0.103 Goal=   None    Shift=    0.000
 RMSDP=6.12D-06 MaxDP=7.23D-04 DE=-3.77D-06 OVMax= 1.81D-03

 Cycle  16  Pass 1  IDiag  1:
 RMSU=  1.09D-06    CP:  9.57D-01  2.01D+00  5.07D-01  9.57D-01  1.37D+00
                    CP:  2.74D+00  3.00D+00  3.00D+00  3.00D+00  3.00D+00
                    CP:  2.45D+00  2.84D+00  2.08D+00  1.19D+00  1.06D+00
 E= -770.332999885810     Delta-E=       -0.000000308084 Rises=F Damp=F
 DIIS: error= 3.90D-06 at cycle  16 NSaved=  16.
 NSaved=16 IEnMin=16 EnMin= -770.332999885810     IErMin=16 ErrMin= 3.90D-06
 ErrMax= 3.90D-06  0.00D+00 EMaxC= 1.00D-01 BMatC= 4.52D-08 BMatP= 1.89D-07
 IDIUse=1 WtCom= 1.00D+00 WtEn= 0.00D+00
 Coeff-Com:  0.155D-04-0.491D-04 0.210D-03 0.497D-03 0.112D-02-0.716D-03
 Coeff-Com: -0.561D-02-0.196D-01 0.114D-01 0.351D-01 0.382D-02-0.457D-01
 Coeff-Com: -0.545D-01-0.599D-02 0.480D+00 0.599D+00
 Coeff:      0.155D-04-0.491D-04 0.210D-03 0.497D-03 0.112D-02-0.716D-03
 Coeff:     -0.561D-02-0.196D-01 0.114D-01 0.351D-01 0.382D-02-0.457D-01
 Coeff:     -0.545D-01-0.599D-02 0.480D+00 0.599D+00
 Gap=     0.233 Goal=   None    Shift=    0.000
 Gap=     0.103 Goal=   None    Shift=    0.000
 RMSDP=2.18D-06 MaxDP=2.21D-04 DE=-3.08D-07 OVMax= 6.41D-04

 Cycle  17  Pass 1  IDiag  1:
 RMSU=  3.56D-07    CP:  9.57D-01  2.01D+00  5.07D-01  9.56D-01  1.37D+00
                    CP:  2.74D+00  3.00D+00  3.00D+00  3.00D+00  3.00D+00
                    CP:  2.46D+00  2.86D+00  2.10D+00  1.22D+00  1.13D+00
                    CP:  8.42D-01
 E= -770.332999923157     Delta-E=       -0.000000037347 Rises=F Damp=F
 DIIS: error= 1.36D-06 at cycle  17 NSaved=  17.
 NSaved=17 IEnMin=17 EnMin= -770.332999923157     IErMin=17 ErrMin= 1.36D-06
 ErrMax= 1.36D-06  0.00D+00 EMaxC= 1.00D-01 BMatC= 6.10D-09 BMatP= 4.52D-08
 IDIUse=1 WtCom= 1.00D+00 WtEn= 0.00D+00
 Coeff-Com: -0.265D-04 0.261D-04 0.102D-05 0.143D-03 0.385D-03 0.776D-03
 Coeff-Com: -0.691D-03-0.648D-02-0.237D-02 0.113D-01 0.128D-01-0.358D-02
 Coeff-Com: -0.367D-01-0.246D-01 0.422D-01 0.271D+00 0.736D+00
 Coeff:     -0.265D-04 0.261D-04 0.102D-05 0.143D-03 0.385D-03 0.776D-03
 Coeff:     -0.691D-03-0.648D-02-0.237D-02 0.113D-01 0.128D-01-0.358D-02
 Coeff:     -0.367D-01-0.246D-01 0.422D-01 0.271D+00 0.736D+00
 Gap=     0.233 Goal=   None    Shift=    0.000
 Gap=     0.103 Goal=   None    Shift=    0.000
 RMSDP=7.53D-07 MaxDP=8.48D-05 DE=-3.73D-08 OVMax= 2.22D-04

 Cycle  18  Pass 1  IDiag  1:
 RMSU=  1.39D-07    CP:  9.57D-01  2.01D+00  5.07D-01  9.56D-01  1.37D+00
                    CP:  2.74D+00  3.00D+00  3.00D+00  3.00D+00  3.00D+00
                    CP:  2.47D+00  2.87D+00  2.11D+00  1.24D+00  1.14D+00
                    CP:  9.14D-01  9.73D-01
 E= -770.332999927348     Delta-E=       -0.000000004190 Rises=F Damp=F
 DIIS: error= 6.54D-07 at cycle  18 NSaved=  18.
 NSaved=18 IEnMin=18 EnMin= -770.332999927348     IErMin=18 ErrMin= 6.54D-07
 ErrMax= 6.54D-07  0.00D+00 EMaxC= 1.00D-01 BMatC= 1.05D-09 BMatP= 6.10D-09
 IDIUse=1 WtCom= 1.00D+00 WtEn= 0.00D+00
 Coeff-Com: -0.157D-04 0.210D-04-0.166D-04 0.358D-04 0.571D-04 0.245D-03
 Coeff-Com:  0.883D-04-0.577D-03-0.147D-02 0.103D-02 0.379D-02 0.277D-02
 Coeff-Com: -0.705D-02-0.895D-02-0.449D-01 0.448D-01 0.306D+00 0.704D+00
 Coeff:     -0.157D-04 0.210D-04-0.166D-04 0.358D-04 0.571D-04 0.245D-03
 Coeff:      0.883D-04-0.577D-03-0.147D-02 0.103D-02 0.379D-02 0.277D-02
 Coeff:     -0.705D-02-0.895D-02-0.449D-01 0.448D-01 0.306D+00 0.704D+00
 Gap=     0.233 Goal=   None    Shift=    0.000
 Gap=     0.103 Goal=   None    Shift=    0.000
 RMSDP=1.05D-07 MaxDP=1.01D-05 DE=-4.19D-09 OVMax= 2.07D-05

 Cycle  19  Pass 1  IDiag  1:
 RMSU=  6.33D-08    CP:  9.57D-01  2.01D+00  5.07D-01  9.56D-01  1.37D+00
                    CP:  2.74D+00  3.00D+00  3.00D+00  3.00D+00  3.00D+00
                    CP:  2.47D+00  2.87D+00  2.11D+00  1.24D+00  1.14D+00
                    CP:  9.43D-01  1.06D+00  1.03D+00
 E= -770.332999927918     Delta-E=       -0.000000000570 Rises=F Damp=F
 DIIS: error= 4.55D-07 at cycle  19 NSaved=  19.
 NSaved=19 IEnMin=19 EnMin= -770.332999927918     IErMin=19 ErrMin= 4.55D-07
 ErrMax= 4.55D-07  0.00D+00 EMaxC= 1.00D-01 BMatC= 2.41D-10 BMatP= 1.05D-09
 IDIUse=1 WtCom= 1.00D+00 WtEn= 0.00D+00
 Coeff-Com:  0.259D-05-0.126D-05-0.628D-05-0.200D-04-0.683D-04-0.146D-03
 Coeff-Com:  0.136D-03 0.144D-02 0.277D-03-0.246D-02-0.200D-02 0.173D-02
 Coeff-Com:  0.711D-02 0.326D-02-0.286D-01-0.563D-01-0.849D-01 0.288D+00
 Coeff-Com:  0.872D+00
 Coeff:      0.259D-05-0.126D-05-0.628D-05-0.200D-04-0.683D-04-0.146D-03
 Coeff:      0.136D-03 0.144D-02 0.277D-03-0.246D-02-0.200D-02 0.173D-02
 Coeff:      0.711D-02 0.326D-02-0.286D-01-0.563D-01-0.849D-01 0.288D+00
 Coeff:      0.872D+00
 Gap=     0.233 Goal=   None    Shift=    0.000
 Gap=     0.103 Goal=   None    Shift=    0.000
 RMSDP=6.51D-08 MaxDP=3.58D-06 DE=-5.70D-10 OVMax= 1.07D-05

 Cycle  20  Pass 1  IDiag  1:
 RMSU=  3.92D-08    CP:  9.57D-01  2.01D+00  5.07D-01  9.56D-01  1.37D+00
                    CP:  2.74D+00  3.00D+00  3.00D+00  3.00D+00  3.00D+00
                    CP:  2.47D+00  2.87D+00  2.11D+00  1.23D+00  1.14D+00
                    CP:  9.61D-01  1.11D+00  1.26D+00  1.31D+00
 E= -770.332999928158     Delta-E=       -0.000000000241 Rises=F Damp=F
 DIIS: error= 2.92D-07 at cycle  20 NSaved=  20.
 NSaved=20 IEnMin=20 EnMin= -770.332999928158     IErMin=20 ErrMin= 2.92D-07
 ErrMax= 2.92D-07  0.00D+00 EMaxC= 1.00D-01 BMatC= 1.00D-10 BMatP= 2.41D-10
 IDIUse=1 WtCom= 1.00D+00 WtEn= 0.00D+00
 Coeff-Com:  0.441D-05-0.457D-05-0.162D-05-0.295D-04-0.465D-04-0.474D-04
 Coeff-Com:  0.157D-03 0.837D-03 0.444D-04-0.144D-02-0.103D-02 0.646D-03
 Coeff-Com:  0.356D-02 0.289D-02-0.167D-02-0.355D-01-0.991D-01-0.377D-01
 Coeff-Com:  0.368D+00 0.801D+00
 Coeff:      0.441D-05-0.457D-05-0.162D-05-0.295D-04-0.465D-04-0.474D-04
 Coeff:      0.157D-03 0.837D-03 0.444D-04-0.144D-02-0.103D-02 0.646D-03
 Coeff:      0.356D-02 0.289D-02-0.167D-02-0.355D-01-0.991D-01-0.377D-01
 Coeff:      0.368D+00 0.801D+00
 Gap=     0.233 Goal=   None    Shift=    0.000
 Gap=     0.103 Goal=   None    Shift=    0.000
 RMSDP=3.86D-08 MaxDP=2.08D-06 DE=-2.41D-10 OVMax= 5.73D-06

 Cycle  21  Pass 1  IDiag  1:
 Restarting incremental Fock formation.
 E= -770.332999928234     Delta-E=       -0.000000000076 Rises=F Damp=F
 DIIS: error= 1.56D-07 at cycle  21 NSaved=  20.
 NSaved=20 IEnMin=20 EnMin= -770.332999928234     IErMin=20 ErrMin= 1.56D-07
 ErrMax= 1.56D-07  0.00D+00 EMaxC= 1.00D-01 BMatC= 3.53D-11 BMatP= 1.00D-10
 IDIUse=1 WtCom= 1.00D+00 WtEn= 0.00D+00
 Coeff-Com:  0.164D-06 0.305D-07-0.121D-04 0.187D-05 0.821D-04 0.102D-03
 Coeff-Com: -0.866D-04-0.363D-03 0.959D-04 0.681D-03 0.102D-03-0.151D-02
 Coeff-Com: -0.114D-03 0.929D-02 0.340D-02-0.785D-02-0.124D+00-0.164D+00
 Coeff-Com:  0.376D+00 0.908D+00
 Coeff:      0.164D-06 0.305D-07-0.121D-04 0.187D-05 0.821D-04 0.102D-03
 Coeff:     -0.866D-04-0.363D-03 0.959D-04 0.681D-03 0.102D-03-0.151D-02
 Coeff:     -0.114D-03 0.929D-02 0.340D-02-0.785D-02-0.124D+00-0.164D+00
 Coeff:      0.376D+00 0.908D+00
 Gap=     0.233 Goal=   None    Shift=    0.000
 Gap=     0.103 Goal=   None    Shift=    0.000
 RMSDP=3.15D-08 MaxDP=2.00D-06 DE=-7.57D-11 OVMax= 4.55D-06

 Cycle  22  Pass 1  IDiag  1:
 RMSU=  3.15D-08    CP:  1.00D+00
 E= -770.332999928284     Delta-E=       -0.000000000050 Rises=F Damp=F
 DIIS: error= 7.79D-08 at cycle  22 NSaved=  20.
 NSaved=20 IEnMin=20 EnMin= -770.332999928284     IErMin=20 ErrMin= 7.79D-08
 ErrMax= 7.79D-08  0.00D+00 EMaxC= 1.00D-01 BMatC= 8.63D-12 BMatP= 3.53D-11
 IDIUse=1 WtCom= 1.00D+00 WtEn= 0.00D+00
 Coeff-Com:  0.126D-05 0.832D-08-0.298D-06-0.682D-05-0.122D-04-0.113D-03
 Coeff-Com:  0.520D-04 0.195D-03 0.772D-04-0.270D-03-0.766D-03-0.184D-03
 Coeff-Com:  0.490D-02 0.795D-02 0.140D-01-0.454D-01-0.164D+00-0.918D-01
 Coeff-Com:  0.398D+00 0.877D+00
 Coeff:      0.126D-05 0.832D-08-0.298D-06-0.682D-05-0.122D-04-0.113D-03
 Coeff:      0.520D-04 0.195D-03 0.772D-04-0.270D-03-0.766D-03-0.184D-03
 Coeff:      0.490D-02 0.795D-02 0.140D-01-0.454D-01-0.164D+00-0.918D-01
 Coeff:      0.398D+00 0.877D+00
 Gap=     0.233 Goal=   None    Shift=    0.000
 Gap=     0.103 Goal=   None    Shift=    0.000
 RMSDP=1.64D-08 MaxDP=8.76D-07 DE=-5.02D-11 OVMax= 2.77D-06

 Cycle  23  Pass 1  IDiag  1:
 RMSU=  1.07D-08    CP:  1.00D+00  1.40D+00
 E= -770.332999928289     Delta-E=       -0.000000000005 Rises=F Damp=F
 DIIS: error= 2.93D-08 at cycle  23 NSaved=  20.
 NSaved=20 IEnMin=20 EnMin= -770.332999928289     IErMin=20 ErrMin= 2.93D-08
 ErrMax= 2.93D-08  0.00D+00 EMaxC= 1.00D-01 BMatC= 1.81D-12 BMatP= 8.63D-12
 IDIUse=1 WtCom= 1.00D+00 WtEn= 0.00D+00
 Coeff-Com:  0.157D-05-0.340D-05-0.119D-04-0.152D-04-0.243D-04 0.780D-04
 Coeff-Com:  0.585D-04-0.970D-04-0.119D-03-0.110D-03-0.125D-03 0.394D-03
 Coeff-Com:  0.307D-02 0.677D-02 0.818D-03-0.408D-01-0.989D-01 0.176D-01
 Coeff-Com:  0.352D+00 0.760D+00
 Coeff:      0.157D-05-0.340D-05-0.119D-04-0.152D-04-0.243D-04 0.780D-04
 Coeff:      0.585D-04-0.970D-04-0.119D-03-0.110D-03-0.125D-03 0.394D-03
 Coeff:      0.307D-02 0.677D-02 0.818D-03-0.408D-01-0.989D-01 0.176D-01
 Coeff:      0.352D+00 0.760D+00
 Gap=     0.233 Goal=   None    Shift=    0.000
 Gap=     0.103 Goal=   None    Shift=    0.000
 RMSDP=6.59D-09 MaxDP=5.25D-07 DE=-5.00D-12 OVMax= 1.28D-06

 Error on total polarization charges =  0.00985
 SCF Done:  E(UB3LYP) =  -770.332999928     A.U. after   23 cycles
            NFock= 23  Conv=0.66D-08     -V/T= 2.0088
 <Sx>= 0.0000 <Sy>= 0.0000 <Sz>= 0.5000 <S**2>= 0.7537 S= 0.5018
 <L.S>=  0.00000000000    
 KE= 7.636156752378D+02 PE=-4.461851083809D+03 EE= 1.592213239499D+03
 Annihilation of the first spin contaminant:
 S**2 before annihilation     0.7537,   after     0.7500
 Leave Link  502 at Sat May 25 04:18:44 2019, MaxMem=   104857600 cpu:            1775.9 elap:              56.3
 (Enter /opt/software/gaussian/g16.b01/l801.exe)
 DoSCS=F DFT=T ScalE2(SS,OS)=  1.000000  1.000000
 ExpMin= 1.61D-01 ExpMax= 5.48D+03 ExpMxC= 8.25D+02 IAcc=3 IRadAn=         5 AccDes= 0.00D+00
 HarFok:  IExCor=  205 AccDes= 0.00D+00 IRadAn=         5 IDoV=-2 UseB2=F ITyADJ=14
 ICtDFT= 12500011 ScaDFX=  1.000000  1.000000  1.000000  1.000000
 Largest valence mixing into a core orbital is  5.39D-05
 Largest core mixing into a valence orbital is  1.23D-05
 Largest valence mixing into a core orbital is  5.53D-05
 Largest core mixing into a valence orbital is  1.23D-05
 Range of M.O.s used for correlation:    19   355
 NBasis=   355 NAE=    65 NBE=    64 NFC=    18 NFV=     0
 NROrb=    337 NOA=    47 NOB=    46 NVA=   290 NVB=   291
 Leave Link  801 at Sat May 25 04:18:44 2019, MaxMem=   104857600 cpu:               4.9 elap:               0.2
 (Enter /opt/software/gaussian/g16.b01/l914.exe)
 UHF ground state
 Ignoring spin specification with unrestricted ground state.
 Two-electron integrals replicated using symmetry.
 MDV=   104857600 DFT=T DoStab=F Mixed=T DoRPA=T DoScal=F NonHer=T
 NEqPCM:  Using non-equilibrium solvation (IEInf=1, Eps=  35.6880, EpsInf=   1.8069)
 Inv3:  Mode=1 IEnd=    16036032.
 Iteration    1 A*A^-1 deviation from unit magnitude is 2.89D-15 for    357.
 Iteration    1 A*A^-1 deviation from orthogonality  is 1.96D-15 for   1245   1018.
 Iteration    1 A^-1*A deviation from unit magnitude is 2.89D-15 for    357.
 Iteration    1 A^-1*A deviation from orthogonality  is 1.65D-15 for   1549   1076.
 Making orbital integer symmetry assigments:
 Orbital symmetries:
 Alpha Orbitals:
       Occupied  (A) (A) (A) (A) (A) (A) (A) (A) (A) (A) (A) (A)
                 (A) (A) (A) (A) (A) (A) (A) (A) (A) (A) (A) (A)
                 (A) (A) (A) (A) (A) (A) (A) (A) (A) (A) (A) (A)
                 (A) (A) (A) (A) (A) (A) (A) (A) (A) (A) (A) (A)
                 (A) (A) (A) (A) (A) (A) (A) (A) (A) (A) (A) (A)
                 (A) (A) (A) (A) (A)
       Virtual   (A) (A) (A) (A) (A) (A) (A) (A) (A) (A) (A) (A)
                 (A) (A) (A) (A) (A) (A) (A) (A) (A) (A) (A) (A)
                 (A) (A) (A) (A) (A) (A) (A) (A) (A) (A) (A) (A)
                 (A) (A) (A) (A) (A) (A) (A) (A) (A) (A) (A) (A)
                 (A) (A) (A) (A) (A) (A) (A) (A) (A) (A) (A) (A)
                 (A) (A) (A) (A) (A) (A) (A) (A) (A) (A) (A) (A)
                 (A) (A) (A) (A) (A) (A) (A) (A) (A) (A) (A) (A)
                 (A) (A) (A) (A) (A) (A) (A) (A) (A) (A) (A) (A)
                 (A) (A) (A) (A) (A) (A) (A) (A) (A) (A) (A) (A)
                 (A) (A) (A) (A) (A) (A) (A) (A) (A) (A) (A) (A)
                 (A) (A) (A) (A) (A) (A) (A) (A) (A) (A) (A) (A)
                 (A) (A) (A) (A) (A) (A) (A) (A) (A) (A) (A) (A)
                 (A) (A) (A) (A) (A) (A) (A) (A) (A) (A) (A) (A)
                 (A) (A) (A) (A) (A) (A) (A) (A) (A) (A) (A) (A)
                 (A) (A) (A) (A) (A) (A) (A) (A) (A) (A) (A) (A)
                 (A) (A) (A) (A) (A) (A) (A) (A) (A) (A) (A) (A)
                 (A) (A) (A) (A) (A) (A) (A) (A) (A) (A) (A) (A)
                 (A) (A) (A) (A) (A) (A) (A) (A) (A) (A) (A) (A)
                 (A) (A) (A) (A) (A) (A) (A) (A) (A) (A) (A) (A)
                 (A) (A) (A) (A) (A) (A) (A) (A) (A) (A) (A) (A)
                 (A) (A) (A) (A) (A) (A) (A) (A) (A) (A) (A) (A)
                 (A) (A) (A) (A) (A) (A) (A) (A) (A) (A) (A) (A)
                 (A) (A) (A) (A) (A) (A) (A) (A) (A) (A) (A) (A)
                 (A) (A) (A) (A) (A) (A) (A) (A) (A) (A) (A) (A)
                 (A) (A)
 Beta  Orbitals:
       Occupied  (A) (A) (A) (A) (A) (A) (A) (A) (A) (A) (A) (A)
                 (A) (A) (A) (A) (A) (A) (A) (A) (A) (A) (A) (A)
                 (A) (A) (A) (A) (A) (A) (A) (A) (A) (A) (A) (A)
                 (A) (A) (A) (A) (A) (A) (A) (A) (A) (A) (A) (A)
                 (A) (A) (A) (A) (A) (A) (A) (A) (A) (A) (A) (A)
                 (A) (A) (A) (A)
       Virtual   (A) (A) (A) (A) (A) (A) (A) (A) (A) (A) (A) (A)
                 (A) (A) (A) (A) (A) (A) (A) (A) (A) (A) (A) (A)
                 (A) (A) (A) (A) (A) (A) (A) (A) (A) (A) (A) (A)
                 (A) (A) (A) (A) (A) (A) (A) (A) (A) (A) (A) (A)
                 (A) (A) (A) (A) (A) (A) (A) (A) (A) (A) (A) (A)
                 (A) (A) (A) (A) (A) (A) (A) (A) (A) (A) (A) (A)
                 (A) (A) (A) (A) (A) (A) (A) (A) (A) (A) (A) (A)
                 (A) (A) (A) (A) (A) (A) (A) (A) (A) (A) (A) (A)
                 (A) (A) (A) (A) (A) (A) (A) (A) (A) (A) (A) (A)
                 (A) (A) (A) (A) (A) (A) (A) (A) (A) (A) (A) (A)
                 (A) (A) (A) (A) (A) (A) (A) (A) (A) (A) (A) (A)
                 (A) (A) (A) (A) (A) (A) (A) (A) (A) (A) (A) (A)
                 (A) (A) (A) (A) (A) (A) (A) (A) (A) (A) (A) (A)
                 (A) (A) (A) (A) (A) (A) (A) (A) (A) (A) (A) (A)
                 (A) (A) (A) (A) (A) (A) (A) (A) (A) (A) (A) (A)
                 (A) (A) (A) (A) (A) (A) (A) (A) (A) (A) (A) (A)
                 (A) (A) (A) (A) (A) (A) (A) (A) (A) (A) (A) (A)
                 (A) (A) (A) (A) (A) (A) (A) (A) (A) (A) (A) (A)
                 (A) (A) (A) (A) (A) (A) (A) (A) (A) (A) (A) (A)
                 (A) (A) (A) (A) (A) (A) (A) (A) (A) (A) (A) (A)
                 (A) (A) (A) (A) (A) (A) (A) (A) (A) (A) (A) (A)
                 (A) (A) (A) (A) (A) (A) (A) (A) (A) (A) (A) (A)
                 (A) (A) (A) (A) (A) (A) (A) (A) (A) (A) (A) (A)
                 (A) (A) (A) (A) (A) (A) (A) (A) (A) (A) (A) (A)
                 (A) (A) (A)
   144 initial guesses have been made.
 Convergence on wavefunction:    0.001000000000000
 Davidson Disk Diagonalization:  ConvIn= 1.00D-03 SkipCon=T Conv= 1.00D-03.
 Max sub-space:  2160 roots to seek:   144 dimension of matrix:        27016
 Iteration     1 Dimension   144 NMult     0 NNew    144
 CISAX will form     3 AO SS matrices at one time.
 NMat=     3 NSing=     3 JSym2X= 0.
 FoFJK:  IHMeth= 1 ICntrl=       0 DoSepK=F KAlg= 0 I1Cent=           0 FoldK=F
 IRaf= 830000000 NMat=       6 IRICut=       1 DoRegI=T DoRafI=F ISym2E= 0 IDoP0=0 IntGTp=1.
 NMat=     3 NSing=     3 JSym2X= 0.
 NMat=     3 NSing=     3 JSym2X= 0.
 NMat=     3 NSing=     3 JSym2X= 0.
 NMat=     3 NSing=     3 JSym2X= 0.
 NMat=     3 NSing=     3 JSym2X= 0.
 NMat=     3 NSing=     3 JSym2X= 0.
 NMat=     3 NSing=     3 JSym2X= 0.
 NMat=     3 NSing=     3 JSym2X= 0.
 NMat=     3 NSing=     3 JSym2X= 0.
 NMat=     3 NSing=     3 JSym2X= 0.
 NMat=     3 NSing=     3 JSym2X= 0.
 NMat=     3 NSing=     3 JSym2X= 0.
 NMat=     3 NSing=     3 JSym2X= 0.
 NMat=     3 NSing=     3 JSym2X= 0.
 NMat=     3 NSing=     3 JSym2X= 0.
 NMat=     3 NSing=     3 JSym2X= 0.
 NMat=     3 NSing=     3 JSym2X= 0.
 NMat=     3 NSing=     3 JSym2X= 0.
 NMat=     3 NSing=     3 JSym2X= 0.
 NMat=     3 NSing=     3 JSym2X= 0.
 NMat=     3 NSing=     3 JSym2X= 0.
 NMat=     3 NSing=     3 JSym2X= 0.
 NMat=     3 NSing=     3 JSym2X= 0.
 NMat=     3 NSing=     3 JSym2X= 0.
 NMat=     3 NSing=     3 JSym2X= 0.
 NMat=     3 NSing=     3 JSym2X= 0.
 NMat=     3 NSing=     3 JSym2X= 0.
 NMat=     3 NSing=     3 JSym2X= 0.
 NMat=     3 NSing=     3 JSym2X= 0.
 NMat=     3 NSing=     3 JSym2X= 0.
 NMat=     3 NSing=     3 JSym2X= 0.
 NMat=     3 NSing=     3 JSym2X= 0.
 NMat=     3 NSing=     3 JSym2X= 0.
 NMat=     3 NSing=     3 JSym2X= 0.
 NMat=     3 NSing=     3 JSym2X= 0.
 NMat=     3 NSing=     3 JSym2X= 0.
 NMat=     3 NSing=     3 JSym2X= 0.
 NMat=     3 NSing=     3 JSym2X= 0.
 NMat=     3 NSing=     3 JSym2X= 0.
 NMat=     3 NSing=     3 JSym2X= 0.
 NMat=     3 NSing=     3 JSym2X= 0.
 NMat=     3 NSing=     3 JSym2X= 0.
 NMat=     3 NSing=     3 JSym2X= 0.
 NMat=     3 NSing=     3 JSym2X= 0.
 NMat=     3 NSing=     3 JSym2X= 0.
 NMat=     3 NSing=     3 JSym2X= 0.
 NMat=     3 NSing=     3 JSym2X= 0.
 New state      1 was old state      6
 New state      2 was old state      1
 New state      4 was old state      2
 New state      5 was old state      4
 New state      6 was old state      5
 New state      9 was old state     17
 New state     10 was old state     24
 New state     11 was old state     10
 New state     12 was old state      9
 New state     13 was old state     15
 New state     14 was old state     25
 New state     15 was old state     20
 New state     16 was old state     39
 New state     17 was old state     11
 New state     18 was old state     22
 New state     19 was old state     35
 New state     20 was old state     13
 New state     21 was old state     12
 New state     22 was old state     33
 New state     23 was old state     18
 New state     24 was old state     14
 New state     25 was old state     26
 New state     26 was old state     47
 New state     28 was old state     19
 New state     31 was old state     23
 New state     32 was old state     36
 New state     33 was old state     34
 New state     34 was old state     32
 New state     35 was old state     31
 New state     36 was old state     41
 Excitation Energies [eV] at current iteration:
 Root      1 :     0.832301335047064
 Root      2 :     2.140370636941963
 Root      3 :     2.271662494484612
 Root      4 :     2.392262114465440
 Root      5 :     2.496539661078540
 Root      6 :     2.776992152003247
 Root      7 :     3.756128149861811
 Root      8 :     4.098140699655185
 Root      9 :     4.192406557692977
 Root     10 :     4.222865038341539
 Root     11 :     4.657013675085673
 Root     12 :     4.728923153728603
 Root     13 :     4.752162442219950
 Root     14 :     4.760082643794137
 Root     15 :     4.779314691879089
 Root     16 :     4.792745558809338
 Root     17 :     4.814210348206297
 Root     18 :     5.102381072365967
 Root     19 :     5.144662724459399
 Root     20 :     5.270829486192447
 Root     21 :     5.298370916580858
 Root     22 :     5.356950440351356
 Root     23 :     5.420155237081762
 Root     24 :     5.477729613452155
 Root     25 :     5.489659117139857
 Root     26 :     5.675002999989074
 Root     27 :     5.750319702155296
 Root     28 :     5.813327523839861
 Root     29 :     5.852337293885946
 Root     30 :     5.931175162010182
 Root     31 :     5.968530566068069
 Root     32 :     5.991299558729837
 Root     33 :     6.003766137411493
 Root     34 :     6.013363581143185
 Root     35 :     6.039275145734200
 Root     36 :     6.079079812824011
 Root     37 :     6.099419327294012
 Root     38 :     6.131049556245977
 Root     39 :     6.161242911345871
 Root     40 :     6.176550843284270
 Root     41 :     6.180373440804495
 Root     42 :     6.254288426635085
 Root     43 :     6.261894963361618
 Root     44 :     6.302566839084321
 Root     45 :     6.411823263420679
 Root     46 :     6.426537394562652
 Root     47 :     6.473629986194721
 Root     48 :     6.507515129419295
 Root     49 :     6.521199392926413
 Root     50 :     6.558263550290558
 Root     51 :     6.617403758884177
 Root     52 :     6.649014211272653
 Root     53 :     6.673318087087073
 Root     54 :     6.767910065547806
 Root     55 :     6.847388887711294
 Root     56 :     6.864858092398592
 Root     57 :     6.888603836974276
 Root     58 :     6.895429577076002
 Root     59 :     6.959156762821148
 Root     60 :     6.997541252701328
 Root     61 :     7.042921963962631
 Root     62 :     7.086731630144242
 Root     63 :     7.138300190312329
 Root     64 :     7.158722994337734
 Root     65 :     7.222382007884077
 Root     66 :     7.249873443444333
 Root     67 :     7.347901052661621
 Root     68 :     7.404991781526215
 Root     69 :     7.413837177351296
 Root     70 :     7.455434632263613
 Root     71 :     7.473109270270119
 Root     72 :     7.513996251639028
 Root     73 :     7.532295008805129
 Root     74 :     7.547197945931121
 Root     75 :     7.573380757524363
 Root     76 :     7.578553243358293
 Root     77 :     7.604446800634413
 Root     78 :     7.670335538729558
 Root     79 :     7.675896186279072
 Root     80 :     7.691751092406255
 Root     81 :     7.710866108282434
 Root     82 :     7.774387469781578
 Root     83 :     7.797263025896236
 Root     84 :     7.823327879447928
 Root     85 :     7.829501911455070
 Root     86 :     7.846509370536382
 Root     87 :     7.852684686530741
 Root     88 :     7.931523159132198
 Root     89 :     7.964350126482378
 Root     90 :     8.008970791150441
 Root     91 :     8.058823030781534
 Root     92 :     8.079678296051650
 Root     93 :     8.080603715296544
 Root     94 :     8.107322457205495
 Root     95 :     8.128348676963382
 Root     96 :     8.144716655706269
 Root     97 :     8.158678601636579
 Root     98 :     8.164322062046224
 Root     99 :     8.181537520163815
 Root    100 :     8.195985586096254
 Root    101 :     8.208198318224037
 Root    102 :     8.238860614266386
 Root    103 :     8.248262039384379
 Root    104 :     8.275252667013788
 Root    105 :     8.291897426112643
 Root    106 :     8.304401624133918
 Root    107 :     8.319181813955474
 Root    108 :     8.335251162344134
 Root    109 :     8.376924759037026
 Root    110 :     8.408203834574353
 Root    111 :     8.418437639116823
 Root    112 :     8.419295263397002
 Root    113 :     8.437545104223133
 Root    114 :     8.475520919805547
 Root    115 :     8.489167109638938
 Root    116 :     8.495510063277596
 Root    117 :     8.509126194631575
 Root    118 :     8.542093213874159
 Root    119 :     8.550200562675812
 Root    120 :     8.568438882870060
 Root    121 :     8.571331806996559
 Root    122 :     8.579679291488493
 Root    123 :     8.614785032815213
 Root    124 :     8.629064017259095
 Root    125 :     8.640095809622473
 Root    126 :     8.656120319115878
 Root    127 :     8.669813916856207
 Root    128 :     8.676742020765422
 Root    129 :     8.703674136476698
 Root    130 :     8.710116816674466
 Root    131 :     8.717776324464452
 Root    132 :     8.750836196037493
 Root    133 :     8.757626006870376
 Root    134 :     8.780895846554087
 Root    135 :     8.798038071243793
 Root    136 :     8.802011527522167
 Root    137 :     8.821081093074822
 Root    138 :     8.836381367879065
 Root    139 :     8.880043401286031
 Root    140 :     8.909773522656678
 Root    141 :     8.928456275236623
 Root    142 :     8.981615342021781
 Root    143 :     9.253060313280173
 Root    144 :     9.331799444703380
 Iteration     2 Dimension   216 NMult   144 NNew     72
 CISAX will form     3 AO SS matrices at one time.
 NMat=     3 NSing=     3 JSym2X= 0.
 NMat=     3 NSing=     3 JSym2X= 0.
 NMat=     3 NSing=     3 JSym2X= 0.
 NMat=     3 NSing=     3 JSym2X= 0.
 NMat=     3 NSing=     3 JSym2X= 0.
 NMat=     3 NSing=     3 JSym2X= 0.
 NMat=     3 NSing=     3 JSym2X= 0.
 NMat=     3 NSing=     3 JSym2X= 0.
 NMat=     3 NSing=     3 JSym2X= 0.
 NMat=     3 NSing=     3 JSym2X= 0.
 NMat=     3 NSing=     3 JSym2X= 0.
 NMat=     3 NSing=     3 JSym2X= 0.
 NMat=     3 NSing=     3 JSym2X= 0.
 NMat=     3 NSing=     3 JSym2X= 0.
 NMat=     3 NSing=     3 JSym2X= 0.
 NMat=     3 NSing=     3 JSym2X= 0.
 NMat=     3 NSing=     3 JSym2X= 0.
 NMat=     3 NSing=     3 JSym2X= 0.
 NMat=     3 NSing=     3 JSym2X= 0.
 NMat=     3 NSing=     3 JSym2X= 0.
 NMat=     3 NSing=     3 JSym2X= 0.
 NMat=     3 NSing=     3 JSym2X= 0.
 NMat=     3 NSing=     3 JSym2X= 0.
 NMat=     3 NSing=     3 JSym2X= 0.
 Root      1 not converged, maximum delta is    0.058554946873458
 Root      2 not converged, maximum delta is    0.411586118173192
 Root      3 not converged, maximum delta is    0.442319369576430
 Root      4 not converged, maximum delta is    0.207054589236783
 Root      5 not converged, maximum delta is    0.181045267439078
 Root      6 not converged, maximum delta is    0.063827990591177
 Root      7 not converged, maximum delta is    0.137053801867104
 New state      8 was old state      9
 Root      8 not converged, maximum delta is    0.064093826843875
 New state      9 was old state     10
 Root      9 not converged, maximum delta is    0.078973172906276
 New state     10 was old state      8
 Root     10 not converged, maximum delta is    0.127933102529881
 Root     11 not converged, maximum delta is    0.517916613235513
 Root     12 not converged, maximum delta is    0.539993039866075
 Root     13 not converged, maximum delta is    0.238215916746525
 Root     14 not converged, maximum delta is    0.261055067494854
 Root     15 not converged, maximum delta is    0.139721314039559
 Root     16 not converged, maximum delta is    0.102184587811489
 Root     17 not converged, maximum delta is    0.204157196864019
 Root     18 not converged, maximum delta is    0.006176592559826
 Root     19 not converged, maximum delta is    0.011494678047850
 Root     20 not converged, maximum delta is    0.203023876067069
 Root     21 not converged, maximum delta is    0.064039870949434
 Root     22 not converged, maximum delta is    0.199497551428844
 Root     23 not converged, maximum delta is    0.099165419959941
 New state     24 was old state     25
 Root     24 not converged, maximum delta is    0.385503343447699
 New state     25 was old state     24
 Root     25 not converged, maximum delta is    0.244321291052220
 Root     26 not converged, maximum delta is    0.015852660009642
 Root     27 not converged, maximum delta is    0.051948163622614
 Root     28 not converged, maximum delta is    0.483578177644835
 Root     29 not converged, maximum delta is    0.515789461770586
 Root     30 not converged, maximum delta is    0.357084113875753
 Root     31 not converged, maximum delta is    0.515704873841003
 Root     32 not converged, maximum delta is    0.118735392349333
 Root     33 not converged, maximum delta is    0.159855521630450
 Root     34 not converged, maximum delta is    0.136785729082229
 Root     35 not converged, maximum delta is    0.248914159102958
 New state     36 was old state     37
 Root     36 not converged, maximum delta is    0.375709964831798
 Excitation Energies [eV] at current iteration:
 Root      1 :     0.677797489030590   Change is   -0.154503846016474
 Root      2 :     2.113625361983606   Change is   -0.026745274958357
 Root      3 :     2.171766768135707   Change is   -0.099895726348905
 Root      4 :     2.366463264907511   Change is   -0.025798849557930
 Root      5 :     2.470399266641248   Change is   -0.026140394437292
 Root      6 :     2.742004725837237   Change is   -0.034987426166010
 Root      7 :     3.555786529531252   Change is   -0.200341620330559
 Root      8 :     3.757901843702305   Change is   -0.434504713990672
 Root      9 :     3.784115859726734   Change is   -0.438749178614805
 Root     10 :     3.986657154410036   Change is   -0.111483545245149
 Root     11 :     4.596193854440711   Change is   -0.060819820644961
 Root     12 :     4.658514767041854   Change is   -0.070408386686748
 Root     13 :     4.683751679542659   Change is   -0.068410762677291
 Root     14 :     4.699847904966619   Change is   -0.060234738827518
 Root     15 :     4.715332766942529   Change is   -0.063981924936560
 Root     16 :     4.730105167583758   Change is   -0.062640391225581
 Root     17 :     4.793519944805304   Change is   -0.020690403400993
 Root     18 :     5.075248647619417   Change is   -0.027132424746551
 Root     19 :     5.116232760653737   Change is   -0.028429963805661
 Root     20 :     5.217482853550809   Change is   -0.053346632641638
 Root     21 :     5.284050697642395   Change is   -0.014320218938463
 Root     22 :     5.329781580688747   Change is   -0.027168859662608
 Root     23 :     5.358227991446925   Change is   -0.061927245634837
 Root     24 :     5.418423440453065   Change is   -0.071235676686793
 Root     25 :     5.437278576179844   Change is   -0.040451037272310
 Root     26 :     5.646548219031495   Change is   -0.028454780957578
 Root     27 :     5.709250108236490   Change is   -0.041069593918806
 Root     28 :     5.786564875012466   Change is   -0.026762648827394
 Root     29 :     5.803116960265300   Change is   -0.049220333620646
 Root     30 :     5.894609902783168   Change is   -0.036565259227013
 Root     31 :     5.924478452392738   Change is   -0.044052113675331
 Root     32 :     5.978441999027685   Change is   -0.012857559702153
 Root     33 :     5.984301247114962   Change is   -0.019464890296532
 Root     34 :     5.999725185362236   Change is   -0.013638395780949
 Root     35 :     6.026239807713108   Change is   -0.013035338021091
 Root     36 :     6.033902168665388   Change is   -0.065517158628624
 Iteration     3 Dimension   288 NMult   216 NNew     72
 CISAX will form     3 AO SS matrices at one time.
 NMat=     3 NSing=     3 JSym2X= 0.
 NMat=     3 NSing=     3 JSym2X= 0.
 NMat=     3 NSing=     3 JSym2X= 0.
 NMat=     3 NSing=     3 JSym2X= 0.
 NMat=     3 NSing=     3 JSym2X= 0.
 NMat=     3 NSing=     3 JSym2X= 0.
 NMat=     3 NSing=     3 JSym2X= 0.
 NMat=     3 NSing=     3 JSym2X= 0.
 NMat=     3 NSing=     3 JSym2X= 0.
 NMat=     3 NSing=     3 JSym2X= 0.
 NMat=     3 NSing=     3 JSym2X= 0.
 NMat=     3 NSing=     3 JSym2X= 0.
 NMat=     3 NSing=     3 JSym2X= 0.
 NMat=     3 NSing=     3 JSym2X= 0.
 NMat=     3 NSing=     3 JSym2X= 0.
 NMat=     3 NSing=     3 JSym2X= 0.
 NMat=     3 NSing=     3 JSym2X= 0.
 NMat=     3 NSing=     3 JSym2X= 0.
 NMat=     3 NSing=     3 JSym2X= 0.
 NMat=     3 NSing=     3 JSym2X= 0.
 NMat=     3 NSing=     3 JSym2X= 0.
 NMat=     3 NSing=     3 JSym2X= 0.
 NMat=     3 NSing=     3 JSym2X= 0.
 NMat=     3 NSing=     3 JSym2X= 0.
 Root      1 not converged, maximum delta is    0.001412626679986
 Root      2 not converged, maximum delta is    0.036887130903889
 Root      3 not converged, maximum delta is    0.033419151794763
 Root      4 not converged, maximum delta is    0.005472280005742
 Root      5 not converged, maximum delta is    0.005345898932084
 Root      6 not converged, maximum delta is    0.003392559153462
 Root      7 not converged, maximum delta is    0.005727074462992
 Root      8 not converged, maximum delta is    0.002597554082392
 Root      9 not converged, maximum delta is    0.003370765510233
 Root     10 not converged, maximum delta is    0.005633073760011
 Root     11 not converged, maximum delta is    0.021403368778352
 Root     12 not converged, maximum delta is    0.025523084372805
 Root     13 not converged, maximum delta is    0.013110912511448
 Root     14 not converged, maximum delta is    0.003069591953386
 Root     15 not converged, maximum delta is    0.004788728609379
 Root     16 not converged, maximum delta is    0.004312791192095
 Root     17 not converged, maximum delta is    0.005622323084040
 Root     18 not converged, maximum delta is    0.001032256832732
 Root     19 not converged, maximum delta is    0.001532467957949
 Root     20 not converged, maximum delta is    0.009105001770585
 Root     21 not converged, maximum delta is    0.007183793878249
 Root     22 not converged, maximum delta is    0.011578559960285
 Root     23 not converged, maximum delta is    0.002950004350262
 Root     24 not converged, maximum delta is    0.005095750727467
 Root     25 not converged, maximum delta is    0.004296900444190
 Root     26 not converged, maximum delta is    0.002633708946203
 Root     27 not converged, maximum delta is    0.002319878406984
 Root     28 not converged, maximum delta is    0.104278027140783
 Root     29 not converged, maximum delta is    0.090509157688143
 Root     30 not converged, maximum delta is    0.074476423945231
 Root     31 not converged, maximum delta is    0.046831742122547
 Root     32 not converged, maximum delta is    0.061781707512404
 Root     33 not converged, maximum delta is    0.113577182352598
 Root     34 not converged, maximum delta is    0.231611528340106
 Root     35 not converged, maximum delta is    0.394400190310167
 Root     36 not converged, maximum delta is    0.300353927143323
[...]
     9  H   -0.000005  -0.000000   0.000000   0.000000   0.000014   0.000000
    10  H   -0.000001   0.000000   0.000000   0.000000   0.000000  -0.000000
    11  H    0.000030   0.000001  -0.000000   0.000002  -0.000002  -0.000000
    12  C    0.000026   0.000001  -0.000003  -0.000002  -0.000031   0.000000
    13  C   -0.000049  -0.000000   0.000000  -0.000001   0.000031  -0.000000
    14  C   -0.000046  -0.000001   0.000000  -0.000020   0.000065  -0.000001
    15  C    0.000001   0.000000   0.000000   0.000000  -0.000000  -0.000000
    16  H   -0.000001  -0.000000   0.000000  -0.000000   0.000001  -0.000000
    17  C    0.000007   0.000000  -0.000000   0.000003  -0.000019   0.000000
    18  H   -0.000002  -0.000004   0.000001  -0.000014   0.000013  -0.000002
    19  C    0.000001   0.000000  -0.000000   0.000000  -0.000004   0.000000
    20  H   -0.000000  -0.000000   0.000000  -0.000000   0.000000   0.000000
    21  H    0.000000  -0.000000   0.000000  -0.000000   0.000000  -0.000000
    22  H    0.000000  -0.000000   0.000000  -0.000000   0.000000  -0.000000
    23  C   -0.000140   0.000168  -0.000134  -0.000044   0.000094   0.000012
    24  C   -0.000402  -0.000434   0.000113   0.000049   0.000011  -0.000088
    25  C    0.002750   0.000088  -0.000012   0.000098  -0.000114  -0.000130
    26  C    0.000088  -0.001176  -0.000031  -0.000044  -0.000003  -0.000018
    27  H   -0.000012  -0.000031  -0.000016   0.000000   0.000000   0.000005
    28  C    0.000098  -0.000044   0.000000  -0.001359   0.000021   0.000165
    29  H   -0.000114  -0.000003   0.000000   0.000021  -0.000155  -0.000001
    30  C   -0.000130  -0.000018   0.000005   0.000165  -0.000001   0.002580
    31  H    0.000001   0.000031  -0.000005  -0.000002  -0.000000   0.000006
    32  H   -0.000002  -0.000003   0.000000   0.000010   0.000000  -0.000005
    33  H   -0.000002   0.000001   0.000000   0.000007   0.000000   0.000004
    34  O    0.000065   0.000008  -0.000062   0.000000  -0.000003  -0.000001
    35  H    0.000002   0.000000  -0.000009   0.000000  -0.000000  -0.000000
              31         32         33         34         35
     1  C   -0.000000  -0.000000  -0.000000   0.001176  -0.000375
     2  C   -0.000001  -0.000001   0.000000  -0.001156   0.000873
     3  O    0.000000   0.000000  -0.000000   0.000745  -0.002270
     4  C    0.000000   0.000000   0.000000  -0.001191  -0.000115
     5  H    0.000000  -0.000000  -0.000000   0.000001   0.000010
     6  H    0.000000  -0.000000  -0.000000   0.000142   0.000019
     7  H    0.000000  -0.000000  -0.000000   0.000071  -0.000055
     8  C   -0.000000   0.000001   0.000000  -0.002934   0.000099
     9  H   -0.000000  -0.000000  -0.000000  -0.000001  -0.000001
    10  H    0.000000   0.000000  -0.000000  -0.000086  -0.000130
    11  H    0.000000   0.000000  -0.000000   0.000081   0.000012
    12  C   -0.000000   0.000000   0.000000   0.000164  -0.000050
    13  C   -0.000000   0.000000   0.000000  -0.000015  -0.000001
    14  C   -0.000000   0.000001   0.000000   0.000001   0.000002
    15  C    0.000000  -0.000000  -0.000000  -0.000000   0.000000
    16  H    0.000000   0.000000   0.000000  -0.000003   0.000000
    17  C    0.000000  -0.000000  -0.000000   0.000000  -0.000000
    18  H   -0.000000   0.000000   0.000000  -0.000001   0.000000
    19  C    0.000000  -0.000000  -0.000000   0.000000  -0.000000
    20  H   -0.000000   0.000000   0.000000  -0.000000   0.000000
    21  H    0.000000   0.000000   0.000000  -0.000000   0.000000
    22  H    0.000000   0.000000   0.000000  -0.000000  -0.000000
    23  C   -0.000007  -0.000001   0.000001   0.000740  -0.000126
    24  C    0.000004   0.000002   0.000002  -0.000127   0.000002
    25  C    0.000001  -0.000002  -0.000002   0.000065   0.000002
    26  C    0.000031  -0.000003   0.000001   0.000008   0.000000
    27  H   -0.000005   0.000000   0.000000  -0.000062  -0.000009
    28  C   -0.000002   0.000010   0.000007   0.000000   0.000000
    29  H   -0.000000   0.000000   0.000000  -0.000003  -0.000000
    30  C    0.000006  -0.000005   0.000004  -0.000001  -0.000000
    31  H   -0.000019  -0.000000   0.000003   0.000000   0.000000
    32  H   -0.000000   0.000027   0.000003  -0.000000   0.000000
    33  H    0.000003   0.000003  -0.000129  -0.000000  -0.000000
    34  O    0.000000  -0.000000  -0.000000   0.001720   0.001408
    35  H    0.000000   0.000000  -0.000000   0.001408  -0.001585
 Mulliken charges and spin densities:
               1          2
     1  C    0.224460  -0.027742
     2  C    0.256307   0.006814
     3  O   -0.411609   0.824099
     4  C   -0.319621   0.118814
     5  H    0.130457  -0.004073
     6  H    0.141751   0.030505
     7  H    0.136023  -0.004052
     8  C   -0.334684   0.025483
     9  H    0.120790  -0.000737
    10  H    0.112256  -0.002330
    11  H    0.114320  -0.001854
    12  C    0.078393   0.017959
    13  C   -0.113901   0.012727
    14  C   -0.116450   0.004879
    15  C   -0.106520  -0.005214
    16  H    0.107006  -0.000998
    17  C   -0.110522  -0.002771
    18  H    0.106374  -0.000278
    19  C   -0.094491   0.008663
    20  H    0.105582   0.000538
    21  H    0.105807   0.000070
    22  H    0.104791  -0.000383
    23  C    0.061550  -0.002410
    24  C   -0.110525   0.002374
    25  C   -0.122697   0.001658
    26  C   -0.107462  -0.001360
    27  H    0.110268  -0.000121
    28  C   -0.112618  -0.001145
    29  H    0.104917  -0.000054
    30  C   -0.095587   0.002553
    31  H    0.101569   0.000012
    32  H    0.102835   0.000033
    33  H    0.101715  -0.000110
    34  O   -0.589870   0.000743
    35  H    0.319384  -0.002291
 Sum of Mulliken charges =  -0.00000   1.00000
 Mulliken charges and spin densities with hydrogens summed into heavy atoms:
               1          2
     1  C    0.224460  -0.027742
     2  C    0.256307   0.006814
     3  O   -0.411609   0.824099
     4  C    0.088610   0.141194
     8  C    0.012682   0.020562
    12  C    0.078393   0.017959
    13  C   -0.006895   0.011729
    14  C   -0.010076   0.004600
    15  C   -0.000938  -0.004676
    17  C   -0.004715  -0.002701
    19  C    0.010300   0.008280
    23  C    0.061550  -0.002410
    24  C   -0.000257   0.002253
    25  C   -0.017780   0.001603
    26  C   -0.005893  -0.001348
    28  C   -0.009782  -0.001113
    30  C    0.006128   0.002442
    34  O   -0.270486  -0.001548
 Electronic spatial extent (au):  <R**2>=           4118.3726
 Charge=             -0.0000 electrons
 Dipole moment (field-independent basis, Debye):
    X=              0.6594    Y=              2.3185    Z=              0.1279  Tot=              2.4139
 Quadrupole moment (field-independent basis, Debye-Ang):
   XX=           -101.5636   YY=           -100.5155   ZZ=           -103.2793
   XY=              0.8100   XZ=             -6.4031   YZ=              1.1988
 Traceless Quadrupole moment (field-independent basis, Debye-Ang):
   XX=              0.2225   YY=              1.2706   ZZ=             -1.4931
   XY=              0.8100   XZ=             -6.4031   YZ=              1.1988
 Octapole moment (field-independent basis, Debye-Ang**2):
  XXX=              6.0223  YYY=             -1.4934  ZZZ=              4.3449  XYY=             -3.4817
  XXY=             24.8068  XXZ=             -1.0359  XZZ=              2.1291  YZZ=            -12.3125
  YYZ=             -3.3137  XYZ=              7.5858
 Hexadecapole moment (field-independent basis, Debye-Ang**3):
 XXXX=          -3064.7998 YYYY=          -1499.2314 ZZZZ=           -632.5547 XXXY=              5.0722
 XXXZ=           -131.1517 YYYX=             25.2337 YYYZ=             15.3836 ZZZX=             -2.8933
 ZZZY=             -3.5067 XXYY=           -769.1388 XXZZ=           -667.3081 YYZZ=           -362.8970
 XXYZ=              4.0391 YYXZ=              4.1029 ZZXY=              1.6682
 N-N= 1.335689169144D+03 E-N=-4.461851087515D+03  KE= 7.636156752378D+02
 Leave Link  601 at Sat May 25 04:46:53 2019, MaxMem=   104857600 cpu:               4.0 elap:               0.2
 (Enter /opt/software/gaussian/g16.b01/l9999.exe)
 Electronic transition elements 
                 1             2             3             4             5 
      1  -0.770308D+03 -0.770255D+03 -0.770253D+03 -0.770246D+03 -0.770242D+03
      2  -0.221733D+00  0.176507D+00 -0.127093D+00  0.326162D+00 -0.121658D+00
      3   0.119153D+00 -0.252925D+00 -0.282062D+00  0.126259D+00 -0.680815D-01
      4  -0.116013D-01  0.305519D-01 -0.864081D-01  0.398476D-01 -0.386976D-01
      5   0.634913D-02 -0.122325D-01  0.959493D-02 -0.275431D-01  0.111147D-01
      6  -0.290511D-02  0.185527D-01  0.204205D-01 -0.112240D-01  0.633213D-02
      7  -0.562598D-03 -0.306389D-02  0.835301D-02 -0.238679D-02  0.233949D-02
      8  -0.388830D+00  0.644686D-01  0.778031D-01 -0.811796D-01  0.403282D-01
      9  -0.651950D+00 -0.173305D+00 -0.465610D-02 -0.531643D-01  0.309148D-01
     10  -0.506858D-01 -0.769763D-01  0.158201D+00 -0.146196D-01  0.623986D-01
     11  -0.268940D-01  0.667173D-01  0.954043D-01 -0.309343D-01 -0.224891D-01
     12   0.379513D-02 -0.460859D-01 -0.613397D-01  0.251964D-01 -0.126468D-01
     13   0.927280D-02  0.206015D-01  0.296602D-01 -0.105093D-01  0.223528D-01
     14   0.117736D-01 -0.103396D+00 -0.474886D-01 -0.241355D-01 -0.190388D-01
     15   0.641189D-02 -0.109229D-02 -0.145023D-01 -0.180124D-02  0.106623D-01
     16   0.460847D-02 -0.114405D-01 -0.133499D-01  0.424137D-03 -0.365193D-02
                 6             7             8             9            10 
      1  -0.770232D+03 -0.770203D+03 -0.770195D+03 -0.770194D+03 -0.770187D+03
      2   0.180152D+00 -0.601446D-01  0.326737D-01  0.898538D-02  0.150197D-01
      3  -0.140826D+00 -0.210037D+00 -0.303294D-01 -0.397995D-01 -0.123791D+00
      4   0.537346D-01  0.738558D-01 -0.301987D-03 -0.230649D-02  0.634742D-01
      5  -0.164975D-01  0.705711D-02 -0.415876D-02 -0.104237D-02 -0.110870D-02
      6   0.133979D-01  0.270089D-01  0.398313D-02  0.532463D-02  0.169143D-01
      7  -0.507767D-02 -0.780381D-02 -0.554778D-04  0.315605D-03 -0.101327D-01
      8   0.124345D-01 -0.368970D+00  0.323508D-01  0.435513D-01  0.585345D+00
      9  -0.486974D-01  0.175596D+00 -0.801706D-02 -0.925071D-02 -0.174253D+00
     10  -0.185212D-01 -0.210895D+00 -0.882616D-03  0.157458D-01  0.217319D+00
     11   0.877896D-01  0.141058D-01  0.162233D-01  0.268748D-01  0.316936D-01
     12   0.141958D-01 -0.184156D+00 -0.970814D-02 -0.804513D-02 -0.840296D-01
     13  -0.656480D-01  0.164564D+00  0.526590D-02 -0.129281D-03  0.106530D+00
     14   0.124660D-01 -0.763655D-01 -0.236430D-01 -0.152670D-01 -0.114198D+00
     15   0.681385D-02 -0.550893D-01 -0.247475D-02 -0.182330D-02 -0.277110D-02
     16   0.630573D-02 -0.390295D-01 -0.384103D-02 -0.123974D-02  0.450917D-01
                11            12            13            14            15 
      1  -0.770164D+03 -0.770162D+03 -0.770161D+03 -0.770160D+03 -0.770160D+03
      2  -0.155603D-01  0.151851D+00  0.381690D-01 -0.272459D-02 -0.248711D-01
      3  -0.140167D+00 -0.528799D-01  0.313973D-02 -0.688487D-03  0.273377D-01
      4   0.104138D+00  0.315102D-01 -0.208766D-01 -0.427523D-02  0.446164D-02
      5   0.225033D-02 -0.251534D-01 -0.625505D-02  0.447647D-03  0.407153D-02
      6   0.234319D-01  0.777767D-02 -0.573871D-03  0.193460D-03 -0.463924D-02
      7  -0.184546D-01 -0.384912D-02  0.394358D-02  0.914744D-03 -0.115916D-02
      8   0.243719D+00 -0.114879D+00 -0.517985D-01 -0.251532D-01  0.297416D-01
      9  -0.309158D+00  0.179220D+00  0.847629D-01  0.256276D-01 -0.488409D-01
     10  -0.141469D+00 -0.230731D+00  0.100036D-01  0.374798D-02  0.294599D-01
     11   0.490179D-01  0.120072D+00  0.163223D-01 -0.466508D-02 -0.328610D-01
     12  -0.125809D+00  0.249649D-01  0.193833D-01  0.109591D-01 -0.942491D-02
     13   0.112496D+00 -0.104764D+00 -0.314176D-01 -0.980581D-02  0.289845D-01
     14  -0.906135D-01 -0.227894D-01  0.125418D-02  0.166872D-02  0.386991D-02
     15  -0.241709D-01 -0.299850D-01 -0.138455D-02  0.421307D-02  0.330762D-02
     16   0.414320D-01 -0.193422D-01 -0.147001D-01 -0.548944D-02  0.817458D-02
                16            17            18            19            20 
      1  -0.770159D+03 -0.770157D+03 -0.770147D+03 -0.770145D+03 -0.770141D+03
      2   0.133783D-01  0.237868D-01  0.843456D-02 -0.602348D-02  0.171805D-01
      3  -0.838212D-02 -0.269868D-01 -0.609458D-03 -0.112811D-01  0.738674D-02
      4  -0.485460D-02 -0.386709D-01 -0.315085D-02  0.224231D-02  0.155163D+00
      5  -0.222876D-02 -0.403084D-02 -0.159275D-02  0.112671D-02 -0.321948D-02
      6   0.136158D-02  0.416187D-02  0.145762D-03  0.216699D-02 -0.769789D-03
      7   0.970266D-03  0.636429D-02  0.894845D-03 -0.158300D-03 -0.233774D-01
      8  -0.725540D-02 -0.680502D-01 -0.734723D-02 -0.254386D-03 -0.111412D+00
      9   0.329738D-01  0.242537D+00  0.744756D-02 -0.104654D-01  0.200752D+00
     10   0.263937D-03  0.569130D-01  0.741208D-02 -0.516402D-02 -0.202950D-01
     11   0.321065D-01  0.596098D-01  0.781811D-03  0.288005D-03 -0.500938D-01
     12  -0.532835D-02 -0.586420D-03  0.284065D-02  0.822933D-02 -0.518978D-01
     13  -0.129086D-01 -0.455893D-01 -0.269320D-02 -0.317602D-02  0.417962D-01
     14  -0.104043D-02 -0.294077D-03  0.224323D-02  0.367678D-02  0.267095D-01
     15  -0.859119D-02 -0.158057D-01 -0.126120D-02  0.190550D-02 -0.597281D-01
     16  -0.289783D-02 -0.102089D-01 -0.299413D-03 -0.667588D-03 -0.119082D-01
                21            22            23            24            25 
      1  -0.770139D+03 -0.770137D+03 -0.770136D+03 -0.770134D+03 -0.770133D+03
      2   0.400441D-01  0.533223D-01  0.139494D+00  0.351737D-01  0.125627D+00
      3  -0.178620D-01 -0.529084D-02  0.127488D-01 -0.274446D-01  0.105671D+00
      4  -0.142616D-01 -0.276922D-03 -0.167312D-01 -0.181391D-03  0.201016D-01
      5  -0.740137D-02 -0.864788D-02 -0.265018D-01 -0.650108D-02 -0.245383D-01
      6   0.398617D-02  0.581350D-03 -0.168217D-02  0.525315D-02 -0.219275D-01
      7   0.172057D-02 -0.347633D-03  0.262627D-02 -0.595531D-03 -0.407622D-02
      8  -0.575168D-02  0.537037D-01  0.808665D-01  0.161855D-01  0.857645D-01
      9   0.216008D-01 -0.105178D+00  0.471770D-02 -0.719031D-01 -0.130665D+00
     10   0.996921D-01 -0.184714D+00  0.111341D+00 -0.322971D-01 -0.121707D+00
     11   0.134098D-01  0.255102D-01 -0.177141D-01  0.918216D-01 -0.260854D-01
     12  -0.402817D-01  0.475237D-01 -0.117366D-01  0.515159D-01  0.144567D+00
     13   0.290703D-01 -0.498932D-01  0.111991D-01 -0.331082D-01 -0.878425D-01
     14  -0.125065D-01 -0.210782D-01 -0.959093D-01 -0.144557D-01  0.168896D-01
     15  -0.803844D-02  0.332368D-01  0.458221D-02 -0.573755D-02  0.431006D-01
     16   0.540421D-02  0.284793D-01 -0.213973D-01 -0.619678D-03  0.257897D-01
                26            27            28            29            30 
      1  -0.770126D+03 -0.770123D+03 -0.770121D+03 -0.770120D+03 -0.770117D+03
      2  -0.291467D-01  0.742392D-01  0.562302D-01 -0.567982D-01  0.298852D+00
      3   0.104541D-01 -0.446165D-01 -0.223192D-01  0.115356D+00  0.454951D-01
      4   0.836099D-01  0.203083D+00 -0.600390D-01  0.248540D-01 -0.102418D+00
      5   0.537208D-02 -0.132336D-01 -0.719241D-02  0.142430D-01 -0.597664D-01
      6  -0.918456D-03  0.858693D-02  0.482934D-02 -0.239652D-01 -0.932060D-02
      7  -0.161082D-01 -0.396567D-01  0.142415D-01 -0.407653D-02  0.252930D-01
      8   0.273759D+00  0.415168D+00  0.826802D-01 -0.622202D-02  0.194859D-01
      9  -0.249557D+00 -0.179576D+00  0.122465D+00 -0.112109D+00 -0.170069D+00
     10   0.289276D+00 -0.433343D-01  0.566816D+00  0.203672D+00  0.415840D+00
     11  -0.521620D-01  0.188443D-01  0.774838D-01 -0.317492D+00 -0.309791D+00
     12  -0.435860D-01 -0.192611D-01  0.125401D-01  0.220314D-01  0.383532D-01
     13   0.399317D-01  0.220246D-01 -0.475195D-01  0.804484D-01  0.889018D-01
     14   0.580005D-01 -0.706686D-01  0.218380D+00  0.119765D+00 -0.308696D-01
     15  -0.120286D-01 -0.334124D-01 -0.245758D-01  0.390521D-01  0.575158D-01
     16   0.313881D-01  0.992961D-01  0.596172D-01  0.334112D-01  0.247063D-01
                31            32            33            34            35 
      1  -0.770115D+03 -0.770113D+03 -0.770113D+03 -0.770113D+03 -0.770112D+03
      2   0.191632D+00  0.713575D-01  0.328893D+00  0.375560D+00  0.206845D+00
      3  -0.122512D+00  0.755545D-01  0.279501D-01 -0.173906D+00  0.502903D-01
      4  -0.183320D-01 -0.515634D-01 -0.797263D-01 -0.270808D-01  0.183497D-01
      5  -0.385022D-01 -0.150125D-01 -0.710787D-01 -0.806064D-01 -0.426840D-01
      6   0.267879D-01 -0.165210D-01 -0.507488D-02  0.382260D-01 -0.130430D-01
      7   0.577079D-02  0.123266D-01  0.175646D-01  0.589313D-02 -0.232450D-02
      8  -0.238148D-01  0.332477D-01  0.674337D-01  0.787487D-02 -0.332185D-01
      9   0.197423D-01  0.870162D-01  0.408735D-01  0.389210D-01  0.130692D+00
     10   0.234597D+00  0.229342D+00  0.193714D+00 -0.185751D-01 -0.401229D-01
     11   0.147257D+00  0.135025D+00 -0.544327D-01  0.289424D+00  0.217423D+00
     12   0.298412D-01 -0.812994D-01  0.928732D-02  0.313551D-01 -0.118895D+00
     13  -0.568903D-01 -0.154522D-01  0.614399D-02 -0.815812D-01 -0.454809D-01
     14  -0.397474D-01  0.556979D-01 -0.653702D-01 -0.264329D+00 -0.173193D+00
     15  -0.108635D-02 -0.693812D-01 -0.303180D-02  0.388990D-02 -0.876224D-01
     16   0.548204D-01  0.347737D-01  0.558430D-01  0.693145D-02  0.583719D-02
                36 
      1  -0.770112D+03
      2   0.106507D+00
      3  -0.124442D+00
      4  -0.269332D-01
      5  -0.240663D-01
      6   0.279691D-01
      7   0.517918D-02
      8   0.253101D-01
      9  -0.248107D-02
     10  -0.747100D-03
     11   0.147587D+00
     12   0.458633D-01
     13  -0.429698D-01
     14  -0.618578D-01
     15   0.232278D-01
     16  -0.119715D-02
 1\1\GINC-GRA468\SP\UB3LYP TD-FC\6-31G(d,p)\C16H17O2(2)\RZK\25-May-2019
 \0\\#p td=(50-50,nstates=36) ub3lyp/6-31g(d,p) scrf=(iefpcm,solvent=ac
 etonitrile) guess=(mix,always) empiricaldispersion=gd3\\Title Card Req
 uired\\0,2\C,0,-0.51247,-1.256482,-0.360064\C,0,0.553595,-1.247426,0.3
 83861\O,0,-1.215739,-2.467926,-0.31414\C,0,-0.072514,-1.333531,-1.8995
 99\H,0,-0.964833,-1.366524,-2.52209\H,0,0.513701,-0.441701,-2.125381\H
 ,0,0.539784,-2.219073,-2.051502\C,0,0.047596,-1.297405,1.858597\H,0,-0
 .515871,-0.410534,2.15023\H,0,-0.597652,-2.172955,1.982516\H,0,0.91433
 4,-1.399347,2.512302\C,0,-1.553428,-0.101858,-0.251604\C,0,-2.722193,-
 0.327115,0.489167\C,0,-1.391148,1.137769,-0.883353\C,0,-3.697095,0.663
 824,0.609824\H,0,-2.865505,-1.285446,0.977189\C,0,-2.365555,2.130014,-
 0.765942\H,0,-0.500655,1.34364,-1.46532\C,0,-3.521035,1.898752,-0.0169
 77\H,0,-4.591994,0.469252,1.193488\H,0,-2.220831,3.083331,-1.265384\H,
 0,-4.27875,2.671463,0.071753\C,0,1.556882,-0.067352,0.256272\C,0,2.780
 045,-0.252582,-0.402837\C,0,1.286656,1.192068,0.810238\C,0,3.699122,0.
 792877,-0.51597\H,0,3.013327,-1.223117,-0.821468\C,0,2.205314,2.236723
 ,0.701873\H,0,0.351145,1.372689,1.325847\C,0,3.415919,2.043561,0.03413
 \H,0,4.640112,0.623894,-1.031595\H,0,1.970518,3.201974,1.140736\H,0,4.
 13115,2.856253,-0.051327\O,0,1.391274,-2.429998,0.234948\H,0,0.799592,
 -3.191445,0.327849\\Version=ES64L-G16RevB.01\State=2-A\HF=-770.3329999
 \S2=0.753673\S2-1=0.\S2A=0.75001\RMSD=6.585e-09\PG=C01 [X(C16H17O2)]\\
 @


 ASKING FOR EFFICIENCY AND ADAPTABILITY IN THE SAME PROGRAM IS LIKE
 ASKING FOR A BEAUTIFUL AND MODEST WIFE ...
 WE'LL PROBABLY HAVE TO SETTLE FOR ONE OR THE OTHER.

             -- THE PSYCHOLOGY OF COMPUTER PROGRAMMING
                GERALD M. WEINBERG
 Job cpu time:       0 days 15 hours 30 minutes 51.8 seconds.
 Elapsed time:       0 days  0 hours 29 minutes  8.0 seconds.
 File lengths (MBytes):  RWF=   2164 Int=      0 D2E=      0 Chk=    178 Scr=      1
 Normal termination of Gaussian 16 at Sat May 25 04:46:54 2019.
