 Entering Gaussian System, Link 0=g16
 Initial command:
 /opt/software/gaussian/g16.b01/l1.exe "/localscratch/rzk.15153365.0/Gau-9614.inp" -scrdir="/localscratch/rzk.15153365.0/"
 Entering Link 1 = /opt/software/gaussian/g16.b01/l1.exe PID=      9620.
  
 Copyright (c) 1988-2017, Gaussian, Inc.  All Rights Reserved.
  
 This is part of the Gaussian(R) 16 program.  It is based on
 the Gaussian(R) 09 system (copyright 2009, Gaussian, Inc.),
 the Gaussian(R) 03 system (copyright 2003, Gaussian, Inc.),
 the Gaussian(R) 98 system (copyright 1998, Gaussian, Inc.),
 the Gaussian(R) 94 system (copyright 1995, Gaussian, Inc.),
 the Gaussian 92(TM) system (copyright 1992, Gaussian, Inc.),
 the Gaussian 90(TM) system (copyright 1990, Gaussian, Inc.),
 the Gaussian 88(TM) system (copyright 1988, Gaussian, Inc.),
 the Gaussian 86(TM) system (copyright 1986, Carnegie Mellon
 University), and the Gaussian 82(TM) system (copyright 1983,
 Carnegie Mellon University). Gaussian is a federally registered
 trademark of Gaussian, Inc.
  
 This software contains proprietary and confidential information,
 including trade secrets, belonging to Gaussian, Inc.
  
 This software is provided under written license and may be
 used, copied, transmitted, or stored only in accord with that
 written license.
  
 The following legend is applicable only to US Government
 contracts under FAR:
  
                    RESTRICTED RIGHTS LEGEND
  
 Use, reproduction and disclosure by the US Government is
 subject to restrictions as set forth in subparagraphs (a)
 and (c) of the Commercial Computer Software - Restricted
 Rights clause in FAR 52.227-19.
  
 Gaussian, Inc.
 340 Quinnipiac St., Bldg. 40, Wallingford CT 06492
  
  
 ---------------------------------------------------------------
 Warning -- This program may not be used in any manner that
 competes with the business of Gaussian, Inc. or will provide
 assistance to any competitor of Gaussian, Inc.  The licensee
 of this program is prohibited from giving any competitor of
 Gaussian, Inc. access to this program.  By using this program,
 the user acknowledges that Gaussian, Inc. is engaged in the
 business of creating and licensing software in the field of
 computational chemistry and represents and warrants to the
 licensee that it is not a competitor of Gaussian, Inc. and that
 it will not use this program in any manner prohibited above.
 ---------------------------------------------------------------
  

 Cite this work as:
 Gaussian 16, Revision B.01,
 M. J. Frisch, G. W. Trucks, H. B. Schlegel, G. E. Scuseria, 
 M. A. Robb, J. R. Cheeseman, G. Scalmani, V. Barone, 
 G. A. Petersson, H. Nakatsuji, X. Li, M. Caricato, A. V. Marenich, 
 J. Bloino, B. G. Janesko, R. Gomperts, B. Mennucci, H. P. Hratchian, 
 J. V. Ortiz, A. F. Izmaylov, J. L. Sonnenberg, D. Williams-Young, 
 F. Ding, F. Lipparini, F. Egidi, J. Goings, B. Peng, A. Petrone, 
 T. Henderson, D. Ranasinghe, V. G. Zakrzewski, J. Gao, N. Rega, 
 G. Zheng, W. Liang, M. Hada, M. Ehara, K. Toyota, R. Fukuda, 
 J. Hasegawa, M. Ishida, T. Nakajima, Y. Honda, O. Kitao, H. Nakai, 
 T. Vreven, K. Throssell, J. A. Montgomery, Jr., J. E. Peralta, 
 F. Ogliaro, M. J. Bearpark, J. J. Heyd, E. N. Brothers, K. N. Kudin, 
 V. N. Staroverov, T. A. Keith, R. Kobayashi, J. Normand, 
 K. Raghavachari, A. P. Rendell, J. C. Burant, S. S. Iyengar, 
 J. Tomasi, M. Cossi, J. M. Millam, M. Klene, C. Adamo, R. Cammi, 
 J. W. Ochterski, R. L. Martin, K. Morokuma, O. Farkas, 
 J. B. Foresman, and D. J. Fox, Gaussian, Inc., Wallingford CT, 2016.
 
 ******************************************
 Gaussian 16:  ES64L-G16RevB.01 20-Dec-2017
                25-May-2019 
 ******************************************
 %NProcShared=32
 Will use up to   32 processors via shared memory.
 %chk=AH-A_2.chk
 ----------------------------------------------------------------------
 #p td=(50-50,nstates=36) ub3lyp/6-31g(d,p) scrf=(iefpcm,solvent=aceton
 itrile) guess=(mix,always) empiricaldispersion=gd3
 ----------------------------------------------------------------------
 1/38=1,172=1/1;
 2/12=2,17=6,18=5,40=1/2;
 3/5=1,6=6,7=101,11=2,25=1,30=1,70=2201,72=2,74=-5,116=2,124=31/1,2,3,8;
 4/13=-1/1;
 5/5=2,38=5,53=2/2;
 8/6=1,10=2,108=36/1;
 9/41=36,42=1,48=2,70=2/14;
 6/7=2,8=2,9=2,10=2/1;
 99/5=1,9=1/99;
 Leave Link    1 at Sat May 25 04:18:18 2019, MaxMem=           0 cpu:               2.4 elap:               0.1
 (Enter /opt/software/gaussian/g16.b01/l101.exe)
 -------------------
 Title Card Required
 -------------------
 Symbolic Z-matrix:
 Charge =  0 Multiplicity = 2
 C                    -1.42401  -1.42034  -0.98807 
 C                     0.78729  -1.32231   1.18231 
 O                    -1.85717  -2.36658  -0.32458 
 C                    -0.51599  -1.66789  -2.1708 
 H                    -0.89571  -1.17134  -3.06896 
 H                     0.48193  -1.26555  -1.96677 
 H                    -0.43832  -2.74147  -2.34281 
 C                    -0.21937  -1.15658   2.27245 
 H                    -0.44496  -0.11082   2.47924 
 H                    -1.15852  -1.64422   1.98247 
 H                     0.12333  -1.62921   3.20318 
 C                    -1.76577  -0.01681  -0.6204 
 C                    -2.76218   0.20519   0.34579 
 C                    -1.0957    1.0845   -1.17814 
 C                    -3.08078   1.49859   0.74736 
 H                    -3.27352  -0.65219   0.76944 
 C                    -1.40844   2.37922  -0.76717 
 H                    -0.31117   0.93606  -1.91137 
 C                    -2.40132   2.58907   0.19302 
 H                    -3.85448   1.6607    1.4916 
 H                    -0.87331   3.22294  -1.19137 
 H                    -2.6447    3.5987    0.5102 
 C                     1.65261  -0.32779   0.65979 
 C                     2.55847  -0.63652  -0.40065 
 C                     1.63739   1.01794   1.131 
 C                     3.37006   0.34229  -0.9568 
 H                     2.60225  -1.65448  -0.76991 
 C                     2.45652   1.98341   0.56425 
 H                     0.97092   1.30112   1.93773 
 C                     3.32957   1.66224  -0.4856 
 H                     4.04491   0.07736  -1.76632 
 H                     2.41519   3.00185   0.94061 
 H                     3.96578   2.4241   -0.92494 
 O                     0.92294  -2.58558   0.6717 
 H                     0.05419  -3.02153   0.68088 
 
 ITRead=  0  0  0  0  0  0  0  0  0  0  0  0  0  0  0  0  0  0  0  0
 ITRead=  0  0  0  0  0  0  0  0  0  0  0  0  0  0  0
 MicOpt= -1 -1 -1 -1 -1 -1 -1 -1 -1 -1 -1 -1 -1 -1 -1 -1 -1 -1 -1 -1
 MicOpt= -1 -1 -1 -1 -1 -1 -1 -1 -1 -1 -1 -1 -1 -1 -1
 NAtoms=     35 NQM=       35 NQMF=       0 NMMI=      0 NMMIF=      0
                NMic=       0 NMicF=      0.
                    Isotopes and Nuclear Properties:
 (Nuclear quadrupole moments (NQMom) in fm**2, nuclear magnetic moments (NMagM)
  in nuclear magnetons)

  Atom         1           2           3           4           5           6           7           8           9          10
 IAtWgt=          12          12          16          12           1           1           1          12           1           1
 AtmWgt=  12.0000000  12.0000000  15.9949146  12.0000000   1.0078250   1.0078250   1.0078250  12.0000000   1.0078250   1.0078250
 NucSpn=           0           0           0           0           1           1           1           0           1           1
 AtZEff=  -0.0000000  -0.0000000  -0.0000000  -0.0000000  -0.0000000  -0.0000000  -0.0000000  -0.0000000  -0.0000000  -0.0000000
 NQMom=    0.0000000   0.0000000   0.0000000   0.0000000   0.0000000   0.0000000   0.0000000   0.0000000   0.0000000   0.0000000
 NMagM=    0.0000000   0.0000000   0.0000000   0.0000000   2.7928460   2.7928460   2.7928460   0.0000000   2.7928460   2.7928460
 AtZNuc=   6.0000000   6.0000000   8.0000000   6.0000000   1.0000000   1.0000000   1.0000000   6.0000000   1.0000000   1.0000000

  Atom        11          12          13          14          15          16          17          18          19          20
 IAtWgt=           1          12          12          12          12           1          12           1          12           1
 AtmWgt=   1.0078250  12.0000000  12.0000000  12.0000000  12.0000000   1.0078250  12.0000000   1.0078250  12.0000000   1.0078250
 NucSpn=           1           0           0           0           0           1           0           1           0           1
 AtZEff=  -0.0000000  -0.0000000  -0.0000000  -0.0000000  -0.0000000  -0.0000000  -0.0000000  -0.0000000  -0.0000000  -0.0000000
 NQMom=    0.0000000   0.0000000   0.0000000   0.0000000   0.0000000   0.0000000   0.0000000   0.0000000   0.0000000   0.0000000
 NMagM=    2.7928460   0.0000000   0.0000000   0.0000000   0.0000000   2.7928460   0.0000000   2.7928460   0.0000000   2.7928460
 AtZNuc=   1.0000000   6.0000000   6.0000000   6.0000000   6.0000000   1.0000000   6.0000000   1.0000000   6.0000000   1.0000000

  Atom        21          22          23          24          25          26          27          28          29          30
 IAtWgt=           1           1          12          12          12          12           1          12           1          12
 AtmWgt=   1.0078250   1.0078250  12.0000000  12.0000000  12.0000000  12.0000000   1.0078250  12.0000000   1.0078250  12.0000000
 NucSpn=           1           1           0           0           0           0           1           0           1           0
 AtZEff=  -0.0000000  -0.0000000  -0.0000000  -0.0000000  -0.0000000  -0.0000000  -0.0000000  -0.0000000  -0.0000000  -0.0000000
 NQMom=    0.0000000   0.0000000   0.0000000   0.0000000   0.0000000   0.0000000   0.0000000   0.0000000   0.0000000   0.0000000
 NMagM=    2.7928460   2.7928460   0.0000000   0.0000000   0.0000000   0.0000000   2.7928460   0.0000000   2.7928460   0.0000000
 AtZNuc=   1.0000000   1.0000000   6.0000000   6.0000000   6.0000000   6.0000000   1.0000000   6.0000000   1.0000000   6.0000000

  Atom        31          32          33          34          35
 IAtWgt=           1           1           1          16           1
 AtmWgt=   1.0078250   1.0078250   1.0078250  15.9949146   1.0078250
 NucSpn=           1           1           1           0           1
 AtZEff=  -0.0000000  -0.0000000  -0.0000000  -0.0000000  -0.0000000
 NQMom=    0.0000000   0.0000000   0.0000000   0.0000000   0.0000000
 NMagM=    2.7928460   2.7928460   2.7928460   0.0000000   2.7928460
 AtZNuc=   1.0000000   1.0000000   1.0000000   8.0000000   1.0000000
 Leave Link  101 at Sat May 25 04:18:19 2019, MaxMem=   104857600 cpu:               4.3 elap:               0.2
 (Enter /opt/software/gaussian/g16.b01/l202.exe)
                          Input orientation:                          
 ---------------------------------------------------------------------
 Center     Atomic      Atomic             Coordinates (Angstroms)
 Number     Number       Type             X           Y           Z
 ---------------------------------------------------------------------
      1          6           0       -1.424012   -1.420337   -0.988073
      2          6           0        0.787289   -1.322314    1.182305
      3          8           0       -1.857166   -2.366576   -0.324576
      4          6           0       -0.515988   -1.667894   -2.170797
      5          1           0       -0.895705   -1.171341   -3.068965
      6          1           0        0.481926   -1.265548   -1.966772
      7          1           0       -0.438317   -2.741469   -2.342806
      8          6           0       -0.219369   -1.156576    2.272451
      9          1           0       -0.444960   -0.110824    2.479241
     10          1           0       -1.158521   -1.644223    1.982470
     11          1           0        0.123326   -1.629207    3.203178
     12          6           0       -1.765767   -0.016807   -0.620399
     13          6           0       -2.762178    0.205185    0.345790
     14          6           0       -1.095700    1.084504   -1.178141
     15          6           0       -3.080783    1.498588    0.747359
     16          1           0       -3.273522   -0.652187    0.769441
     17          6           0       -1.408444    2.379220   -0.767165
     18          1           0       -0.311172    0.936057   -1.911372
     19          6           0       -2.401318    2.589070    0.193019
     20          1           0       -3.854476    1.660697    1.491597
     21          1           0       -0.873314    3.222938   -1.191368
     22          1           0       -2.644701    3.598695    0.510203
     23          6           0        1.652605   -0.327791    0.659792
     24          6           0        2.558465   -0.636524   -0.400651
     25          6           0        1.637388    1.017935    1.131002
     26          6           0        3.370056    0.342294   -0.956799
     27          1           0        2.602249   -1.654479   -0.769907
     28          6           0        2.456524    1.983408    0.564253
     29          1           0        0.970916    1.301124    1.937727
     30          6           0        3.329573    1.662243   -0.485599
     31          1           0        4.044909    0.077355   -1.766315
     32          1           0        2.415186    3.001850    0.940611
     33          1           0        3.965780    2.424095   -0.924944
     34          8           0        0.922936   -2.585578    0.671703
     35          1           0        0.054185   -3.021534    0.680877
 ---------------------------------------------------------------------
                    Distance matrix (angstroms):
                    1          2          3          4          5
     1  C    0.000000
     2  C    3.100000   0.000000
     3  O    1.234188   3.217812   0.000000
     4  C    1.511499   3.614035   2.386514   0.000000
     5  H    2.161300   4.574774   3.143989   1.094283   0.000000
     6  H    2.148118   3.164357   3.062747   1.095144   1.766797
     7  H    2.133609   3.992808   2.495382   1.090038   1.789361
     8  C    3.485936   1.493067   3.300156   4.482397   5.384085
     9  H    3.833488   2.160599   3.865764   4.904321   5.666609
    10  H    2.990775   2.128395   2.516418   4.202741   5.080323
    11  H    4.472635   2.149176   4.112312   5.412008   6.370859
    12  C    1.490596   3.387061   2.370080   2.586846   2.843489
    13  C    2.492429   3.953698   2.807560   3.858368   4.127844
    14  C    2.533405   3.861363   3.635706   2.982805   2.950263
    15  C    3.778457   4.807145   4.193540   5.012027   5.144649
    16  H    2.664507   4.136389   2.478319   4.157001   4.544986
    17  C    3.806005   4.724725   4.787464   4.375591   4.262355
    18  H    2.764686   3.984682   3.976859   2.624845   2.474435
    19  C    4.292488   5.142453   5.012228   5.221479   5.200779
    20  H    4.642057   5.526301   4.848367   5.969770   6.129722
    21  H    4.680235   5.389920   5.741251   5.000720   4.778657
    22  H    5.378252   6.037102   6.074663   6.281412   6.214714
    23  C    3.657142   1.418051   4.176616   3.809318   4.594463
    24  C    4.101165   2.472473   4.743065   3.694510   4.397411
    25  C    4.450598   2.490395   5.077945   4.769967   5.371146
    26  C    5.107929   3.743978   5.921278   4.540483   4.994903
    27  H    4.038960   2.686177   4.537817   3.418490   4.213641
    28  C    5.390154   3.754482   6.190339   5.445028   5.864312
    29  H    4.658577   2.736203   5.154424   5.282605   5.887641
    30  C    5.687825   4.260598   6.569595   5.358922   5.705782
    31  H    5.723446   4.611455   6.548733   4.900131   5.259829
    32  H    6.165631   4.626755   6.976653   6.330810   6.667400
    33  H    6.620687   5.345922   7.564236   6.195383   6.415452
    34  O    3.101743   1.369288   2.961334   3.315487   4.393190
    35  H    2.744867   1.917347   2.256805   3.207722   4.287986
                    6          7          8          9         10
     6  H    0.000000
     7  H    1.779492   0.000000
     8  C    4.298221   4.884713   0.000000
     9  H    4.686100   5.492948   1.089610   0.000000
    10  H    4.293131   4.520028   1.097222   1.762743   0.000000
    11  H    5.195115   5.684233   1.098669   1.775534   1.770165
    12  C    2.902447   3.486057   3.472607   3.370629   3.129242
    13  C    4.246788   4.616454   3.468760   3.165592   2.944613
    14  C    2.938297   4.052982   4.206778   3.902399   4.176046
    15  C    5.263065   5.874507   4.190882   3.540789   3.885595
    16  H    4.686839   4.699954   3.441119   3.349217   2.632262
    17  C    4.277486   5.444745   4.811966   4.203305   4.879657
    18  H    2.340756   3.704929   4.678880   4.515677   4.747405
    19  C    5.275971   6.220806   4.807786   4.042719   4.761034
    20  H    6.271173   6.764012   4.664843   3.967181   4.293207
    21  H    4.752308   6.090089   5.621906   4.977030   5.817546
    22  H    6.290633   7.294208   5.621419   4.740939   5.644864
    23  C    3.024684   4.383308   2.606116   2.785184   3.374152
    24  C    2.675896   4.145294   3.890024   4.194127   4.528875
    25  C    4.018158   5.523496   3.078790   2.725439   3.953377
    26  C    3.456370   5.092574   5.055555   5.154225   5.752700
    27  H    2.465669   3.591741   4.179160   4.714373   4.660373
    28  C    4.567367   6.257440   4.465181   4.058521   5.314094
    29  H    4.698088   6.054045   2.751201   2.071603   3.634773
    30  C    4.344528   6.085959   5.305428   5.116751   6.096480
    31  H    3.812928   5.327047   6.001523   6.182158   6.640249
    32  H    5.513715   7.204791   5.099724   4.498506   5.953389
    33  H    5.180358   6.934656   6.368674   6.121186   7.159799
    34  O    2.983039   3.311280   2.430906   3.356001   2.633766
    35  H    3.205697   3.076305   2.466984   3.457671   2.249841
                   11         12         13         14         15
    11  H    0.000000
    12  C    4.559413   0.000000
    13  C    4.455984   1.405573   0.000000
    14  C    5.295867   1.404618   2.423369   0.000000
    15  C    5.106903   2.428261   1.391279   2.796349   0.000000
    16  H    4.291412   2.146786   1.084454   3.398835   2.159507
    17  C    5.846147   2.426966   2.792435   1.393915   2.421985
    18  H    5.738292   2.165735   3.411215   1.084043   3.880211
    19  C    5.764438   2.802886   2.415878   2.418354   1.399327
    20  H    5.438372   3.411342   2.150466   3.882054   1.085712
    21  H    6.621830   3.408581   3.877821   2.150007   3.406606
    22  H    6.499619   3.888784   3.399521   3.401627   2.157976
    23  C    3.240554   3.663450   4.457911   3.595241   5.074277
    24  C    4.461267   4.373937   5.438280   4.113314   6.138220
    25  C    3.686958   3.964790   4.542389   3.578595   4.758082
    26  C    5.633248   5.159341   6.270553   4.532421   6.771595
    27  H    4.683065   4.667321   5.786208   4.619904   6.673888
    28  C    5.045664   4.819959   5.517667   4.057371   5.561506
    29  H    3.302516   3.971194   4.203729   3.745191   4.227556
    30  C    5.892431   5.366551   6.318517   4.516242   6.529903
    31  H    6.556449   5.923339   7.128377   5.271258   7.688559
    32  H    5.640791   5.387895   5.914410   4.526770   5.701124
    33  H    6.945149   6.237097   7.197482   5.241869   7.301179
    34  O    2.821770   3.936653   4.634074   4.578899   5.719782
    35  H    2.881902   3.746189   4.296033   4.651638   5.501268
                   16         17         18         19         20
    16  H    0.000000
    17  C    3.876739   0.000000
    18  H    4.299395   2.143813   0.000000
    19  C    3.405694   1.397064   3.395530   0.000000
    20  H    2.491676   3.406076   4.965914   2.158668   0.000000
    21  H    4.962093   1.085436   2.462567   2.157107   4.304210
    22  H    4.304953   2.155718   4.289408   1.085902   2.486469
    23  C    4.938014   4.328295   3.473416   5.015999   5.913876
    24  C    5.948229   4.996540   3.604179   5.946120   7.069911
    25  C    5.199718   3.838389   3.613811   4.433895   5.541096
    26  C    6.935851   5.197989   3.849052   6.299114   7.741233
    27  H    6.156206   5.688268   4.062246   6.631034   7.602242
    28  C    6.310459   4.106984   3.858213   4.909508   6.386927
    29  H    4.816178   3.760331   4.073400   4.009336   4.859293
    30  C    7.108627   4.800223   3.976833   5.844882   7.451165
    31  H    7.779571   6.002994   4.442280   7.190379   8.690296
    32  H    6.763334   4.233712   4.453576   4.891625   6.435133
    33  H    8.046238   5.376727   4.634611   6.466606   8.220636
    34  O    4.621451   5.670528   4.538415   6.169018   6.444125
    35  H    4.085986   5.779641   4.745078   6.143808   6.152901
                   21         22         23         24         25
    21  H    0.000000
    22  H    2.484824   0.000000
    23  C    4.734420   5.822930   0.000000
    24  C    5.224728   6.770500   1.428439   0.000000
    25  C    4.069283   5.038055   1.425920   2.435483   0.000000
    26  C    5.134133   6.995252   2.451942   1.387828   2.795987
    27  H    6.003862   7.534255   2.169323   1.083743   3.418510
    28  C    3.963138   5.351128   2.448888   2.793828   1.387201
    29  H    4.109232   4.515456   2.179721   3.426777   1.084060
    30  C    4.538517   6.358728   2.843304   2.426140   2.427349
    31  H    5.866360   7.895141   3.431218   2.141069   3.882692
    32  H    3.925359   5.113114   3.427375   3.880371   2.139424
    33  H    4.911819   6.865697   3.928746   3.409224   3.409635
    34  O    6.358963   7.141383   2.372796   2.761107   3.702256
    35  H    6.584754   7.151262   3.132354   3.623451   4.361932
                   26         27         28         29         30
    26  C    0.000000
    27  H    2.147454   0.000000
    28  C    2.416898   3.877556   0.000000
    29  H    3.879885   4.327600   2.135175   0.000000
    30  C    1.402118   3.407415   1.402694   3.400909   0.000000
    31  H    1.086709   2.464416   3.404049   4.966585   2.159585
    32  H    3.403701   4.964098   1.086544   2.443895   2.159798
    33  H    2.165594   4.303257   2.165587   4.292454   1.085450
    34  O    4.148837   2.401099   4.820692   4.087979   5.017493
    35  H    4.999232   3.235157   5.552862   4.594066   5.833232
                   31         32         33         34         35
    31  H    0.000000
    32  H    4.305359   0.000000
    33  H    2.494264   2.493680   0.000000
    34  O    4.773035   5.789514   6.074949   0.000000
    35  H    5.614066   6.474793   6.894499   0.972044   0.000000
 Stoichiometry    C16H17O2(2)
 Framework group  C1[X(C16H17O2)]
 Deg. of freedom    99
 Full point group                 C1      NOp   1
 Largest Abelian subgroup         C1      NOp   1
 Largest concise Abelian subgroup C1      NOp   1
                         Standard orientation:                         
 ---------------------------------------------------------------------
 Center     Atomic      Atomic             Coordinates (Angstroms)
 Number     Number       Type             X           Y           Z
 ---------------------------------------------------------------------
      1          6           0       -1.424012   -1.420337   -0.988073
      2          6           0        0.787289   -1.322314    1.182305
      3          8           0       -1.857166   -2.366576   -0.324576
      4          6           0       -0.515988   -1.667894   -2.170797
      5          1           0       -0.895705   -1.171341   -3.068965
      6          1           0        0.481926   -1.265548   -1.966772
      7          1           0       -0.438317   -2.741469   -2.342806
      8          6           0       -0.219369   -1.156576    2.272451
      9          1           0       -0.444960   -0.110824    2.479241
     10          1           0       -1.158521   -1.644223    1.982470
     11          1           0        0.123326   -1.629207    3.203178
     12          6           0       -1.765767   -0.016807   -0.620399
     13          6           0       -2.762178    0.205185    0.345790
     14          6           0       -1.095700    1.084504   -1.178141
     15          6           0       -3.080783    1.498588    0.747359
     16          1           0       -3.273522   -0.652187    0.769441
     17          6           0       -1.408444    2.379220   -0.767165
     18          1           0       -0.311172    0.936057   -1.911372
     19          6           0       -2.401318    2.589070    0.193019
     20          1           0       -3.854476    1.660698    1.491597
     21          1           0       -0.873314    3.222938   -1.191368
     22          1           0       -2.644701    3.598695    0.510203
     23          6           0        1.652605   -0.327791    0.659792
     24          6           0        2.558465   -0.636524   -0.400651
     25          6           0        1.637388    1.017935    1.131002
     26          6           0        3.370056    0.342294   -0.956799
     27          1           0        2.602249   -1.654479   -0.769907
     28          6           0        2.456524    1.983408    0.564253
     29          1           0        0.970916    1.301124    1.937727
     30          6           0        3.329573    1.662243   -0.485599
     31          1           0        4.044909    0.077355   -1.766315
     32          1           0        2.415186    3.001850    0.940611
     33          1           0        3.965780    2.424095   -0.924944
     34          8           0        0.922936   -2.585578    0.671703
     35          1           0        0.054185   -3.021534    0.680877
 ---------------------------------------------------------------------
 Rotational constants (GHZ):           0.5355597           0.3850142           0.3014618
 Leave Link  202 at Sat May 25 04:18:19 2019, MaxMem=   104857600 cpu:               2.0 elap:               0.1
 (Enter /opt/software/gaussian/g16.b01/l301.exe)
 Standard basis: 6-31G(d,p) (6D, 7F)
 Ernie: Thresh=  0.10000D-02 Tol=  0.10000D-05 Strict=F.
 There are   355 symmetry adapted cartesian basis functions of A   symmetry.
 There are   355 symmetry adapted basis functions of A   symmetry.
   355 basis functions,   623 primitive gaussians,   355 cartesian basis functions
    65 alpha electrons       64 beta electrons
       nuclear repulsion energy      1297.6719872687 Hartrees.
 IExCor=  402 DFT=T Ex+Corr=B3LYP ExCW=0 ScaHFX=  0.200000
 ScaDFX=  0.800000  0.720000  1.000000  0.810000 ScalE2=  1.000000  1.000000
 IRadAn=      5 IRanWt=     -1 IRanGd=            0 ICorTp=0 IEmpDi=131
 NAtoms=   35 NActive=   35 NUniq=   35 SFac= 1.00D+00 NAtFMM=   60 NAOKFM=F Big=F
 Integral buffers will be    131072 words long.
 Raffenetti 2 integral format.
 Two-electron integral symmetry is turned on.
 R6Disp:  Grimme-D3 Dispersion energy=       -0.0398064304 Hartrees.
 Nuclear repulsion after empirical dispersion term =     1297.6321808383 Hartrees.
 ------------------------------------------------------------------------------
 Polarizable Continuum Model (PCM)
 =================================
 Model                : PCM.
 Atomic radii         : UFF (Universal Force Field).
 Polarization charges : Total charges.
 Charge compensation  : None.
 Solution method      : On-the-fly selection.
 Cavity type          : Scaled VdW (van der Waals Surface) (Alpha=1.100).
 Cavity algorithm     : GePol (No added spheres)
                        Default sphere list used, NSphG=   35.
                        Lebedev-Laikov grids with approx.  5.0 points / Ang**2.
                        Smoothing algorithm: York/Karplus (Gamma=1.0000).
                        Polarization charges: spherical gaussians, with
                                              point-specific exponents (IZeta= 3).
                        Self-potential: point-specific (ISelfS= 7).
                        Self-field    : sphere-specific E.n sum rule (ISelfD= 2).
 Solvent              : Acetonitrile, Eps=  35.688000 Eps(inf)=   1.806874
 ------------------------------------------------------------------------------
 GePol: Number of generator spheres                  =      35
 GePol: Total number of spheres                      =      35
 GePol: Number of exposed spheres                    =      35 (100.00%)
 GePol: Number of points                             =    2482
 GePol: Average weight of points                     =       0.13
 GePol: Minimum weight of points                     =   0.58D-11
 GePol: Maximum weight of points                     =    0.20577
 GePol: Number of points with low weight             =     185
 GePol: Fraction of low-weight points (<1% of avg)   =       7.45%
 GePol: Cavity surface area                          =    318.268 Ang**2
 GePol: Cavity volume                                =    362.506 Ang**3
 Leave Link  301 at Sat May 25 04:18:19 2019, MaxMem=   104857600 cpu:               4.6 elap:               0.2
 (Enter /opt/software/gaussian/g16.b01/l302.exe)
 NPDir=0 NMtPBC=     1 NCelOv=     1 NCel=       1 NClECP=     1 NCelD=      1
         NCelK=      1 NCelE2=     1 NClLst=     1 CellRange=     0.0.
 One-electron integrals computed using PRISM.
 One-electron integral symmetry used in STVInt
 PrsmSu:  requested number of processors reduced to:  28 ShMem   1 Linda.
 NBasis=   355 RedAO= T EigKep=  4.60D-04  NBF=   355
 NBsUse=   355 1.00D-06 EigRej= -1.00D+00 NBFU=   355
 Precomputing XC quadrature grid using
 IXCGrd= 4 IRadAn=           5 IRanWt=          -1 IRanGd=           0 AccXCQ= 0.00D+00.
 Generated NRdTot=       0 NPtTot=           0 NUsed=           0 NTot=          32
 NSgBfM=   354   354   354   354   354 MxSgAt=    35 MxSgA2=    35.
 Leave Link  302 at Sat May 25 04:18:20 2019, MaxMem=   104857600 cpu:              14.7 elap:               0.5
 (Enter /opt/software/gaussian/g16.b01/l303.exe)
 DipDrv:  MaxL=1.
 Leave Link  303 at Sat May 25 04:18:20 2019, MaxMem=   104857600 cpu:               2.0 elap:               0.1
 (Enter /opt/software/gaussian/g16.b01/l308.exe)
 Leave Link  308 at Sat May 25 04:18:20 2019, MaxMem=   104857600 cpu:               1.9 elap:               0.1
 (Enter /opt/software/gaussian/g16.b01/l401.exe)
 ExpMin= 1.61D-01 ExpMax= 5.48D+03 ExpMxC= 8.25D+02 IAcc=3 IRadAn=         5 AccDes= 0.00D+00
 Harris functional with IExCor=  402 and IRadAn=       5 diagonalized for initial guess.
 HarFok:  IExCor=  402 AccDes= 0.00D+00 IRadAn=         5 IDoV= 1 UseB2=F ITyADJ=14
 ICtDFT=  3500011 ScaDFX=  1.000000  1.000000  1.000000  1.000000
 FoFCou: FMM=F IPFlag=           0 FMFlag=      100000 FMFlg1=           0
         NFxFlg=           0 DoJE=T BraDBF=F KetDBF=T FulRan=T
         wScrn=  0.000000 ICntrl=       500 IOpCl=  0 I1Cent=   200000004 NGrid=           0
         NMat0=    1 NMatS0=      1 NMatT0=    0 NMatD0=    1 NMtDS0=    0 NMtDT0=    0
 Petite list used in FoFCou.
 Harris En= -770.480853601249    
 JPrj=0 DoOrth=F DoCkMO=T.
 Mixing orbitals, IMix= 1 IMixAn=  0 NRI=1 NE=   65 Coef=  7.07106781D-01  7.07106781D-01
 Mixing orbitals, IMix= 1 IMixAn=  0 NRI=1 NE=   64 Coef= -7.07106781D-01  7.07106781D-01
 Initial guess <Sx>= 0.0000 <Sy>= 0.0000 <Sz>= 0.5000 <S**2>= 1.0000 S= 0.6180
 Leave Link  401 at Sat May 25 04:18:21 2019, MaxMem=   104857600 cpu:              28.2 elap:               1.0
 (Enter /opt/software/gaussian/g16.b01/l502.exe)
 Integral symmetry usage will be decided dynamically.
 UHF open shell SCF:
 Using DIIS extrapolation, IDIIS=  1040.
 NGot=   104857600 LenX=   104590331 LenY=   104463865
 Requested convergence on RMS density matrix=1.00D-08 within 128 cycles.
 Requested convergence on MAX density matrix=1.00D-06.
 Requested convergence on             energy=1.00D-06.
 No special actions if energy rises.
 Fock matrices will be formed incrementally for  20 cycles.

 Cycle   1  Pass 1  IDiag  1:
 FoFJK:  IHMeth= 1 ICntrl=       0 DoSepK=F KAlg= 0 I1Cent=           0 FoldK=F
 IRaf= 830000000 NMat=       1 IRICut=       1 DoRegI=T DoRafI=F ISym2E= 0 IDoP0=0 IntGTp=1.
 FoFCou: FMM=F IPFlag=           0 FMFlag=      100000 FMFlg1=           0
         NFxFlg=           0 DoJE=F BraDBF=F KetDBF=F FulRan=T
         wScrn=  0.000000 ICntrl=         0 IOpCl=  1 I1Cent=           0 NGrid=           0
         NMat0=    1 NMatS0=      1 NMatT0=    0 NMatD0=    1 NMtDS0=    0 NMtDT0=    0
 Symmetry not used in FoFCou.
 Inv3:  Mode=1 IEnd=    18480972.
 Iteration    1 A*A^-1 deviation from unit magnitude is 3.11D-15 for   1047.
 Iteration    1 A*A^-1 deviation from orthogonality  is 1.78D-15 for   2374    674.
 Iteration    1 A^-1*A deviation from unit magnitude is 3.33D-15 for   1126.
 Iteration    1 A^-1*A deviation from orthogonality  is 8.03D-15 for   1641   1608.
 E= -769.866713763353    
 DIIS: error= 2.99D-02 at cycle   1 NSaved=   1.
 NSaved= 1 IEnMin= 1 EnMin= -769.866713763353     IErMin= 1 ErrMin= 2.99D-02
 ErrMax= 2.99D-02  0.00D+00 EMaxC= 1.00D-01 BMatC= 1.81D+00 BMatP= 1.81D+00
 IDIUse=3 WtCom= 7.01D-01 WtEn= 2.99D-01
 Coeff-Com:  0.100D+01
 Coeff-En:   0.100D+01
 Coeff:      0.100D+01
 Gap=     0.000 Goal=   None    Shift=    0.000
 Gap=    -0.009 Goal=   None    Shift=    0.000
 GapD=   -0.009 DampG=0.250 DampE=0.500 DampFc=0.2500 IDamp=-1.
 Damping current iteration by 2.50D-01
 RMSDP=4.63D-03 MaxDP=1.57D-01              OVMax= 6.85D-01

 Cycle   2  Pass 1  IDiag  1:
 RMSU=  1.13D-03    CP:  9.86D-01
 E= -770.051655111844     Delta-E=       -0.184941348491 Rises=F Damp=T
 DIIS: error= 1.62D-02 at cycle   2 NSaved=   2.
 NSaved= 2 IEnMin= 2 EnMin= -770.051655111844     IErMin= 2 ErrMin= 1.62D-02
 ErrMax= 1.62D-02  0.00D+00 EMaxC= 1.00D-01 BMatC= 4.84D-01 BMatP= 1.81D+00
 IDIUse=3 WtCom= 8.38D-01 WtEn= 1.62D-01
 Coeff-Com: -0.833D+00 0.183D+01
 Coeff-En:   0.000D+00 0.100D+01
 Coeff:     -0.699D+00 0.170D+01
 Gap=     0.053 Goal=   None    Shift=    0.000
 Gap=     0.157 Goal=   None    Shift=    0.000
 RMSDP=2.10D-03 MaxDP=4.99D-02 DE=-1.85D-01 OVMax= 2.46D-01

 Cycle   3  Pass 1  IDiag  1:
 RMSU=  1.49D-03    CP:  9.57D-01  2.24D+00
 E= -770.396149623382     Delta-E=       -0.344494511538 Rises=F Damp=F
 DIIS: error= 9.19D-03 at cycle   3 NSaved=   3.
 NSaved= 3 IEnMin= 3 EnMin= -770.396149623382     IErMin= 3 ErrMin= 9.19D-03
 ErrMax= 9.19D-03  0.00D+00 EMaxC= 1.00D-01 BMatC= 1.34D-01 BMatP= 4.84D-01
 IDIUse=3 WtCom= 9.08D-01 WtEn= 9.19D-02
 Coeff-Com: -0.435D+00 0.929D+00 0.506D+00
 Coeff-En:   0.000D+00 0.000D+00 0.100D+01
 Coeff:     -0.395D+00 0.844D+00 0.551D+00
 Gap=     0.079 Goal=   None    Shift=    0.000
 Gap=     0.158 Goal=   None    Shift=    0.000
 RMSDP=8.08D-04 MaxDP=3.83D-02 DE=-3.44D-01 OVMax= 9.66D-02

 Cycle   4  Pass 1  IDiag  1:
 RMSU=  7.01D-04    CP:  9.59D-01  2.29D+00  7.35D-01
 E= -770.421389025818     Delta-E=       -0.025239402436 Rises=F Damp=F
 DIIS: error= 4.89D-03 at cycle   4 NSaved=   4.
 NSaved= 4 IEnMin= 4 EnMin= -770.421389025818     IErMin= 4 ErrMin= 4.89D-03
 ErrMax= 4.89D-03  0.00D+00 EMaxC= 1.00D-01 BMatC= 3.76D-02 BMatP= 1.34D-01
 IDIUse=3 WtCom= 9.51D-01 WtEn= 4.89D-02
 Coeff-Com: -0.400D-01 0.105D+00 0.340D+00 0.594D+00
 Coeff-En:   0.000D+00 0.000D+00 0.217D+00 0.783D+00
 Coeff:     -0.380D-01 0.100D+00 0.334D+00 0.603D+00
 Gap=     0.087 Goal=   None    Shift=    0.000
 Gap=     0.166 Goal=   None    Shift=    0.000
 RMSDP=3.35D-04 MaxDP=1.87D-02 DE=-2.52D-02 OVMax= 2.82D-02

 Cycle   5  Pass 1  IDiag  1:
 RMSU=  2.02D-04    CP:  9.58D-01  2.26D+00  8.47D-01  7.05D-01
 E= -770.429916065416     Delta-E=       -0.008527039598 Rises=F Damp=F
 DIIS: error= 9.45D-04 at cycle   5 NSaved=   5.
 NSaved= 5 IEnMin= 5 EnMin= -770.429916065416     IErMin= 5 ErrMin= 9.45D-04
 ErrMax= 9.45D-04  0.00D+00 EMaxC= 1.00D-01 BMatC= 2.57D-03 BMatP= 3.76D-02
 IDIUse=3 WtCom= 9.91D-01 WtEn= 9.45D-03
 Coeff-Com:  0.603D-02-0.321D-02 0.136D+00 0.314D+00 0.547D+00
 Coeff-En:   0.000D+00 0.000D+00 0.000D+00 0.000D+00 0.100D+01
 Coeff:      0.597D-02-0.318D-02 0.135D+00 0.311D+00 0.551D+00
 Gap=     0.090 Goal=   None    Shift=    0.000
 Gap=     0.170 Goal=   None    Shift=    0.000
 RMSDP=9.88D-05 MaxDP=4.58D-03 DE=-8.53D-03 OVMax= 9.10D-03

 Cycle   6  Pass 1  IDiag  1:
 RMSU=  8.80D-05    CP:  9.58D-01  2.27D+00  8.55D-01  7.43D-01  8.36D-01
 E= -770.430590590362     Delta-E=       -0.000674524945 Rises=F Damp=F
 DIIS: error= 5.94D-04 at cycle   6 NSaved=   6.
 NSaved= 6 IEnMin= 6 EnMin= -770.430590590362     IErMin= 6 ErrMin= 5.94D-04
 ErrMax= 5.94D-04  0.00D+00 EMaxC= 1.00D-01 BMatC= 4.48D-04 BMatP= 2.57D-03
 IDIUse=3 WtCom= 9.94D-01 WtEn= 5.94D-03
 Coeff-Com:  0.104D-01-0.204D-01-0.890D-02 0.102D-01 0.271D+00 0.737D+00
 Coeff-En:   0.000D+00 0.000D+00 0.000D+00 0.000D+00 0.000D+00 0.100D+01
 Coeff:      0.103D-01-0.202D-01-0.884D-02 0.102D-01 0.270D+00 0.739D+00
 Gap=     0.092 Goal=   None    Shift=    0.000
 Gap=     0.170 Goal=   None    Shift=    0.000
 RMSDP=5.53D-05 MaxDP=3.93D-03 DE=-6.75D-04 OVMax= 9.85D-03

 Cycle   7  Pass 1  IDiag  1:
 RMSU=  4.08D-05    CP:  9.58D-01  2.27D+00  8.55D-01  7.65D-01  1.00D+00
                    CP:  9.47D-01
 E= -770.430817464513     Delta-E=       -0.000226874151 Rises=F Damp=F
 DIIS: error= 3.37D-04 at cycle   7 NSaved=   7.
 NSaved= 7 IEnMin= 7 EnMin= -770.430817464513     IErMin= 7 ErrMin= 3.37D-04
 ErrMax= 3.37D-04  0.00D+00 EMaxC= 1.00D-01 BMatC= 8.55D-05 BMatP= 4.48D-04
 IDIUse=3 WtCom= 9.97D-01 WtEn= 3.37D-03
 Coeff-Com: -0.559D-03-0.257D-03-0.312D-01-0.744D-01-0.785D-01 0.226D+00
 Coeff-Com:  0.959D+00
 Coeff-En:   0.000D+00 0.000D+00 0.000D+00 0.000D+00 0.000D+00 0.000D+00
 Coeff-En:   0.100D+01
 Coeff:     -0.557D-03-0.256D-03-0.310D-01-0.741D-01-0.782D-01 0.225D+00
 Coeff:      0.959D+00
 Gap=     0.092 Goal=   None    Shift=    0.000
 Gap=     0.171 Goal=   None    Shift=    0.000
 RMSDP=3.58D-05 MaxDP=1.92D-03 DE=-2.27D-04 OVMax= 7.30D-03

 Cycle   8  Pass 1  IDiag  1:
 RMSU=  2.16D-05    CP:  9.58D-01  2.27D+00  8.59D-01  7.68D-01  1.07D+00
                    CP:  1.20D+00  1.24D+00
 E= -770.430890163334     Delta-E=       -0.000072698821 Rises=F Damp=F
 DIIS: error= 2.23D-04 at cycle   8 NSaved=   8.
 NSaved= 8 IEnMin= 8 EnMin= -770.430890163334     IErMin= 8 ErrMin= 2.23D-04
 ErrMax= 2.23D-04  0.00D+00 EMaxC= 1.00D-01 BMatC= 3.66D-05 BMatP= 8.55D-05
 IDIUse=3 WtCom= 9.98D-01 WtEn= 2.23D-03
 Coeff-Com: -0.262D-02 0.456D-02-0.158D-01-0.464D-01-0.106D+00-0.256D-01
 Coeff-Com:  0.559D+00 0.633D+00
 Coeff-En:   0.000D+00 0.000D+00 0.000D+00 0.000D+00 0.000D+00 0.000D+00
 Coeff-En:   0.000D+00 0.100D+01
 Coeff:     -0.261D-02 0.455D-02-0.158D-01-0.463D-01-0.105D+00-0.256D-01
 Coeff:      0.558D+00 0.633D+00
 Gap=     0.093 Goal=   None    Shift=    0.000
 Gap=     0.171 Goal=   None    Shift=    0.000
 RMSDP=1.74D-05 MaxDP=1.08D-03 DE=-7.27D-05 OVMax= 3.47D-03

 Cycle   9  Pass 1  IDiag  1:
 RMSU=  1.17D-05    CP:  9.58D-01  2.27D+00  8.58D-01  7.71D-01  1.09D+00
                    CP:  1.27D+00  1.50D+00  1.01D+00
 E= -770.430911604570     Delta-E=       -0.000021441236 Rises=F Damp=F
 DIIS: error= 1.20D-04 at cycle   9 NSaved=   9.
 NSaved= 9 IEnMin= 9 EnMin= -770.430911604570     IErMin= 9 ErrMin= 1.20D-04
 ErrMax= 1.20D-04  0.00D+00 EMaxC= 1.00D-01 BMatC= 7.67D-06 BMatP= 3.66D-05
 IDIUse=3 WtCom= 9.99D-01 WtEn= 1.20D-03
 Coeff-Com: -0.921D-03 0.189D-02 0.170D-02 0.162D-03-0.247D-01-0.783D-01
 Coeff-Com: -0.161D-01 0.309D+00 0.807D+00
 Coeff-En:   0.000D+00 0.000D+00 0.000D+00 0.000D+00 0.000D+00 0.000D+00
 Coeff-En:   0.000D+00 0.000D+00 0.100D+01
 Coeff:     -0.920D-03 0.189D-02 0.170D-02 0.162D-03-0.247D-01-0.782D-01
 Coeff:     -0.161D-01 0.308D+00 0.808D+00
 Gap=     0.093 Goal=   None    Shift=    0.000
 Gap=     0.171 Goal=   None    Shift=    0.000
 RMSDP=1.09D-05 MaxDP=5.52D-04 DE=-2.14D-05 OVMax= 2.58D-03

 Cycle  10  Pass 1  IDiag  1:
 RMSU=  5.98D-06    CP:  9.58D-01  2.27D+00  8.58D-01  7.68D-01  1.09D+00
                    CP:  1.31D+00  1.61D+00  1.31D+00  1.14D+00
 E= -770.430918207963     Delta-E=       -0.000006603393 Rises=F Damp=F
 DIIS: error= 5.03D-05 at cycle  10 NSaved=  10.
 NSaved=10 IEnMin=10 EnMin= -770.430918207963     IErMin=10 ErrMin= 5.03D-05
 ErrMax= 5.03D-05  0.00D+00 EMaxC= 1.00D-01 BMatC= 2.23D-06 BMatP= 7.67D-06
 IDIUse=1 WtCom= 1.00D+00 WtEn= 0.00D+00
 Coeff-Com:  0.194D-03-0.242D-03 0.572D-02 0.145D-01 0.190D-01-0.378D-01
 Coeff-Com: -0.185D+00-0.196D-01 0.428D+00 0.776D+00
 Coeff:      0.194D-03-0.242D-03 0.572D-02 0.145D-01 0.190D-01-0.378D-01
 Coeff:     -0.185D+00-0.196D-01 0.428D+00 0.776D+00
 Gap=     0.093 Goal=   None    Shift=    0.000
 Gap=     0.171 Goal=   None    Shift=    0.000
 RMSDP=6.49D-06 MaxDP=3.42D-04 DE=-6.60D-06 OVMax= 1.21D-03

 Cycle  11  Pass 1  IDiag  1:
 RMSU=  2.63D-06    CP:  9.58D-01  2.27D+00  8.58D-01  7.69D-01  1.09D+00
                    CP:  1.32D+00  1.68D+00  1.47D+00  1.44D+00  1.05D+00
 E= -770.430920257258     Delta-E=       -0.000002049296 Rises=F Damp=F
 DIIS: error= 1.73D-05 at cycle  11 NSaved=  11.
 NSaved=11 IEnMin=11 EnMin= -770.430920257258     IErMin=11 ErrMin= 1.73D-05
 ErrMax= 1.73D-05  0.00D+00 EMaxC= 1.00D-01 BMatC= 3.01D-07 BMatP= 2.23D-06
 IDIUse=1 WtCom= 1.00D+00 WtEn= 0.00D+00
 Coeff-Com:  0.199D-03-0.389D-03 0.122D-02 0.417D-02 0.107D-01 0.397D-02
 Coeff-Com: -0.474D-01-0.680D-01-0.593D-01 0.215D+00 0.940D+00
 Coeff:      0.199D-03-0.389D-03 0.122D-02 0.417D-02 0.107D-01 0.397D-02
 Coeff:     -0.474D-01-0.680D-01-0.593D-01 0.215D+00 0.940D+00
 Gap=     0.093 Goal=   None    Shift=    0.000
 Gap=     0.171 Goal=   None    Shift=    0.000
 RMSDP=3.08D-06 MaxDP=1.24D-04 DE=-2.05D-06 OVMax= 5.64D-04

 Cycle  12  Pass 1  IDiag  1:
 RMSU=  1.30D-06    CP:  9.58D-01  2.27D+00  8.58D-01  7.68D-01  1.09D+00
                    CP:  1.33D+00  1.70D+00  1.54D+00  1.57D+00  1.29D+00
                    CP:  1.17D+00
 E= -770.430920595647     Delta-E=       -0.000000338389 Rises=F Damp=F
 DIIS: error= 7.71D-06 at cycle  12 NSaved=  12.
 NSaved=12 IEnMin=12 EnMin= -770.430920595647     IErMin=12 ErrMin= 7.71D-06
 ErrMax= 7.71D-06  0.00D+00 EMaxC= 1.00D-01 BMatC= 1.50D-07 BMatP= 3.01D-07
 IDIUse=1 WtCom= 1.00D+00 WtEn= 0.00D+00
 Coeff-Com:  0.822D-04-0.205D-03-0.614D-03-0.840D-03 0.205D-02 0.100D-01
 Coeff-Com:  0.145D-01-0.351D-01-0.132D+00-0.453D-01 0.555D+00 0.632D+00
 Coeff:      0.822D-04-0.205D-03-0.614D-03-0.840D-03 0.205D-02 0.100D-01
 Coeff:      0.145D-01-0.351D-01-0.132D+00-0.453D-01 0.555D+00 0.632D+00
 Gap=     0.093 Goal=   None    Shift=    0.000
 Gap=     0.171 Goal=   None    Shift=    0.000
 RMSDP=1.16D-06 MaxDP=4.85D-05 DE=-3.38D-07 OVMax= 1.96D-04

 Cycle  13  Pass 1  IDiag  1:
 RMSU=  5.36D-07    CP:  9.58D-01  2.27D+00  8.58D-01  7.68D-01  1.09D+00
                    CP:  1.33D+00  1.71D+00  1.56D+00  1.60D+00  1.35D+00
                    CP:  1.42D+00  8.78D-01
 E= -770.430920665628     Delta-E=       -0.000000069981 Rises=F Damp=F
 DIIS: error= 2.84D-06 at cycle  13 NSaved=  13.
 NSaved=13 IEnMin=13 EnMin= -770.430920665628     IErMin=13 ErrMin= 2.84D-06
 ErrMax= 2.84D-06  0.00D+00 EMaxC= 1.00D-01 BMatC= 1.65D-08 BMatP= 1.50D-07
 IDIUse=1 WtCom= 1.00D+00 WtEn= 0.00D+00
 Coeff-Com:  0.381D-05-0.223D-04-0.483D-03-0.111D-02-0.949D-03 0.362D-02
 Coeff-Com:  0.162D-01-0.394D-02-0.500D-01-0.600D-01 0.685D-01 0.274D+00
 Coeff-Com:  0.754D+00
 Coeff:      0.381D-05-0.223D-04-0.483D-03-0.111D-02-0.949D-03 0.362D-02
 Coeff:      0.162D-01-0.394D-02-0.500D-01-0.600D-01 0.685D-01 0.274D+00
 Coeff:      0.754D+00
 Gap=     0.093 Goal=   None    Shift=    0.000
 Gap=     0.171 Goal=   None    Shift=    0.000
 RMSDP=4.41D-07 MaxDP=1.88D-05 DE=-7.00D-08 OVMax= 6.93D-05

 Cycle  14  Pass 1  IDiag  1:
 RMSU=  2.41D-07    CP:  9.58D-01  2.27D+00  8.58D-01  7.68D-01  1.09D+00
                    CP:  1.33D+00  1.71D+00  1.56D+00  1.61D+00  1.38D+00
                    CP:  1.49D+00  1.04D+00  9.94D-01
 E= -770.430920674907     Delta-E=       -0.000000009279 Rises=F Damp=F
 DIIS: error= 1.50D-06 at cycle  14 NSaved=  14.
 NSaved=14 IEnMin=14 EnMin= -770.430920674907     IErMin=14 ErrMin= 1.50D-06
 ErrMax= 1.50D-06  0.00D+00 EMaxC= 1.00D-01 BMatC= 3.33D-09 BMatP= 1.65D-08
 IDIUse=1 WtCom= 1.00D+00 WtEn= 0.00D+00
 Coeff-Com: -0.102D-04 0.230D-04-0.112D-03-0.340D-03-0.701D-03 0.881D-04
 Coeff-Com:  0.509D-02 0.306D-02-0.257D-02-0.180D-01-0.545D-01 0.207D-01
 Coeff-Com:  0.344D+00 0.703D+00
 Coeff:     -0.102D-04 0.230D-04-0.112D-03-0.340D-03-0.701D-03 0.881D-04
 Coeff:      0.509D-02 0.306D-02-0.257D-02-0.180D-01-0.545D-01 0.207D-01
 Coeff:      0.344D+00 0.703D+00
 Gap=     0.093 Goal=   None    Shift=    0.000
 Gap=     0.171 Goal=   None    Shift=    0.000
 RMSDP=1.65D-07 MaxDP=7.67D-06 DE=-9.28D-09 OVMax= 2.49D-05

 Cycle  15  Pass 1  IDiag  1:
 RMSU=  1.03D-07    CP:  9.58D-01  2.27D+00  8.58D-01  7.68D-01  1.09D+00
                    CP:  1.33D+00  1.71D+00  1.56D+00  1.61D+00  1.38D+00
                    CP:  1.51D+00  1.08D+00  1.17D+00  1.04D+00
 E= -770.430920676759     Delta-E=       -0.000000001852 Rises=F Damp=F
 DIIS: error= 9.29D-07 at cycle  15 NSaved=  15.
 NSaved=15 IEnMin=15 EnMin= -770.430920676759     IErMin=15 ErrMin= 9.29D-07
 ErrMax= 9.29D-07  0.00D+00 EMaxC= 1.00D-01 BMatC= 7.37D-10 BMatP= 3.33D-09
 IDIUse=1 WtCom= 1.00D+00 WtEn= 0.00D+00
 Coeff-Com: -0.210D-05 0.959D-05 0.693D-04 0.133D-03-0.538D-04-0.803D-03
 Coeff-Com: -0.181D-02 0.184D-02 0.105D-01 0.734D-02-0.381D-01-0.547D-01
 Coeff-Com: -0.237D-01 0.301D+00 0.798D+00
 Coeff:     -0.210D-05 0.959D-05 0.693D-04 0.133D-03-0.538D-04-0.803D-03
 Coeff:     -0.181D-02 0.184D-02 0.105D-01 0.734D-02-0.381D-01-0.547D-01
 Coeff:     -0.237D-01 0.301D+00 0.798D+00
 Gap=     0.093 Goal=   None    Shift=    0.000
 Gap=     0.171 Goal=   None    Shift=    0.000
 RMSDP=9.57D-08 MaxDP=4.92D-06 DE=-1.85D-09 OVMax= 1.59D-05

 Cycle  16  Pass 1  IDiag  1:
 RMSU=  5.91D-08    CP:  9.58D-01  2.27D+00  8.58D-01  7.68D-01  1.09D+00
                    CP:  1.33D+00  1.71D+00  1.56D+00  1.61D+00  1.39D+00
                    CP:  1.52D+00  1.10D+00  1.23D+00  1.24D+00  1.16D+00
 E= -770.430920677417     Delta-E=       -0.000000000657 Rises=F Damp=F
 DIIS: error= 5.12D-07 at cycle  16 NSaved=  16.
 NSaved=16 IEnMin=16 EnMin= -770.430920677417     IErMin=16 ErrMin= 5.12D-07
 ErrMax= 5.12D-07  0.00D+00 EMaxC= 1.00D-01 BMatC= 1.79D-10 BMatP= 7.37D-10
 IDIUse=1 WtCom= 1.00D+00 WtEn= 0.00D+00
 Coeff-Com:  0.355D-05-0.585D-05 0.471D-04 0.123D-03 0.158D-03-0.225D-03
 Coeff-Com: -0.186D-02-0.232D-03 0.392D-02 0.684D-02 0.257D-02-0.217D-01
 Coeff-Com: -0.100D+00-0.978D-01 0.247D+00 0.961D+00
 Coeff:      0.355D-05-0.585D-05 0.471D-04 0.123D-03 0.158D-03-0.225D-03
 Coeff:     -0.186D-02-0.232D-03 0.392D-02 0.684D-02 0.257D-02-0.217D-01
 Coeff:     -0.100D+00-0.978D-01 0.247D+00 0.961D+00
 Gap=     0.093 Goal=   None    Shift=    0.000
 Gap=     0.171 Goal=   None    Shift=    0.000
 RMSDP=6.79D-08 MaxDP=3.58D-06 DE=-6.57D-10 OVMax= 1.17D-05

 Cycle  17  Pass 1  IDiag  1:
 RMSU=  3.25D-08    CP:  9.58D-01  2.27D+00  8.58D-01  7.68D-01  1.09D+00
                    CP:  1.33D+00  1.71D+00  1.56D+00  1.61D+00  1.39D+00
                    CP:  1.52D+00  1.11D+00  1.27D+00  1.37D+00  1.52D+00
                    CP:  1.39D+00
 E= -770.430920677693     Delta-E=       -0.000000000276 Rises=F Damp=F
 DIIS: error= 3.04D-07 at cycle  17 NSaved=  17.
 NSaved=17 IEnMin=17 EnMin= -770.430920677693     IErMin=17 ErrMin= 3.04D-07
 ErrMax= 3.04D-07  0.00D+00 EMaxC= 1.00D-01 BMatC= 6.46D-11 BMatP= 1.79D-10
 IDIUse=1 WtCom= 1.00D+00 WtEn= 0.00D+00
 Coeff-Com:  0.334D-06-0.186D-05-0.302D-06 0.824D-05 0.724D-04 0.144D-03
 Coeff-Com: -0.197D-03-0.584D-03-0.158D-02 0.276D-03 0.120D-01 0.838D-02
 Coeff-Com: -0.307D-01-0.122D+00-0.127D+00 0.382D+00 0.879D+00
 Coeff:      0.334D-06-0.186D-05-0.302D-06 0.824D-05 0.724D-04 0.144D-03
 Coeff:     -0.197D-03-0.584D-03-0.158D-02 0.276D-03 0.120D-01 0.838D-02
 Coeff:     -0.307D-01-0.122D+00-0.127D+00 0.382D+00 0.879D+00
 Gap=     0.093 Goal=   None    Shift=    0.000
 Gap=     0.171 Goal=   None    Shift=    0.000
 RMSDP=4.02D-08 MaxDP=2.12D-06 DE=-2.76D-10 OVMax= 7.62D-06

 Cycle  18  Pass 1  IDiag  1:
 RMSU=  1.69D-08    CP:  9.58D-01  2.27D+00  8.58D-01  7.68D-01  1.09D+00
                    CP:  1.33D+00  1.71D+00  1.56D+00  1.61D+00  1.39D+00
                    CP:  1.52D+00  1.11D+00  1.29D+00  1.42D+00  1.70D+00
                    CP:  1.80D+00  1.32D+00
 E= -770.430920677792     Delta-E=       -0.000000000099 Rises=F Damp=F
 DIIS: error= 1.62D-07 at cycle  18 NSaved=  18.
 NSaved=18 IEnMin=18 EnMin= -770.430920677792     IErMin=18 ErrMin= 1.62D-07
 ErrMax= 1.62D-07  0.00D+00 EMaxC= 1.00D-01 BMatC= 2.51D-11 BMatP= 6.46D-11
 IDIUse=1 WtCom= 1.00D+00 WtEn= 0.00D+00
 Coeff-Com: -0.980D-06 0.808D-06-0.194D-04-0.465D-04-0.196D-04 0.179D-03
 Coeff-Com:  0.657D-03-0.186D-03-0.240D-02-0.286D-02 0.496D-02 0.131D-01
 Coeff-Com:  0.251D-01-0.252D-01-0.177D+00-0.200D+00 0.494D+00 0.870D+00
 Coeff:     -0.980D-06 0.808D-06-0.194D-04-0.465D-04-0.196D-04 0.179D-03
 Coeff:      0.657D-03-0.186D-03-0.240D-02-0.286D-02 0.496D-02 0.131D-01
 Coeff:      0.251D-01-0.252D-01-0.177D+00-0.200D+00 0.494D+00 0.870D+00
 Gap=     0.093 Goal=   None    Shift=    0.000
 Gap=     0.171 Goal=   None    Shift=    0.000
 RMSDP=2.94D-08 MaxDP=1.51D-06 DE=-9.89D-11 OVMax= 5.13D-06

 Cycle  19  Pass 1  IDiag  1:
 RMSU=  8.23D-09    CP:  9.58D-01  2.27D+00  8.58D-01  7.68D-01  1.09D+00
                    CP:  1.33D+00  1.71D+00  1.56D+00  1.61D+00  1.39D+00
                    CP:  1.52D+00  1.11D+00  1.29D+00  1.45D+00  1.83D+00
                    CP:  2.10D+00  1.76D+00  1.04D+00
 E= -770.430920677818     Delta-E=       -0.000000000027 Rises=F Damp=F
 DIIS: error= 4.81D-08 at cycle  19 NSaved=  19.
 NSaved=19 IEnMin=19 EnMin= -770.430920677818     IErMin=19 ErrMin= 4.81D-08
 ErrMax= 4.81D-08  0.00D+00 EMaxC= 1.00D-01 BMatC= 4.59D-12 BMatP= 2.51D-11
 IDIUse=1 WtCom= 1.00D+00 WtEn= 0.00D+00
 Coeff-Com: -0.610D-06 0.790D-06-0.951D-05-0.251D-04-0.262D-04 0.512D-04
 Coeff-Com:  0.345D-03 0.539D-04-0.757D-03-0.140D-02-0.342D-05 0.427D-02
 Coeff-Com:  0.170D-01 0.103D-01-0.588D-01-0.163D+00 0.595D-01 0.412D+00
 Coeff-Com:  0.720D+00
 Coeff:     -0.610D-06 0.790D-06-0.951D-05-0.251D-04-0.262D-04 0.512D-04
 Coeff:      0.345D-03 0.539D-04-0.757D-03-0.140D-02-0.342D-05 0.427D-02
 Coeff:      0.170D-01 0.103D-01-0.588D-01-0.163D+00 0.595D-01 0.412D+00
 Coeff:      0.720D+00
 Gap=     0.093 Goal=   None    Shift=    0.000
 Gap=     0.171 Goal=   None    Shift=    0.000
 RMSDP=9.47D-09 MaxDP=4.95D-07 DE=-2.66D-11 OVMax= 1.82D-06

 Error on total polarization charges =  0.00971
 SCF Done:  E(UB3LYP) =  -770.430920678     A.U. after   19 cycles
            NFock= 19  Conv=0.95D-08     -V/T= 2.0096
 <Sx>= 0.0000 <Sy>= 0.0000 <Sz>= 0.5000 <S**2>= 0.7740 S= 0.5119
 <L.S>=  0.00000000000    
 KE= 7.630834522695D+02 PE=-4.385401563271D+03 EE= 1.554255009485D+03
 Annihilation of the first spin contaminant:
 S**2 before annihilation     0.7740,   after     0.7504
 Leave Link  502 at Sat May 25 04:19:08 2019, MaxMem=   104857600 cpu:            1448.0 elap:              46.1
 (Enter /opt/software/gaussian/g16.b01/l801.exe)
 DoSCS=F DFT=T ScalE2(SS,OS)=  1.000000  1.000000
 ExpMin= 1.61D-01 ExpMax= 5.48D+03 ExpMxC= 8.25D+02 IAcc=3 IRadAn=         5 AccDes= 0.00D+00
 HarFok:  IExCor=  205 AccDes= 0.00D+00 IRadAn=         5 IDoV=-2 UseB2=F ITyADJ=14
 ICtDFT= 12500011 ScaDFX=  1.000000  1.000000  1.000000  1.000000
 Largest valence mixing into a core orbital is  5.78D-05
 Largest core mixing into a valence orbital is  1.22D-05
 Largest valence mixing into a core orbital is  6.36D-05
 Largest core mixing into a valence orbital is  1.22D-05
 Range of M.O.s used for correlation:    19   355
 NBasis=   355 NAE=    65 NBE=    64 NFC=    18 NFV=     0
 NROrb=    337 NOA=    47 NOB=    46 NVA=   290 NVB=   291

 **** Warning!!: The smallest alpha delta epsilon is  0.92740046D-01

 Leave Link  801 at Sat May 25 04:19:08 2019, MaxMem=   104857600 cpu:               4.7 elap:               0.2
 (Enter /opt/software/gaussian/g16.b01/l914.exe)
 UHF ground state
 Ignoring spin specification with unrestricted ground state.
 Two-electron integrals replicated using symmetry.
 MDV=   104857600 DFT=T DoStab=F Mixed=T DoRPA=T DoScal=F NonHer=T
 NEqPCM:  Using non-equilibrium solvation (IEInf=1, Eps=  35.6880, EpsInf=   1.8069)
 Inv3:  Mode=1 IEnd=    18480972.
 Iteration    1 A*A^-1 deviation from unit magnitude is 3.11D-15 for   1405.
 Iteration    1 A*A^-1 deviation from orthogonality  is 1.74D-15 for   2281    604.
 Iteration    1 A^-1*A deviation from unit magnitude is 3.11D-15 for   2304.
 Iteration    1 A^-1*A deviation from orthogonality  is 2.22D-15 for   2304    892.
 Making orbital integer symmetry assigments:
 Orbital symmetries:
 Alpha Orbitals:
       Occupied  (A) (A) (A) (A) (A) (A) (A) (A) (A) (A) (A) (A)
                 (A) (A) (A) (A) (A) (A) (A) (A) (A) (A) (A) (A)
                 (A) (A) (A) (A) (A) (A) (A) (A) (A) (A) (A) (A)
                 (A) (A) (A) (A) (A) (A) (A) (A) (A) (A) (A) (A)
                 (A) (A) (A) (A) (A) (A) (A) (A) (A) (A) (A) (A)
                 (A) (A) (A) (A) (A)
       Virtual   (A) (A) (A) (A) (A) (A) (A) (A) (A) (A) (A) (A)
                 (A) (A) (A) (A) (A) (A) (A) (A) (A) (A) (A) (A)
                 (A) (A) (A) (A) (A) (A) (A) (A) (A) (A) (A) (A)
                 (A) (A) (A) (A) (A) (A) (A) (A) (A) (A) (A) (A)
                 (A) (A) (A) (A) (A) (A) (A) (A) (A) (A) (A) (A)
                 (A) (A) (A) (A) (A) (A) (A) (A) (A) (A) (A) (A)
                 (A) (A) (A) (A) (A) (A) (A) (A) (A) (A) (A) (A)
                 (A) (A) (A) (A) (A) (A) (A) (A) (A) (A) (A) (A)
                 (A) (A) (A) (A) (A) (A) (A) (A) (A) (A) (A) (A)
                 (A) (A) (A) (A) (A) (A) (A) (A) (A) (A) (A) (A)
                 (A) (A) (A) (A) (A) (A) (A) (A) (A) (A) (A) (A)
                 (A) (A) (A) (A) (A) (A) (A) (A) (A) (A) (A) (A)
                 (A) (A) (A) (A) (A) (A) (A) (A) (A) (A) (A) (A)
                 (A) (A) (A) (A) (A) (A) (A) (A) (A) (A) (A) (A)
                 (A) (A) (A) (A) (A) (A) (A) (A) (A) (A) (A) (A)
                 (A) (A) (A) (A) (A) (A) (A) (A) (A) (A) (A) (A)
                 (A) (A) (A) (A) (A) (A) (A) (A) (A) (A) (A) (A)
                 (A) (A) (A) (A) (A) (A) (A) (A) (A) (A) (A) (A)
                 (A) (A) (A) (A) (A) (A) (A) (A) (A) (A) (A) (A)
                 (A) (A) (A) (A) (A) (A) (A) (A) (A) (A) (A) (A)
                 (A) (A) (A) (A) (A) (A) (A) (A) (A) (A) (A) (A)
                 (A) (A) (A) (A) (A) (A) (A) (A) (A) (A) (A) (A)
                 (A) (A) (A) (A) (A) (A) (A) (A) (A) (A) (A) (A)
                 (A) (A) (A) (A) (A) (A) (A) (A) (A) (A) (A) (A)
                 (A) (A)
 Beta  Orbitals:
       Occupied  (A) (A) (A) (A) (A) (A) (A) (A) (A) (A) (A) (A)
                 (A) (A) (A) (A) (A) (A) (A) (A) (A) (A) (A) (A)
                 (A) (A) (A) (A) (A) (A) (A) (A) (A) (A) (A) (A)
                 (A) (A) (A) (A) (A) (A) (A) (A) (A) (A) (A) (A)
                 (A) (A) (A) (A) (A) (A) (A) (A) (A) (A) (A) (A)
                 (A) (A) (A) (A)
       Virtual   (A) (A) (A) (A) (A) (A) (A) (A) (A) (A) (A) (A)
                 (A) (A) (A) (A) (A) (A) (A) (A) (A) (A) (A) (A)
                 (A) (A) (A) (A) (A) (A) (A) (A) (A) (A) (A) (A)
                 (A) (A) (A) (A) (A) (A) (A) (A) (A) (A) (A) (A)
                 (A) (A) (A) (A) (A) (A) (A) (A) (A) (A) (A) (A)
                 (A) (A) (A) (A) (A) (A) (A) (A) (A) (A) (A) (A)
                 (A) (A) (A) (A) (A) (A) (A) (A) (A) (A) (A) (A)
                 (A) (A) (A) (A) (A) (A) (A) (A) (A) (A) (A) (A)
                 (A) (A) (A) (A) (A) (A) (A) (A) (A) (A) (A) (A)
                 (A) (A) (A) (A) (A) (A) (A) (A) (A) (A) (A) (A)
                 (A) (A) (A) (A) (A) (A) (A) (A) (A) (A) (A) (A)
                 (A) (A) (A) (A) (A) (A) (A) (A) (A) (A) (A) (A)
                 (A) (A) (A) (A) (A) (A) (A) (A) (A) (A) (A) (A)
                 (A) (A) (A) (A) (A) (A) (A) (A) (A) (A) (A) (A)
                 (A) (A) (A) (A) (A) (A) (A) (A) (A) (A) (A) (A)
                 (A) (A) (A) (A) (A) (A) (A) (A) (A) (A) (A) (A)
                 (A) (A) (A) (A) (A) (A) (A) (A) (A) (A) (A) (A)
                 (A) (A) (A) (A) (A) (A) (A) (A) (A) (A) (A) (A)
                 (A) (A) (A) (A) (A) (A) (A) (A) (A) (A) (A) (A)
                 (A) (A) (A) (A) (A) (A) (A) (A) (A) (A) (A) (A)
                 (A) (A) (A) (A) (A) (A) (A) (A) (A) (A) (A) (A)
                 (A) (A) (A) (A) (A) (A) (A) (A) (A) (A) (A) (A)
                 (A) (A) (A) (A) (A) (A) (A) (A) (A) (A) (A) (A)
                 (A) (A) (A) (A) (A) (A) (A) (A) (A) (A) (A) (A)
                 (A) (A) (A)
   144 initial guesses have been made.
 Convergence on wavefunction:    0.001000000000000
 Davidson Disk Diagonalization:  ConvIn= 1.00D-03 SkipCon=T Conv= 1.00D-03.
 Max sub-space:  2160 roots to seek:   144 dimension of matrix:        27016
 Iteration     1 Dimension   144 NMult     0 NNew    144
 CISAX will form     3 AO SS matrices at one time.
 NMat=     3 NSing=     3 JSym2X= 0.
 FoFJK:  IHMeth= 1 ICntrl=       0 DoSepK=F KAlg= 0 I1Cent=           0 FoldK=F
 IRaf= 830000000 NMat=       6 IRICut=       1 DoRegI=T DoRafI=F ISym2E= 0 IDoP0=0 IntGTp=1.
 NMat=     3 NSing=     3 JSym2X= 0.
 NMat=     3 NSing=     3 JSym2X= 0.
 NMat=     3 NSing=     3 JSym2X= 0.
 NMat=     3 NSing=     3 JSym2X= 0.
 NMat=     3 NSing=     3 JSym2X= 0.
 NMat=     3 NSing=     3 JSym2X= 0.
 NMat=     3 NSing=     3 JSym2X= 0.
 NMat=     3 NSing=     3 JSym2X= 0.
 NMat=     3 NSing=     3 JSym2X= 0.
 NMat=     3 NSing=     3 JSym2X= 0.
 NMat=     3 NSing=     3 JSym2X= 0.
 NMat=     3 NSing=     3 JSym2X= 0.
 NMat=     3 NSing=     3 JSym2X= 0.
 NMat=     3 NSing=     3 JSym2X= 0.
 NMat=     3 NSing=     3 JSym2X= 0.
 NMat=     3 NSing=     3 JSym2X= 0.
 NMat=     3 NSing=     3 JSym2X= 0.
 NMat=     3 NSing=     3 JSym2X= 0.
 NMat=     3 NSing=     3 JSym2X= 0.
 NMat=     3 NSing=     3 JSym2X= 0.
 NMat=     3 NSing=     3 JSym2X= 0.
 NMat=     3 NSing=     3 JSym2X= 0.
 NMat=     3 NSing=     3 JSym2X= 0.
 NMat=     3 NSing=     3 JSym2X= 0.
 NMat=     3 NSing=     3 JSym2X= 0.
 NMat=     3 NSing=     3 JSym2X= 0.
 NMat=     3 NSing=     3 JSym2X= 0.
 NMat=     3 NSing=     3 JSym2X= 0.
 NMat=     3 NSing=     3 JSym2X= 0.
 NMat=     3 NSing=     3 JSym2X= 0.
 NMat=     3 NSing=     3 JSym2X= 0.
 NMat=     3 NSing=     3 JSym2X= 0.
 NMat=     3 NSing=     3 JSym2X= 0.
 NMat=     3 NSing=     3 JSym2X= 0.
 NMat=     3 NSing=     3 JSym2X= 0.
 NMat=     3 NSing=     3 JSym2X= 0.
 NMat=     3 NSing=     3 JSym2X= 0.
 NMat=     3 NSing=     3 JSym2X= 0.
 NMat=     3 NSing=     3 JSym2X= 0.
 NMat=     3 NSing=     3 JSym2X= 0.
 NMat=     3 NSing=     3 JSym2X= 0.
 NMat=     3 NSing=     3 JSym2X= 0.
 NMat=     3 NSing=     3 JSym2X= 0.
 NMat=     3 NSing=     3 JSym2X= 0.
 NMat=     3 NSing=     3 JSym2X= 0.
 NMat=     3 NSing=     3 JSym2X= 0.
 NMat=     3 NSing=     3 JSym2X= 0.
 New state      2 was old state      3
 New state      3 was old state      2
 New state      4 was old state      7
 New state      6 was old state     10
 New state      7 was old state     12
 New state      8 was old state      4
 New state      9 was old state     11
 New state     10 was old state      9
 New state     11 was old state     15
 New state     12 was old state     13
 New state     13 was old state     33
 New state     14 was old state     29
 New state     15 was old state     16
 New state     16 was old state     17
 New state     17 was old state     14
 New state     21 was old state     26
 New state     23 was old state     34
 New state     24 was old state     47
 New state     26 was old state     27
 New state     27 was old state     64
 New state     28 was old state     21
 New state     29 was old state     28
 New state     30 was old state     32
 New state     31 was old state     23
 New state     32 was old state     24
 New state     33 was old state     39
 New state     34 was old state     30
 New state     35 was old state     80
 New state     36 was old state     51
 Excitation Energies [eV] at current iteration:
 Root      1 :     1.948563636329137
 Root      2 :     3.069761970982673
 Root      3 :     3.259837415909646
 Root      4 :     3.401583371217151
 Root      5 :     3.518812841202921
 Root      6 :     3.632353627439986
 Root      7 :     3.858654914780461
 Root      8 :     3.881053794375431
 Root      9 :     4.012715229339687
 Root     10 :     4.373000941220505
 Root     11 :     4.511278301737938
 Root     12 :     4.580251346619528
 Root     13 :     4.591594834717753
 Root     14 :     4.614127112289408
 Root     15 :     4.654395220774274
 Root     16 :     4.686028548842065
 Root     17 :     4.734514912974463
 Root     18 :     4.773666540728240
 Root     19 :     4.961856865441358
 Root     20 :     5.040608145669236
 Root     21 :     5.201868952696195
 Root     22 :     5.438164100429108
 Root     23 :     5.527803814154036
 Root     24 :     5.550623851217372
 Root     25 :     5.623695081652524
 Root     26 :     5.697348829365885
 Root     27 :     5.850304590414504
 Root     28 :     5.863220184817536
 Root     29 :     5.896351472014459
 Root     30 :     5.928362536838034
 Root     31 :     6.044975620031795
 Root     32 :     6.067774375303405
 Root     33 :     6.091260110252797
 Root     34 :     6.152180169353641
 Root     35 :     6.224906809602023
 Root     36 :     6.245793995040801
 Root     37 :     6.277281758658819
 Root     38 :     6.363072697314430
 Root     39 :     6.396574430460289
 Root     40 :     6.408211058963174
 Root     41 :     6.437067303901392
 Root     42 :     6.453800211130121
 Root     43 :     6.469350306154649
 Root     44 :     6.487887483639746
 Root     45 :     6.513835117970041
 Root     46 :     6.535164629063022
 Root     47 :     6.558209511483014
 Root     48 :     6.560946174403994
 Root     49 :     6.575481176222259
 Root     50 :     6.599502097926242
 Root     51 :     6.612279562635155
 Root     52 :     6.631045600611402
 Root     53 :     6.667522023149718
 Root     54 :     6.696780477608968
 Root     55 :     6.712790587202899
 Root     56 :     6.764873784182262
 Root     57 :     6.822931294506866
 Root     58 :     6.839794176468264
 Root     59 :     6.918670224099739
 Root     60 :     6.921385081030473
 Root     61 :     6.954259372748793
 Root     62 :     6.965939927985446
 Root     63 :     6.999078382105727
 Root     64 :     7.084555549711906
 Root     65 :     7.108234946760021
 Root     66 :     7.140954608121462
 Root     67 :     7.193493076622772
 Root     68 :     7.207582385231393
 Root     69 :     7.210375040761790
 Root     70 :     7.220316199556918
 Root     71 :     7.268748202365337
 Root     72 :     7.276260024921962
 Root     73 :     7.298368474599141
 Root     74 :     7.321586119727446
 Root     75 :     7.356767043255645
 Root     76 :     7.369397958645995
 Root     77 :     7.445977557281179
 Root     78 :     7.468263561136911
 Root     79 :     7.518142454710773
 Root     80 :     7.530005372647512
 Root     81 :     7.580188060999737
 Root     82 :     7.586904336545710
 Root     83 :     7.609527578748013
 Root     84 :     7.624772495283402
 Root     85 :     7.643418244570582
 Root     86 :     7.651983096561057
 Root     87 :     7.660096214270566
 Root     88 :     7.701015912917322
 Root     89 :     7.715860553944724
 Root     90 :     7.729637412459457
 Root     91 :     7.738330602223822
 Root     92 :     7.807553371688966
 Root     93 :     7.831354824250246
 Root     94 :     7.844443668418851
 Root     95 :     7.850386307620771
 Root     96 :     7.855604625814687
 Root     97 :     7.897991705279354
 Root     98 :     7.910091385962724
 Root     99 :     7.965194980452520
 Root    100 :     7.967335076749667
 Root    101 :     8.021324445571747
 Root    102 :     8.032645888316038
 Root    103 :     8.062814188326699
 Root    104 :     8.096071941947031
 Root    105 :     8.108636687296407
 Root    106 :     8.133637087583789
 Root    107 :     8.156669553303679
 Root    108 :     8.179621823794182
 Root    109 :     8.200948211890573
 Root    110 :     8.239332325168943
 Root    111 :     8.243770565253209
 Root    112 :     8.274204671122426
 Root    113 :     8.284947320948923
 Root    114 :     8.300685974358066
 Root    115 :     8.325130888497631
 Root    116 :     8.337750020823046
 Root    117 :     8.364210863514961
 Root    118 :     8.367928587898614
 Root    119 :     8.382128327534133
 Root    120 :     8.397633213151231
 Root    121 :     8.400919016360524
 Root    122 :     8.412634633718360
 Root    123 :     8.445298466067886
 Root    124 :     8.460887919039193
 Root    125 :     8.466283690303767
 Root    126 :     8.495243587391908
 Root    127 :     8.519361039275630
 Root    128 :     8.544049065985616
 Root    129 :     8.570572431849115
 Root    130 :     8.590102185211935
 Root    131 :     8.603299390091586
 Root    132 :     8.621391428485580
 Root    133 :     8.710685468322724
 Root    134 :     8.736711823503251
 Root    135 :     8.747151320759221
 Root    136 :     8.774043133833342
 Root    137 :     8.795061876219284
 Root    138 :     8.803278798155000
 Root    139 :     8.843316339450816
 Root    140 :     8.870510220549503
 Root    141 :     9.033448190173003
 Root    142 :     9.063340402535852
 Root    143 :     9.397806183218250
 Root    144 :     9.549615813865476
 Iteration     2 Dimension   216 NMult   144 NNew     72
 CISAX will form     3 AO SS matrices at one time.
 NMat=     3 NSing=     3 JSym2X= 0.
 NMat=     3 NSing=     3 JSym2X= 0.
 NMat=     3 NSing=     3 JSym2X= 0.
 NMat=     3 NSing=     3 JSym2X= 0.
 NMat=     3 NSing=     3 JSym2X= 0.
 NMat=     3 NSing=     3 JSym2X= 0.
 NMat=     3 NSing=     3 JSym2X= 0.
 NMat=     3 NSing=     3 JSym2X= 0.
 NMat=     3 NSing=     3 JSym2X= 0.
 NMat=     3 NSing=     3 JSym2X= 0.
 NMat=     3 NSing=     3 JSym2X= 0.
 NMat=     3 NSing=     3 JSym2X= 0.
 NMat=     3 NSing=     3 JSym2X= 0.
 NMat=     3 NSing=     3 JSym2X= 0.
 NMat=     3 NSing=     3 JSym2X= 0.
 NMat=     3 NSing=     3 JSym2X= 0.
 NMat=     3 NSing=     3 JSym2X= 0.
 NMat=     3 NSing=     3 JSym2X= 0.
 NMat=     3 NSing=     3 JSym2X= 0.
 NMat=     3 NSing=     3 JSym2X= 0.
 NMat=     3 NSing=     3 JSym2X= 0.
 NMat=     3 NSing=     3 JSym2X= 0.
 NMat=     3 NSing=     3 JSym2X= 0.
 NMat=     3 NSing=     3 JSym2X= 0.
 Root      1 not converged, maximum delta is    0.022032966184628
 Root      2 not converged, maximum delta is    0.048330339463619
 Root      3 not converged, maximum delta is    0.141685770951862
 Root      4 not converged, maximum delta is    0.226131663621832
 Root      5 not converged, maximum delta is    0.246595731069655
 Root      6 not converged, maximum delta is    0.401044992219667
 New state      7 was old state      8
 Root      7 not converged, maximum delta is    0.363101979996386
 New state      8 was old state      7
 Root      8 not converged, maximum delta is    0.474165287969186
 Root      9 not converged, maximum delta is    0.272109654229987
 Root     10 not converged, maximum delta is    0.500379672575605
 New state     11 was old state     14
 Root     11 not converged, maximum delta is    0.396872031875640
 New state     12 was old state     11
 Root     12 not converged, maximum delta is    0.442318389526493
 Root     13 not converged, maximum delta is    0.372983279753777
 New state     14 was old state     12
 Root     14 not converged, maximum delta is    0.349780824308380
 Root     15 not converged, maximum delta is    0.479469280746881
 Root     16 not converged, maximum delta is    0.262388315669218
 Root     17 not converged, maximum delta is    0.286173782971671
 Root     18 not converged, maximum delta is    0.210664730005295
 Root     19 not converged, maximum delta is    0.398635224872149
 Root     20 not converged, maximum delta is    0.632301419591190
 New state     21 was old state     22
 Root     21 not converged, maximum delta is    0.503280938100831
 New state     22 was old state     21
 Root     22 not converged, maximum delta is    0.085033180293779
 New state     23 was old state     26
 Root     23 not converged, maximum delta is    0.289989508145704
 New state     24 was old state     27
 Root     24 not converged, maximum delta is    0.249067346487697
 New state     25 was old state     23
 Root     25 not converged, maximum delta is    0.296335643760727
 New state     26 was old state     25
 Root     26 not converged, maximum delta is    0.454946096789720
 New state     27 was old state     24
 Root     27 not converged, maximum delta is    0.662301292936319
 Root     28 not converged, maximum delta is    0.112347236376215
 Root     29 not converged, maximum delta is    0.064858299880193
 Root     30 not converged, maximum delta is    0.093024866593809
 New state     31 was old state     33
 Root     31 not converged, maximum delta is    0.139650815603899
 New state     32 was old state     31
 Root     32 not converged, maximum delta is    0.135836052830366
 New state     33 was old state     32
 Root     33 not converged, maximum delta is    0.050577592354287
 New state     34 was old state     35
 Root     34 not converged, maximum delta is    0.218120574982236
 New state     35 was old state     34
 Root     35 not converged, maximum delta is    0.042568961343858
 Root     36 not converged, maximum delta is    0.179929775999506
 Excitation Energies [eV] at current iteration:
 Root      1 :     1.858650636180810   Change is   -0.089913000148327
 Root      2 :     2.979858512386459   Change is   -0.089903458596214
 Root      3 :     3.235384018625935   Change is   -0.024453397283711
 Root      4 :     3.272162961569199   Change is   -0.129420409647951
 Root      5 :     3.377734242149149   Change is   -0.141078599053772
 Root      6 :     3.405348260971422   Change is   -0.227005366468563
 Root      7 :     3.785932042779863   Change is   -0.095121751595568
 Root      8 :     3.815947624747052   Change is   -0.042707290033409
 Root      9 :     3.903702055044553   Change is   -0.109013174295134
 Root     10 :     4.285883569524185   Change is   -0.087117371696320
 Root     11 :     4.370255352904174   Change is   -0.243871759385234
 Root     12 :     4.406390534529512   Change is   -0.104887767208425
 Root     13 :     4.447633304232564   Change is   -0.143961530485189
 Root     14 :     4.510656967365122   Change is   -0.069594379254406
 Root     15 :     4.572562800523364   Change is   -0.081832420250912
 Root     16 :     4.647905802294437   Change is   -0.038122746547628
 Root     17 :     4.693772006441145   Change is   -0.040742906533319
 Root     18 :     4.735822191771547   Change is   -0.037844348956694
 Root     19 :     4.892492663867610   Change is   -0.069364201573748
 Root     20 :     4.962046837356370   Change is   -0.078561308312865
 Root     21 :     5.058611934092902   Change is   -0.379552166336207
 Root     22 :     5.159306796864492   Change is   -0.042562155831703
 Root     23 :     5.269446562969565   Change is   -0.427902266396321
 Root     24 :     5.421142438840088   Change is   -0.429162151574417
 Root     25 :     5.457766752363550   Change is   -0.070037061790487
 Root     26 :     5.485476270222496   Change is   -0.138218811430027
 Root     27 :     5.489722586715168   Change is   -0.060901264502203
 Root     28 :     5.851799219777296   Change is   -0.011420965040240
 Root     29 :     5.877837024363953   Change is   -0.018514447650506
 Root     30 :     5.908943456910414   Change is   -0.019419079927620
 Root     31 :     5.970544424280718   Change is   -0.120715685972080
 Root     32 :     6.010137139001885   Change is   -0.034838481029910
 Root     33 :     6.053599869929859   Change is   -0.014174505373546
 Root     34 :     6.087464692703247   Change is   -0.137442116898775
 Root     35 :     6.139554803285328   Change is   -0.012625366068313
 Root     36 :     6.178589011795345   Change is   -0.067204983245456
 Iteration     3 Dimension   288 NMult   216 NNew     72
 CISAX will form     3 AO SS matrices at one time.
 NMat=     3 NSing=     3 JSym2X= 0.
 NMat=     3 NSing=     3 JSym2X= 0.
 NMat=     3 NSing=     3 JSym2X= 0.
 NMat=     3 NSing=     3 JSym2X= 0.
 NMat=     3 NSing=     3 JSym2X= 0.
 NMat=     3 NSing=     3 JSym2X= 0.
 NMat=     3 NSing=     3 JSym2X= 0.
 NMat=     3 NSing=     3 JSym2X= 0.
 NMat=     3 NSing=     3 JSym2X= 0.
 NMat=     3 NSing=     3 JSym2X= 0.
 NMat=     3 NSing=     3 JSym2X= 0.
 NMat=     3 NSing=     3 JSym2X= 0.
 NMat=     3 NSing=     3 JSym2X= 0.
 NMat=     3 NSing=     3 JSym2X= 0.
 NMat=     3 NSing=     3 JSym2X= 0.
 NMat=     3 NSing=     3 JSym2X= 0.
 NMat=     3 NSing=     3 JSym2X= 0.
 NMat=     3 NSing=     3 JSym2X= 0.
 NMat=     3 NSing=     3 JSym2X= 0.
 NMat=     3 NSing=     3 JSym2X= 0.
 NMat=     3 NSing=     3 JSym2X= 0.
 NMat=     3 NSing=     3 JSym2X= 0.
 NMat=     3 NSing=     3 JSym2X= 0.
 NMat=     3 NSing=     3 JSym2X= 0.
 Root      1 not converged, maximum delta is    0.002958352513011
 Root      2 not converged, maximum delta is    0.004968270723503
 Root      3 not converged, maximum delta is    0.013204888030372
 Root      4 not converged, maximum delta is    0.011636299781121
 Root      5 not converged, maximum delta is    0.021703519329104
 Root      6 not converged, maximum delta is    0.021082191826995
 Root      7 not converged, maximum delta is    0.013610486921467
 Root      8 not converged, maximum delta is    0.013262205201180
 Root      9 not converged, maximum delta is    0.015447776164859
 Root     10 not converged, maximum delta is    0.030019558596852
 Root     11 not converged, maximum delta is    0.017568004959086
 Root     12 not converged, maximum delta is    0.019556069360799
 Root     13 not converged, maximum delta is    0.012053745034608
 Root     14 not converged, maximum delta is    0.026530208892652
 Root     15 not converged, maximum delta is    0.018033301299700
 Root     16 not converged, maximum delta is    0.008476030606012
 Root     17 not converged, maximum delta is    0.005158883587830
 Root     18 not converged, maximum delta is    0.007959849462715
 Root     19 not converged, maximum delta is    0.034223470736024
 Root     20 not converged, maximum delta is    0.019342150806647
 Root     21 not converged, maximum delta is    0.025784570223143
 Root     22 not converged, maximum delta is    0.014380945911175
 Root     23 not converged, maximum delta is    0.010208064924881
 Root     24 not converged, maximum delta is    0.094635371742078
 Root     25 not converged, maximum delta is    0.046086196376301
 Root     26 not converged, maximum delta is    0.257960075490782
 Root     27 not converged, maximum delta is    0.314801354514851
 Root     28 not converged, maximum delta is    0.003491382039097
 Root     29 not converged, maximum delta is    0.003015916973506
 Root     30 not converged, maximum delta is    0.012356787956597
 Root     31 not converged, maximum delta is    0.011422594384804
 Root     32 not converged, maximum delta is    0.027687997689558
 Root     33 not converged, maximum delta is    0.008228853087201
 Root     34 not converged, maximum delta is    0.018903178175714
 Root     35 not converged, maximum delta is    0.014768124073455
 Root     36 not converged, maximum delta is    0.023149763959589
 Excitation Energies [eV] at current iteration:
 Root      1 :     1.855601474228917   Change is   -0.003049161951893
 Root      2 :     2.974284201495121   Change is   -0.005574310891339
 Root      3 :     3.233387019516154   Change is   -0.001996999109782
 Root      4 :     3.267865103491348   Change is   -0.004297858077851
 Root      5 :     3.373298442144845   Change is   -0.004435800004304
 Root      6 :     3.399816505238870   Change is   -0.005531755732553
 Root      7 :     3.782075762541469   Change is   -0.003856280238393
 Root      8 :     3.814161418242915   Change is   -0.001786206504137
 Root      9 :     3.899922327165700   Change is   -0.003779727878853
 Root     10 :     4.278505297829724   Change is   -0.007378271694461
 Root     11 :     4.365178258015249   Change is   -0.005077094888925
 Root     12 :     4.403244885597331   Change is   -0.003145648932180
 Root     13 :     4.443313142752507   Change is   -0.004320161480057
 Root     14 :     4.504950700677013   Change is   -0.005706266688109
 Root     15 :     4.570592202292292   Change is   -0.001970598231071
 Root     16 :     4.646275190413619   Change is   -0.001630611880818
 Root     17 :     4.692592374947756   Change is   -0.001179631493388
 Root     18 :     4.734347883111043   Change is   -0.001474308660503
 Root     19 :     4.883905822186948   Change is   -0.008586841680661
 Root     20 :     4.959896812864055   Change is   -0.002150024492316
 Root     21 :     5.048534664445929   Change is   -0.010077269646973
 Root     22 :     5.157535119225359   Change is   -0.001771677639133
 Root     23 :     5.259233995307941   Change is   -0.010212567661624
 Root     24 :     5.393644840138454   Change is   -0.027497598701634
 Root     25 :     5.451331519251636   Change is   -0.006435233111914
 Root     26 :     5.475538897352162   Change is   -0.009937372870334
 Root     27 :     5.484930941670321   Change is   -0.004791645044847
 Root     28 :     5.851295218514419   Change is   -0.000504001262877
 Root     29 :     5.877066207489160   Change is   -0.000770816874793
 Root     30 :     5.907862900351740   Change is   -0.001080556558674
 Root     31 :     5.961180102612337   Change is   -0.009364321668381
 Root     32 :     6.005942746900229   Change is   -0.004194392101656
 Root     33 :     6.051860931053685   Change is   -0.001738938876174
 Root     34 :     6.076569629633383   Change is   -0.010895063069864
 Root     35 :     6.138179820468626   Change is   -0.001374982816703
 Root     36 :     6.174078461491720   Change is   -0.004510550303624
 Iteration     4 Dimension   360 NMult   288 NNew     72
 CISAX will form     3 AO SS matrices at one time.
 NMat=     3 NSing=     3 JSym2X= 0.
 NMat=     3 NSing=     3 JSym2X= 0.
 NMat=     3 NSing=     3 JSym2X= 0.
 NMat=     3 NSing=     3 JSym2X= 0.
 NMat=     3 NSing=     3 JSym2X= 0.
 NMat=     3 NSing=     3 JSym2X= 0.
 NMat=     3 NSing=     3 JSym2X= 0.
 NMat=     3 NSing=     3 JSym2X= 0.
 NMat=     3 NSing=     3 JSym2X= 0.
 NMat=     3 NSing=     3 JSym2X= 0.
 NMat=     3 NSing=     3 JSym2X= 0.
 NMat=     3 NSing=     3 JSym2X= 0.
 NMat=     3 NSing=     3 JSym2X= 0.
 NMat=     3 NSing=     3 JSym2X= 0.
 NMat=     3 NSing=     3 JSym2X= 0.
 NMat=     3 NSing=     3 JSym2X= 0.
 NMat=     3 NSing=     3 JSym2X= 0.
 NMat=     3 NSing=     3 JSym2X= 0.
 NMat=     3 NSing=     3 JSym2X= 0.
 NMat=     3 NSing=     3 JSym2X= 0.
 NMat=     3 NSing=     3 JSym2X= 0.
 NMat=     3 NSing=     3 JSym2X= 0.
 NMat=     3 NSing=     3 JSym2X= 0.
 NMat=     3 NSing=     3 JSym2X= 0.
 Root      1 has converged.
 Root      2 has converged.
 Root      3 has converged.
 Root      4 not converged, maximum delta is    0.001004707915740
 Root      5 not converged, maximum delta is    0.002003432522121
 Root      6 not converged, maximum delta is    0.002352455795556
 Root      7 has converged.
 Root      8 has converged.
 Root      9 has converged.
 Root     10 not converged, maximum delta is    0.001283541906019
 Root     11 has converged.
 Root     12 has converged.
 Root     13 has converged.
 Root     14 has converged.
 Root     15 has converged.
 Root     16 has converged.
 Root     17 has converged.
 Root     18 has converged.
 Root     19 not converged, maximum delta is    0.001403592470814
 Root     20 has converged.
 Root     21 not converged, maximum delta is    0.001067273257568
 Root     22 has converged.
 Root     23 has converged.
 Root     24 not converged, maximum delta is    0.003042986897249
 Root     25 not converged, maximum delta is    0.004601711967527
[...]
     7  H    0.000000   0.000000  -0.000000   0.000000  -0.000000  -0.000000
     8  C    0.000349   0.000010  -0.000019  -0.000017   0.000074  -0.000001
     9  H    0.000231   0.000001   0.000000   0.000014   0.000040  -0.000001
    10  H    0.000213   0.000000   0.000001   0.000001  -0.000005  -0.000000
    11  H    0.000320  -0.000000  -0.000001   0.000002  -0.000001  -0.000001
    12  C   -0.000609  -0.000002  -0.000001  -0.000012  -0.000002   0.000015
    13  C    0.000163  -0.000000   0.000000   0.000001  -0.000001  -0.000001
    14  C    0.001584   0.000034   0.000001   0.000055   0.000006  -0.000117
    15  C   -0.000004   0.000000  -0.000000  -0.000000  -0.000000   0.000000
    16  H    0.000001  -0.000000   0.000000   0.000000   0.000000  -0.000000
    17  C    0.000190   0.000000   0.000000  -0.000012  -0.000002  -0.000018
    18  H    0.000060  -0.000073   0.000001  -0.000012   0.000000  -0.000017
    19  C   -0.000208  -0.000000  -0.000000  -0.000005   0.000001   0.000003
    20  H   -0.000000   0.000000  -0.000000  -0.000000   0.000000   0.000000
    21  H   -0.000012   0.000000  -0.000000  -0.000027   0.000000   0.000004
    22  H    0.000001  -0.000000   0.000000   0.000000  -0.000000  -0.000000
    23  C   -0.017625   0.000340   0.001049   0.000518   0.000612   0.001521
    24  C    0.007743   0.003846   0.000681   0.001119  -0.000013  -0.011779
    25  C    0.247869   0.000789   0.000028   0.007624   0.001163  -0.011247
    26  C    0.000789  -0.122370   0.000510  -0.000177  -0.000016  -0.003695
    27  H    0.000028   0.000510  -0.012211  -0.000018   0.000002   0.000007
    28  C    0.007624  -0.000177  -0.000018  -0.119855   0.000315  -0.008374
    29  H    0.001163  -0.000016   0.000002   0.000315  -0.011847   0.000019
    30  C   -0.011247  -0.003695   0.000007  -0.008374   0.000019   0.288127
    31  H   -0.000004   0.000482   0.000047  -0.000000  -0.000000  -0.000574
    32  H   -0.000538  -0.000002  -0.000000   0.000532   0.000036  -0.000524
    33  H    0.000007   0.000100   0.000003   0.000105   0.000003   0.001508
    34  O    0.000327  -0.000002   0.000135   0.000002  -0.000000  -0.000004
    35  H    0.000033   0.000001   0.000012  -0.000000   0.000000  -0.000000
              31         32         33         34         35
     1  C   -0.000000  -0.000000  -0.000000  -0.002126  -0.000891
     2  C   -0.000004  -0.000003   0.000000  -0.080872  -0.008451
     3  O    0.000000   0.000000   0.000000   0.000959   0.001255
     4  C   -0.000000  -0.000000  -0.000000  -0.000246  -0.000036
     5  H    0.000000  -0.000000   0.000000  -0.000003   0.000003
     6  H    0.000001   0.000000   0.000000   0.000927   0.000235
     7  H    0.000000   0.000000   0.000000   0.000037   0.000031
     8  C    0.000000   0.000000  -0.000000   0.000764   0.000392
     9  H   -0.000000   0.000000   0.000000  -0.000004   0.000079
    10  H    0.000000   0.000000   0.000000  -0.000121   0.003215
    11  H   -0.000000  -0.000000  -0.000000   0.002660  -0.001359
    12  C   -0.000000  -0.000000  -0.000000  -0.000055  -0.000036
    13  C    0.000000   0.000000   0.000000   0.000015   0.000025
    14  C    0.000000   0.000000   0.000000   0.000036   0.000014
    15  C    0.000000   0.000000  -0.000000  -0.000000  -0.000000
    16  H    0.000000   0.000000   0.000000   0.000001   0.000004
    17  C    0.000000  -0.000000   0.000000   0.000000   0.000000
    18  H    0.000000   0.000000   0.000000   0.000003   0.000000
    19  C   -0.000000  -0.000000  -0.000000  -0.000000  -0.000000
    20  H   -0.000000  -0.000000  -0.000000  -0.000000  -0.000000
    21  H   -0.000000   0.000000  -0.000000  -0.000000  -0.000000
    22  H    0.000000   0.000000   0.000000   0.000000   0.000000
    23  C    0.000001  -0.000016  -0.000034  -0.001758  -0.000355
    24  C   -0.000534  -0.000007   0.000013   0.002439   0.000125
    25  C   -0.000004  -0.000538   0.000007   0.000327   0.000033
    26  C    0.000482  -0.000002   0.000100  -0.000002   0.000001
    27  H    0.000047  -0.000000   0.000003   0.000135   0.000012
    28  C   -0.000000   0.000532   0.000105   0.000002  -0.000000
    29  H   -0.000000   0.000036   0.000003  -0.000000   0.000000
    30  C   -0.000574  -0.000524   0.001508  -0.000004  -0.000000
    31  H    0.004816  -0.000000   0.000075   0.000000   0.000000
    32  H   -0.000000   0.004653   0.000077   0.000000   0.000000
    33  H    0.000075   0.000077  -0.013702  -0.000000   0.000000
    34  O    0.000000   0.000000  -0.000000   0.147442  -0.001135
    35  H    0.000000   0.000000   0.000000  -0.001135   0.013365
 Mulliken charges and spin densities:
               1          2
     1  C    0.396901   0.012294
     2  C    0.245518   0.597842
     3  O   -0.530295   0.007080
     4  C   -0.398726  -0.000539
     5  H    0.141023  -0.000167
     6  H    0.151472   0.002081
     7  H    0.128600   0.000028
     8  C   -0.379715  -0.051490
     9  H    0.130459   0.002362
    10  H    0.130563   0.021847
    11  H    0.133008   0.033612
    12  C    0.057328  -0.006735
    13  C   -0.110624   0.014973
    14  C   -0.112222   0.010287
    15  C   -0.101770  -0.007304
    16  H    0.111863  -0.000697
    17  C   -0.103874  -0.007228
    18  H    0.111570  -0.000475
    19  C   -0.088672   0.016294
    20  H    0.109302   0.000253
    21  H    0.109853   0.000252
    22  H    0.111230  -0.000737
    23  C    0.096968  -0.161049
    24  C   -0.143673   0.227882
    25  C   -0.138269   0.220125
    26  C   -0.102625  -0.120358
    27  H    0.102406  -0.010077
    28  C   -0.108716  -0.118417
    29  H    0.093065  -0.009645
    30  C   -0.112525   0.255093
    31  H    0.095934   0.004305
    32  H    0.096150   0.004206
    33  H    0.093749  -0.011846
    34  O   -0.554314   0.069421
    35  H    0.339058   0.006526
 Sum of Mulliken charges =  -0.00000   1.00000
 Mulliken charges and spin densities with hydrogens summed into heavy atoms:
               1          2
     1  C    0.396901   0.012294
     2  C    0.245518   0.597842
     3  O   -0.530295   0.007080
     4  C    0.022369   0.001403
     8  C    0.014315   0.006331
    12  C    0.057328  -0.006735
    13  C    0.001239   0.014276
    14  C   -0.000652   0.009811
    15  C    0.007532  -0.007051
    17  C    0.005979  -0.006976
    19  C    0.022558   0.015557
    23  C    0.096968  -0.161049
    24  C   -0.041267   0.217805
    25  C   -0.045204   0.210480
    26  C   -0.006691  -0.116053
    28  C   -0.012566  -0.114211
    30  C   -0.018776   0.243247
    34  O   -0.215256   0.075948
 Electronic spatial extent (au):  <R**2>=           4113.2074
 Charge=             -0.0000 electrons
 Dipole moment (field-independent basis, Debye):
    X=             -1.1752    Y=              2.9798    Z=             -0.3474  Tot=              3.2220
 Quadrupole moment (field-independent basis, Debye-Ang):
   XX=           -108.7263   YY=           -101.8835   ZZ=            -97.5765
   XY=             -2.6660   XZ=             -7.2971   YZ=              1.1930
 Traceless Quadrupole moment (field-independent basis, Debye-Ang):
   XX=             -5.9975   YY=              0.8452   ZZ=              5.1523
   XY=             -2.6660   XZ=             -7.2971   YZ=              1.1930
 Octapole moment (field-independent basis, Debye-Ang**2):
  XXX=            -15.1908  YYY=             18.7179  ZZZ=             -0.7455  XYY=              0.7992
  XXY=             18.3016  XXZ=             -2.5925  XZZ=             -5.6555  YZZ=            -13.9777
  YYZ=              4.4689  XYZ=             -3.0770
 Hexadecapole moment (field-independent basis, Debye-Ang**3):
 XXXX=          -2817.6854 YYYY=          -1675.1564 ZZZZ=           -906.0016 XXXY=             -7.1641
 XXXZ=           -130.5980 YYYX=            -21.6848 YYYZ=             -2.8130 ZZZX=             -5.6162
 ZZZY=             -0.8442 XXYY=           -762.6969 XXZZ=           -610.9440 YYZZ=           -431.6529
 XXYZ=             17.2632 YYXZ=            -28.2786 ZZXY=              6.8210
 N-N= 1.297632180838D+03 E-N=-4.385401561177D+03  KE= 7.630834522695D+02
 Leave Link  601 at Sat May 25 04:45:28 2019, MaxMem=   104857600 cpu:               3.4 elap:               0.2
 (Enter /opt/software/gaussian/g16.b01/l9999.exe)
 Electronic transition elements 
                 1             2             3             4             5 
      1  -0.770363D+03 -0.770322D+03 -0.770312D+03 -0.770311D+03 -0.770307D+03
      2  -0.103309D+01 -0.570130D-01  0.442943D-01 -0.114544D+00 -0.395437D-01
      3   0.725854D-01  0.114079D+00 -0.104781D+00  0.591172D-01  0.589005D-01
      4  -0.355440D+00  0.121203D+00  0.552884D-01 -0.120679D-01 -0.585553D-01
      5   0.679589D-01  0.602776D-02 -0.271216D-02  0.133199D-01  0.373792D-02
      6  -0.477036D-02 -0.177245D-01  0.123273D-01 -0.726047D-02 -0.901950D-02
      7   0.236873D-01 -0.137847D-01 -0.688939D-02  0.140002D-02  0.691880D-02
      8  -0.910797D-01 -0.433984D+00  0.150267D+00 -0.574324D-01 -0.293845D-01
      9   0.574607D-01  0.197412D+00 -0.520411D-01  0.105350D+00 -0.951024D-01
     10   0.266672D+00 -0.472110D+00  0.143632D+00 -0.188597D-01  0.139999D+00
     11   0.441978D-01  0.786112D-01  0.101370D+00 -0.340282D-02  0.130936D-01
     12  -0.469978D-01 -0.106628D-01 -0.690259D-02 -0.161495D-01 -0.290539D-01
     13   0.170771D-01 -0.118546D-01 -0.679321D-01  0.156871D-01  0.252787D-01
     14   0.709564D-01 -0.699939D-01  0.277052D-01  0.471403D-01  0.437481D-01
     15  -0.119401D-01 -0.627032D-01 -0.955154D-02 -0.201984D-02 -0.163104D-01
     16  -0.592873D-01 -0.218236D-01  0.445062D-01 -0.111047D-01 -0.214281D-01
                 6             7             8             9            10 
      1  -0.770306D+03 -0.770292D+03 -0.770291D+03 -0.770288D+03 -0.770274D+03
      2  -0.105284D+00  0.136794D+00 -0.546168D-02 -0.101093D+00 -0.703004D+00
      3  -0.488192D-01 -0.224736D+00 -0.152754D-01  0.104187D+00 -0.395173D+00
      4   0.360352D-01 -0.229181D+00 -0.190759D-01  0.191220D+00  0.310580D+00
      5   0.126264D-01 -0.209378D-01  0.263401D-02  0.146817D-01  0.107011D+00
      6   0.802915D-02  0.341692D-01  0.353733D-02 -0.181981D-01  0.580672D-01
      7  -0.474940D-02  0.348967D-01  0.458292D-02 -0.292710D-01 -0.459351D-01
      8  -0.358667D-01  0.331582D+00  0.256557D+00 -0.270551D+00 -0.258217D+00
      9  -0.481331D-01 -0.483198D+00  0.592103D+00  0.233096D+00  0.398945D+00
     10   0.823886D-01  0.837251D+00 -0.166587D+00 -0.316831D+00  0.816115D+00
     11   0.111669D-01 -0.546321D-01 -0.571315D-01  0.211719D+00  0.684401D+00
     12   0.110534D-01  0.183112D-01  0.337982D-02 -0.500047D-01 -0.171251D+00
     13  -0.203816D-01 -0.223878D-02  0.340576D-01 -0.569032D-01 -0.170865D+00
     14   0.142493D-01  0.144933D+00  0.115690D+00 -0.105202D+00  0.474675D+00
     15   0.153553D-01  0.895616D-01  0.506934D-01 -0.119978D+00 -0.115552D+00
     16   0.205079D-01  0.614234D-01  0.367689D-01 -0.107493D-01  0.175780D+00
                11            12            13            14            15 
      1  -0.770271D+03 -0.770269D+03 -0.770268D+03 -0.770265D+03 -0.770263D+03
      2   0.442463D-01  0.172333D+00 -0.247612D+00  0.577631D+00 -0.390878D-02
      3  -0.133996D+00  0.158752D-01 -0.245972D+00  0.205397D+00  0.227969D+00
      4   0.127673D-01 -0.181279D+00  0.168096D+00 -0.353861D+00  0.258290D-01
      5  -0.617567D-02 -0.226243D-01  0.361273D-01 -0.931378D-01  0.157064D-02
      6   0.215479D-01 -0.584604D-02  0.376375D-01 -0.354234D-01 -0.390100D-01
      7  -0.168291D-02  0.304954D-01 -0.254792D-01  0.595624D-01 -0.469584D-02
      8   0.642478D-01 -0.543312D-01 -0.114565D-01  0.340159D+00 -0.112018D+00
      9  -0.133586D-01 -0.155942D+00  0.334051D+00  0.103446D+00  0.130475D+00
     10  -0.720932D-01 -0.254898D+00  0.433921D+00 -0.124055D+00 -0.763365D-02
     11   0.133929D-01 -0.217597D+00  0.504913D+00  0.572096D-01  0.183739D+00
     12   0.181150D-01  0.710356D-01 -0.105808D+00 -0.984508D-02 -0.737718D-01
     13  -0.183328D-01  0.669141D-01 -0.127308D+00  0.174058D-01 -0.186545D-01
     14  -0.690775D-01 -0.248398D+00  0.236396D+00 -0.388199D+00 -0.454241D-01
     15   0.822381D-02  0.379896D-01 -0.121849D+00 -0.102459D+00 -0.110889D+00
     16   0.610747D-02 -0.150210D+00  0.149539D+00 -0.411386D-01  0.786376D-02
                16            17            18            19            20 
      1  -0.770260D+03 -0.770258D+03 -0.770257D+03 -0.770251D+03 -0.770249D+03
      2   0.185667D+00  0.816178D-01  0.216820D+00  0.571357D+00 -0.215526D+00
      3  -0.391819D+00  0.458385D-01 -0.293244D+00  0.904596D+00 -0.144731D+00
      4  -0.486083D-01  0.351853D-01 -0.133366D+00 -0.463134D+00  0.227153D+00
      5  -0.313699D-01 -0.115478D-01 -0.378494D-01 -0.101699D+00  0.418965D-01
      6   0.624310D-01 -0.920903D-02  0.484967D-01 -0.157160D+00  0.263273D-01
      7   0.101379D-01 -0.602734D-02  0.245323D-01  0.806976D-01 -0.417249D-01
      8   0.141329D+00 -0.893069D-01  0.151816D+00  0.206642D+00 -0.204606D+00
      9   0.150630D+00 -0.656762D-01 -0.315253D-01 -0.371317D+00 -0.613827D-02
     10  -0.310886D+00 -0.259699D+00 -0.119379D+00 -0.202960D+00 -0.604279D-01
     11   0.116564D+00  0.382472D-02  0.504597D-01 -0.743125D+00  0.161751D-01
     12   0.593922D-01  0.163254D-01  0.652304D-01  0.502945D-01  0.891835D-03
     13  -0.426481D-01 -0.214720D-02 -0.631059D-01  0.235360D+00 -0.210799D-01
     14  -0.275550D+00 -0.213279D+00 -0.208986D+00 -0.201497D+00  0.451671D-01
     15  -0.509236D-01 -0.580032D-01 -0.129638D-01  0.148351D+00  0.121973D-01
     16  -0.328095D-01 -0.528698D-01 -0.214557D-01 -0.134067D+00 -0.403860D-02
                21            22            23            24            25 
      1  -0.770245D+03 -0.770241D+03 -0.770238D+03 -0.770233D+03 -0.770231D+03
      2  -0.279278D+00 -0.570838D-01  0.303872D+00  0.763253D-01  0.475137D-01
      3  -0.112817D+01  0.191367D+00 -0.761737D+00  0.288220D-01  0.890247D-01
      4   0.114488D+00  0.709826D-01 -0.341754D+00 -0.288933D-01 -0.529460D-01
      5   0.496324D-01  0.117978D-01 -0.613698D-01 -0.147875D-01 -0.642205D-03
      6   0.202145D+00 -0.346464D-01  0.140575D+00 -0.449154D-02 -0.268639D-01
      7  -0.191891D-01 -0.136408D-01  0.657594D-01  0.411130D-02  0.238543D-01
      8   0.161882D+00 -0.890406D-01  0.323723D+00 -0.343330D-01 -0.192384D+00
      9   0.432922D+00 -0.490568D-01  0.204307D+00  0.629694D-02 -0.836279D-01
     10   0.909547D-01  0.182601D+00 -0.849975D+00 -0.511930D-01  0.123836D+00
     11   0.961163D+00 -0.424939D-01  0.657745D-01 -0.480117D-01 -0.618917D-01
     12  -0.631680D-01 -0.446653D-01  0.208683D+00  0.117065D-01 -0.231720D-01
     13  -0.237248D+00  0.159094D-01 -0.504018D-01 -0.102672D-01  0.200717D+00
     14  -0.109218D-01  0.187291D+00 -0.893771D+00 -0.216689D-01 -0.304314D-01
     15  -0.238166D+00  0.293187D-01 -0.105579D+00  0.198224D-02  0.925494D-01
     16   0.116930D+00  0.435071D-01 -0.220410D+00  0.435492D-02 -0.120528D+00
                26            27            28            29            30 
      1  -0.770230D+03 -0.770229D+03 -0.770216D+03 -0.770215D+03 -0.770214D+03
      2  -0.196411D+00 -0.226711D-01  0.294092D-01 -0.803341D-02 -0.100259D+00
      3   0.194589D-01 -0.128792D+00 -0.137092D+00 -0.844388D-01 -0.768472D-01
      4   0.121510D+00 -0.411931D-01 -0.474674D-01 -0.597013D-02  0.516360D-01
      5   0.373215D-01  0.329963D-02 -0.948438D-02  0.696465D-03  0.227007D-01
      6  -0.365686D-02  0.269908D-01  0.300849D-01  0.171463D-01  0.127115D-01
      7  -0.260404D-01  0.829580D-02  0.893132D-02 -0.189571D-03 -0.145178D-01
      8   0.147785D+00  0.560339D-01  0.139974D-01 -0.284193D-01 -0.130496D+00
      9   0.436430D+00  0.358333D-01 -0.404808D-01 -0.371441D-01 -0.100651D+00
     10   0.255606D+00  0.183274D+00 -0.298533D+00 -0.188911D+00 -0.182311D+00
     11   0.135530D+00  0.698952D-03 -0.308116D-01 -0.322761D-01 -0.886200D-01
     12   0.998459D-01  0.548605D-01  0.108983D+00  0.617343D-01  0.377389D-01
     13  -0.988786D-01 -0.431184D-01 -0.179489D-01 -0.901917D-02  0.922536D-02
     14   0.405708D-01  0.871271D-01 -0.186411D+00 -0.940382D-01 -0.897645D-02
     15  -0.306725D-01  0.520038D-01 -0.271532D-02  0.693159D-02  0.434877D-01
     16   0.233619D-01  0.430450D-01 -0.509650D-01 -0.450397D-01 -0.805638D-01
                31            32            33            34            35 
      1  -0.770212D+03 -0.770210D+03 -0.770209D+03 -0.770208D+03 -0.770205D+03
      2   0.334402D-01  0.382772D+00 -0.652030D-02 -0.113437D+00  0.108641D+00
      3   0.938787D-01 -0.171856D+00 -0.856028D-01  0.329669D-01  0.402961D-01
      4   0.134140D-01 -0.202899D+00 -0.183805D-01  0.102171D+00  0.215042D-01
      5  -0.873128D-02 -0.844128D-01 -0.149128D-02  0.252149D-01 -0.194035D-01
      6  -0.187560D-01  0.348176D-01  0.207505D-01 -0.683840D-02 -0.107540D-01
      7  -0.298146D-02  0.476145D-01  0.420657D-02 -0.247439D-01 -0.286619D-03
      8   0.185086D+00  0.270616D+00  0.264621D-01 -0.260089D-01  0.865414D-01
      9   0.106796D+00  0.232451D+00 -0.228458D-01  0.294633D+00  0.213489D-01
     10  -0.592842D-01  0.185512D+00 -0.218045D+00  0.318634D-01 -0.743987D-01
     11  -0.804851D-01  0.393412D+00 -0.788876D-01 -0.971293D-02 -0.868975D-01
     12   0.139027D+00 -0.125362D-01  0.110474D+00  0.432973D-01  0.278813D-01
     13  -0.103175D+00 -0.968669D-01 -0.258119D-02 -0.362385D-01  0.234394D-01
     14  -0.661809D-01 -0.235725D+00 -0.133421D+00  0.855544D-01 -0.533430D-01
     15   0.378546D-01 -0.152826D+00  0.133189D-01 -0.458579D-02 -0.143731D-01
     16   0.120220D-01  0.132762D+00 -0.431692D-01  0.167429D-01 -0.194061D-01
                36 
      1  -0.770204D+03
      2   0.641888D-01
      3  -0.134461D+00
      4  -0.153634D+00
      5  -0.156312D-01
      6   0.284814D-01
      7   0.374511D-01
      8   0.118864D+00
      9  -0.130863D+00
     10   0.564592D+00
     11   0.269233D-01
     12  -0.548518D-02
     13  -0.912750D-02
     14   0.252476D+00
     15   0.988984D-01
     16   0.104021D+00
 1\1\GINC-GRA471\SP\UB3LYP TD-FC\6-31G(d,p)\C16H17O2(2)\RZK\25-May-2019
 \0\\#p td=(50-50,nstates=36) ub3lyp/6-31g(d,p) scrf=(iefpcm,solvent=ac
 etonitrile) guess=(mix,always) empiricaldispersion=gd3\\Title Card Req
 uired\\0,2\C,0,-1.424012,-1.420337,-0.988073\C,0,0.787289,-1.322314,1.
 182305\O,0,-1.857166,-2.366576,-0.324576\C,0,-0.515988,-1.667894,-2.17
 0797\H,0,-0.895705,-1.171341,-3.068965\H,0,0.481926,-1.265548,-1.96677
 2\H,0,-0.438317,-2.741469,-2.342806\C,0,-0.219369,-1.156576,2.272451\H
 ,0,-0.44496,-0.110824,2.479241\H,0,-1.158521,-1.644223,1.98247\H,0,0.1
 23326,-1.629207,3.203178\C,0,-1.765767,-0.016807,-0.620399\C,0,-2.7621
 78,0.205185,0.34579\C,0,-1.0957,1.084504,-1.178141\C,0,-3.080783,1.498
 588,0.747359\H,0,-3.273522,-0.652187,0.769441\C,0,-1.408444,2.37922,-0
 .767165\H,0,-0.311172,0.936057,-1.911372\C,0,-2.401318,2.58907,0.19301
 9\H,0,-3.854476,1.660697,1.491597\H,0,-0.873314,3.222938,-1.191368\H,0
 ,-2.644701,3.598695,0.510203\C,0,1.652605,-0.327791,0.659792\C,0,2.558
 465,-0.636524,-0.400651\C,0,1.637388,1.017935,1.131002\C,0,3.370056,0.
 342294,-0.956799\H,0,2.602249,-1.654479,-0.769907\C,0,2.456524,1.98340
 8,0.564253\H,0,0.970916,1.301124,1.937727\C,0,3.329573,1.662243,-0.485
 599\H,0,4.044909,0.077355,-1.766315\H,0,2.415186,3.00185,0.940611\H,0,
 3.96578,2.424095,-0.924944\O,0,0.922936,-2.585578,0.671703\H,0,0.05418
 5,-3.021534,0.680877\\Version=ES64L-G16RevB.01\State=2-A\HF=-770.43092
 07\S2=0.774014\S2-1=0.\S2A=0.750404\RMSD=9.472e-09\PG=C01 [X(C16H17O2)
 ]\\@


 ABSOLUTISM, OBSOLETISM -- IF IT WORKS, IT'S OUT OF DATE

                          -- STAFFORD BEER
 Job cpu time:       0 days 14 hours 27 minutes 15.2 seconds.
 Elapsed time:       0 days  0 hours 27 minutes  8.7 seconds.
 File lengths (MBytes):  RWF=   2199 Int=      0 D2E=      0 Chk=    178 Scr=      1
 Normal termination of Gaussian 16 at Sat May 25 04:45:29 2019.
