 Entering Gaussian System, Link 0=g16
 Initial command:
 /opt/software/gaussian/g16.b01/l1.exe "/localscratch/rzk.15153372.0/Gau-10087.inp" -scrdir="/localscratch/rzk.15153372.0/"
 Entering Link 1 = /opt/software/gaussian/g16.b01/l1.exe PID=     10092.
  
 Copyright (c) 1988-2017, Gaussian, Inc.  All Rights Reserved.
  
 This is part of the Gaussian(R) 16 program.  It is based on
 the Gaussian(R) 09 system (copyright 2009, Gaussian, Inc.),
 the Gaussian(R) 03 system (copyright 2003, Gaussian, Inc.),
 the Gaussian(R) 98 system (copyright 1998, Gaussian, Inc.),
 the Gaussian(R) 94 system (copyright 1995, Gaussian, Inc.),
 the Gaussian 92(TM) system (copyright 1992, Gaussian, Inc.),
 the Gaussian 90(TM) system (copyright 1990, Gaussian, Inc.),
 the Gaussian 88(TM) system (copyright 1988, Gaussian, Inc.),
 the Gaussian 86(TM) system (copyright 1986, Carnegie Mellon
 University), and the Gaussian 82(TM) system (copyright 1983,
 Carnegie Mellon University). Gaussian is a federally registered
 trademark of Gaussian, Inc.
  
 This software contains proprietary and confidential information,
 including trade secrets, belonging to Gaussian, Inc.
  
 This software is provided under written license and may be
 used, copied, transmitted, or stored only in accord with that
 written license.
  
 The following legend is applicable only to US Government
 contracts under FAR:
  
                    RESTRICTED RIGHTS LEGEND
  
 Use, reproduction and disclosure by the US Government is
 subject to restrictions as set forth in subparagraphs (a)
 and (c) of the Commercial Computer Software - Restricted
 Rights clause in FAR 52.227-19.
  
 Gaussian, Inc.
 340 Quinnipiac St., Bldg. 40, Wallingford CT 06492
  
  
 ---------------------------------------------------------------
 Warning -- This program may not be used in any manner that
 competes with the business of Gaussian, Inc. or will provide
 assistance to any competitor of Gaussian, Inc.  The licensee
 of this program is prohibited from giving any competitor of
 Gaussian, Inc. access to this program.  By using this program,
 the user acknowledges that Gaussian, Inc. is engaged in the
 business of creating and licensing software in the field of
 computational chemistry and represents and warrants to the
 licensee that it is not a competitor of Gaussian, Inc. and that
 it will not use this program in any manner prohibited above.
 ---------------------------------------------------------------
  

 Cite this work as:
 Gaussian 16, Revision B.01,
 M. J. Frisch, G. W. Trucks, H. B. Schlegel, G. E. Scuseria, 
 M. A. Robb, J. R. Cheeseman, G. Scalmani, V. Barone, 
 G. A. Petersson, H. Nakatsuji, X. Li, M. Caricato, A. V. Marenich, 
 J. Bloino, B. G. Janesko, R. Gomperts, B. Mennucci, H. P. Hratchian, 
 J. V. Ortiz, A. F. Izmaylov, J. L. Sonnenberg, D. Williams-Young, 
 F. Ding, F. Lipparini, F. Egidi, J. Goings, B. Peng, A. Petrone, 
 T. Henderson, D. Ranasinghe, V. G. Zakrzewski, J. Gao, N. Rega, 
 G. Zheng, W. Liang, M. Hada, M. Ehara, K. Toyota, R. Fukuda, 
 J. Hasegawa, M. Ishida, T. Nakajima, Y. Honda, O. Kitao, H. Nakai, 
 T. Vreven, K. Throssell, J. A. Montgomery, Jr., J. E. Peralta, 
 F. Ogliaro, M. J. Bearpark, J. J. Heyd, E. N. Brothers, K. N. Kudin, 
 V. N. Staroverov, T. A. Keith, R. Kobayashi, J. Normand, 
 K. Raghavachari, A. P. Rendell, J. C. Burant, S. S. Iyengar, 
 J. Tomasi, M. Cossi, J. M. Millam, M. Klene, C. Adamo, R. Cammi, 
 J. W. Ochterski, R. L. Martin, K. Morokuma, O. Farkas, 
 J. B. Foresman, and D. J. Fox, Gaussian, Inc., Wallingford CT, 2016.
 
 ******************************************
 Gaussian 16:  ES64L-G16RevB.01 20-Dec-2017
                25-May-2019 
 ******************************************
 %NProcShared=32
 Will use up to   32 processors via shared memory.
 %chk=AH-A_9.chk
 ----------------------------------------------------------------------
 #p td=(50-50,nstates=36) ub3lyp/6-31g(d,p) scrf=(iefpcm,solvent=aceton
 itrile) guess=(mix,always) empiricaldispersion=gd3
 ----------------------------------------------------------------------
 1/38=1,172=1/1;
 2/12=2,17=6,18=5,40=1/2;
 3/5=1,6=6,7=101,11=2,25=1,30=1,70=2201,72=2,74=-5,116=2,124=31/1,2,3,8;
 4/13=-1/1;
 5/5=2,38=5,53=2/2;
 8/6=1,10=2,108=36/1;
 9/41=36,42=1,48=2,70=2/14;
 6/7=2,8=2,9=2,10=2/1;
 99/5=1,9=1/99;
 Leave Link    1 at Sat May 25 04:20:37 2019, MaxMem=           0 cpu:               2.6 elap:               0.1
 (Enter /opt/software/gaussian/g16.b01/l101.exe)
 -------------------
 Title Card Required
 -------------------
 Symbolic Z-matrix:
 Charge =  0 Multiplicity = 2
 C                    -0.89596  -1.39514  -0.86751 
 C                     0.72802  -1.24215   0.89296 
 O                    -1.29464  -2.50149  -0.44273 
 C                     0.09374  -1.37558  -2.01904 
 H                    -0.48714  -1.43132  -2.9476 
 H                     0.71655  -0.48351  -2.06289 
 H                     0.73276  -2.25609  -1.95432 
 C                    -0.23884  -1.17785   2.04124 
 H                    -0.72224  -0.20687   2.13641 
 H                    -1.01714  -1.93363   1.91225 
 H                     0.29858  -1.39369   2.97393 
 C                    -1.65659  -0.15014  -0.54558 
 C                    -2.84118  -0.26373   0.20415 
 C                    -1.24174   1.1257   -0.96389 
 C                    -3.58556   0.86457   0.5341 
 H                    -3.1595   -1.25209   0.51608 
 C                    -1.98671   2.25652  -0.63052 
 H                    -0.32831   1.24613  -1.53319 
 C                    -3.15838   2.13085   0.11946 
 H                    -4.49914   0.76074   1.11193 
 H                    -1.64899   3.23656  -0.95353 
 H                    -3.73662   3.01291   0.37801 
 C                     1.61682  -0.16051   0.55195 
 C                     2.75438  -0.39209  -0.26441 
 C                     1.36811   1.16875   0.97751 
 C                     3.59182   0.6526   -0.63398 
 H                     2.95979  -1.40177  -0.59883 
 C                     2.21067   2.20761   0.59899 
 H                     0.50597   1.38829   1.59527 
 C                     3.32697   1.96048  -0.20816 
 H                     4.45757   0.45017  -1.25784 
 H                     1.99581   3.21799   0.93412 
 H                     3.98182   2.77526  -0.50111 
 O                     1.17658  -2.49222   0.58228 
 H                     0.38131  -3.03878   0.41123 
 
 ITRead=  0  0  0  0  0  0  0  0  0  0  0  0  0  0  0  0  0  0  0  0
 ITRead=  0  0  0  0  0  0  0  0  0  0  0  0  0  0  0
 MicOpt= -1 -1 -1 -1 -1 -1 -1 -1 -1 -1 -1 -1 -1 -1 -1 -1 -1 -1 -1 -1
 MicOpt= -1 -1 -1 -1 -1 -1 -1 -1 -1 -1 -1 -1 -1 -1 -1
 NAtoms=     35 NQM=       35 NQMF=       0 NMMI=      0 NMMIF=      0
                NMic=       0 NMicF=      0.
                    Isotopes and Nuclear Properties:
 (Nuclear quadrupole moments (NQMom) in fm**2, nuclear magnetic moments (NMagM)
  in nuclear magnetons)

  Atom         1           2           3           4           5           6           7           8           9          10
 IAtWgt=          12          12          16          12           1           1           1          12           1           1
 AtmWgt=  12.0000000  12.0000000  15.9949146  12.0000000   1.0078250   1.0078250   1.0078250  12.0000000   1.0078250   1.0078250
 NucSpn=           0           0           0           0           1           1           1           0           1           1
 AtZEff=  -0.0000000  -0.0000000  -0.0000000  -0.0000000  -0.0000000  -0.0000000  -0.0000000  -0.0000000  -0.0000000  -0.0000000
 NQMom=    0.0000000   0.0000000   0.0000000   0.0000000   0.0000000   0.0000000   0.0000000   0.0000000   0.0000000   0.0000000
 NMagM=    0.0000000   0.0000000   0.0000000   0.0000000   2.7928460   2.7928460   2.7928460   0.0000000   2.7928460   2.7928460
 AtZNuc=   6.0000000   6.0000000   8.0000000   6.0000000   1.0000000   1.0000000   1.0000000   6.0000000   1.0000000   1.0000000

  Atom        11          12          13          14          15          16          17          18          19          20
 IAtWgt=           1          12          12          12          12           1          12           1          12           1
 AtmWgt=   1.0078250  12.0000000  12.0000000  12.0000000  12.0000000   1.0078250  12.0000000   1.0078250  12.0000000   1.0078250
 NucSpn=           1           0           0           0           0           1           0           1           0           1
 AtZEff=  -0.0000000  -0.0000000  -0.0000000  -0.0000000  -0.0000000  -0.0000000  -0.0000000  -0.0000000  -0.0000000  -0.0000000
 NQMom=    0.0000000   0.0000000   0.0000000   0.0000000   0.0000000   0.0000000   0.0000000   0.0000000   0.0000000   0.0000000
 NMagM=    2.7928460   0.0000000   0.0000000   0.0000000   0.0000000   2.7928460   0.0000000   2.7928460   0.0000000   2.7928460
 AtZNuc=   1.0000000   6.0000000   6.0000000   6.0000000   6.0000000   1.0000000   6.0000000   1.0000000   6.0000000   1.0000000

  Atom        21          22          23          24          25          26          27          28          29          30
 IAtWgt=           1           1          12          12          12          12           1          12           1          12
 AtmWgt=   1.0078250   1.0078250  12.0000000  12.0000000  12.0000000  12.0000000   1.0078250  12.0000000   1.0078250  12.0000000
 NucSpn=           1           1           0           0           0           0           1           0           1           0
 AtZEff=  -0.0000000  -0.0000000  -0.0000000  -0.0000000  -0.0000000  -0.0000000  -0.0000000  -0.0000000  -0.0000000  -0.0000000
 NQMom=    0.0000000   0.0000000   0.0000000   0.0000000   0.0000000   0.0000000   0.0000000   0.0000000   0.0000000   0.0000000
 NMagM=    2.7928460   2.7928460   0.0000000   0.0000000   0.0000000   0.0000000   2.7928460   0.0000000   2.7928460   0.0000000
 AtZNuc=   1.0000000   1.0000000   6.0000000   6.0000000   6.0000000   6.0000000   1.0000000   6.0000000   1.0000000   6.0000000

  Atom        31          32          33          34          35
 IAtWgt=           1           1           1          16           1
 AtmWgt=   1.0078250   1.0078250   1.0078250  15.9949146   1.0078250
 NucSpn=           1           1           1           0           1
 AtZEff=  -0.0000000  -0.0000000  -0.0000000  -0.0000000  -0.0000000
 NQMom=    0.0000000   0.0000000   0.0000000   0.0000000   0.0000000
 NMagM=    2.7928460   2.7928460   2.7928460   0.0000000   2.7928460
 AtZNuc=   1.0000000   1.0000000   1.0000000   8.0000000   1.0000000
 Leave Link  101 at Sat May 25 04:20:38 2019, MaxMem=   104857600 cpu:               4.3 elap:               0.2
 (Enter /opt/software/gaussian/g16.b01/l202.exe)
                          Input orientation:                          
 ---------------------------------------------------------------------
 Center     Atomic      Atomic             Coordinates (Angstroms)
 Number     Number       Type             X           Y           Z
 ---------------------------------------------------------------------
      1          6           0       -0.895961   -1.395142   -0.867514
      2          6           0        0.728021   -1.242145    0.892962
      3          8           0       -1.294635   -2.501490   -0.442734
      4          6           0        0.093742   -1.375581   -2.019037
      5          1           0       -0.487140   -1.431317   -2.947604
      6          1           0        0.716551   -0.483513   -2.062885
      7          1           0        0.732764   -2.256093   -1.954319
      8          6           0       -0.238842   -1.177853    2.041243
      9          1           0       -0.722241   -0.206872    2.136406
     10          1           0       -1.017138   -1.933625    1.912253
     11          1           0        0.298582   -1.393690    2.973929
     12          6           0       -1.656586   -0.150141   -0.545582
     13          6           0       -2.841180   -0.263728    0.204153
     14          6           0       -1.241738    1.125704   -0.963886
     15          6           0       -3.585561    0.864571    0.534104
     16          1           0       -3.159496   -1.252092    0.516075
     17          6           0       -1.986705    2.256515   -0.630515
     18          1           0       -0.328307    1.246132   -1.533190
     19          6           0       -3.158385    2.130850    0.119462
     20          1           0       -4.499139    0.760740    1.111931
     21          1           0       -1.648989    3.236561   -0.953529
     22          1           0       -3.736615    3.012909    0.378008
     23          6           0        1.616820   -0.160513    0.551946
     24          6           0        2.754376   -0.392088   -0.264407
     25          6           0        1.368108    1.168745    0.977505
     26          6           0        3.591819    0.652602   -0.633983
     27          1           0        2.959787   -1.401767   -0.598833
     28          6           0        2.210670    2.207612    0.598988
     29          1           0        0.505968    1.388288    1.595273
     30          6           0        3.326965    1.960484   -0.208158
     31          1           0        4.457570    0.450173   -1.257841
     32          1           0        1.995808    3.217993    0.934120
     33          1           0        3.981818    2.775262   -0.501111
     34          8           0        1.176577   -2.492216    0.582284
     35          1           0        0.381308   -3.038783    0.411231
 ---------------------------------------------------------------------
                    Distance matrix (angstroms):
                    1          2          3          4          5
     1  C    0.000000
     2  C    2.400000   0.000000
     3  O    1.250354   2.731514   0.000000
     4  C    1.518519   2.983262   2.383274   0.000000
     5  H    2.120193   4.032660   2.841072   1.096707   0.000000
     6  H    2.204580   3.051669   3.277497   1.088852   1.769161
     7  H    2.138955   3.022436   2.540759   1.089880   1.776242
     8  C    2.989964   1.502500   3.006136   4.078674   5.001449
     9  H    3.235073   2.172833   3.499267   4.393110   5.234663
    10  H    2.834035   2.136043   2.438327   4.123167   4.914410
    11  H    4.022887   2.130213   3.929268   4.997199   5.973552
    12  C    1.494061   2.991360   2.381266   2.595462   2.962891
    13  C    2.492478   3.764433   2.796041   3.846109   4.103455
    14  C    2.546275   3.596463   3.664824   3.025438   3.323088
    15  C    3.782167   4.813940   4.187233   5.007403   5.195537
    16  H    2.656760   3.905756   2.440905   4.126209   4.378434
    17  C    3.818441   4.683091   4.811739   4.410031   4.606268
    18  H    2.782388   3.632295   4.020890   2.699547   3.032248
    19  C    4.304103   5.203801   5.024759   5.238756   5.406614
    20  H    4.642082   5.602026   4.829904   5.954946   6.114006
    21  H    4.693306   5.396157   5.771630   5.044232   5.207237
    22  H    5.389949   6.188993   6.086500   6.298913   6.431946
    23  C    3.138988   1.440897   3.866023   3.225850   4.276499
    24  C    3.833382   2.483589   4.569012   3.335410   4.334394
    25  C    3.886338   2.495846   4.751621   4.132417   5.060509
    26  C    4.938417   3.758054   5.819133   4.274160   5.131614
    27  H    3.865104   2.689184   4.397029   3.198731   4.171199
    28  C    4.978114   3.766363   5.962213   4.916779   5.753112
    29  H    3.972179   2.731616   4.746158   4.568604   5.438214
    30  C    5.433975   4.268935   6.428330   4.986215   5.792778
    31  H    5.676076   4.625952   6.516485   4.791220   5.553869
    32  H    5.734913   4.637004   6.740566   5.782725   6.545907
    33  H    6.428005   5.354455   7.462471   5.886487   6.606983
    34  O    2.756973   1.363965   2.675376   3.030887   4.043955
    35  H    2.442982   1.892137   1.956202   2.958908   3.823601
                    6          7          8          9         10
     6  H    0.000000
     7  H    1.775976   0.000000
     8  C    4.270685   4.251016   0.000000
     9  H    4.447550   4.801081   1.088823   0.000000
    10  H    4.572770   4.256351   1.092508   1.766036   0.000000
    11  H    5.135427   5.021940   1.097868   1.775405   1.774769
    12  C    2.836393   3.482609   3.123756   2.840648   3.103331
    13  C    4.224360   4.626186   3.314014   2.868229   3.005543
    14  C    2.762657   4.039327   3.917011   3.414300   4.205011
    15  C    5.202869   5.880368   4.200416   3.451661   4.040544
    16  H    4.718632   4.718109   3.295735   3.107760   2.646412
    17  C    4.106949   5.432458   4.689158   3.914460   4.996299
    18  H    2.089013   3.683585   4.319754   3.966401   4.738821
    19  C    5.158746   6.219878   4.812950   3.932913   4.931429
    20  H    6.231456   6.773181   4.771991   4.031226   4.474869
    21  H    4.545921   6.069891   5.517629   4.718452   5.944978
    22  H    6.165518   7.292289   5.706422   4.748200   5.849586
    23  C    2.784269   3.384431   2.587753   2.825574   3.454287
    24  C    2.719488   3.227574   3.859119   4.229075   4.619362
    25  C    3.521144   4.552886   3.036503   2.757704   4.023413
    26  C    3.405831   4.286956   5.018104   5.198544   5.866376
    27  H    2.831739   2.743510   4.153476   4.739898   4.733324
    28  C    4.069412   5.350537   4.420586   4.098214   5.412324
    29  H    4.114621   5.092401   2.709006   2.084672   3.668165
    30  C    4.028324   5.249617   5.255849   5.156596   6.207371
    31  H    3.938920   4.656516   5.965795   6.227605   6.760504
    32  H    4.931499   6.316960   5.053993   4.534642   6.047624
    33  H    4.870392   6.163011   6.317013   6.162612   7.279252
    34  O    3.353123   2.585939   2.420645   3.353148   2.625496
    35  H    3.572540   2.516337   2.550409   3.494820   2.330256
                   11         12         13         14         15
    11  H    0.000000
    12  C    4.213793   0.000000
    13  C    4.336655   1.406509   0.000000
    14  C    4.922024   1.405296   2.419308   0.000000
    15  C    5.112637   2.432346   1.391413   2.793863   0.000000
    16  H    4.244926   2.144796   1.084197   3.394406   2.159194
    17  C    5.615919   2.430676   2.788982   1.394577   2.418716
    18  H    5.260777   2.165473   3.407722   1.083036   3.876725
    19  C    5.702717   2.810801   2.416981   2.420227   1.399239
    20  H    5.579134   3.414258   2.149982   3.879804   1.085951
    21  H    6.376299   3.411192   3.874735   2.149809   3.404365
    22  H    6.514579   3.896720   3.401232   3.403914   2.159291
    23  C    3.020675   3.452515   4.472737   3.481875   5.302441
    24  C    4.185803   4.426532   5.616607   4.331500   6.512420
    25  C    3.419893   3.634285   4.513110   3.253021   4.982767
    26  C    5.296201   5.310176   6.551764   4.867847   7.274898
    27  H    4.454964   4.783336   5.965831   4.916725   7.018648
    28  C    4.718665   4.671692   5.637784   3.941094   5.950148
    29  H    3.111768   3.409789   3.983437   3.110100   4.259222
    30  C    5.526958   5.422580   6.569865   4.705426   7.038110
    31  H    6.213283   6.184706   7.477890   5.746726   8.250742
    32  H    5.320622   5.183997   6.004306   4.296720   6.070444
    33  H    6.559138   6.352288   7.502410   5.497339   7.873223
    34  O    2.774455   3.845024   4.609936   4.618250   5.826517
    35  H    3.046407   3.662343   4.257727   4.676342   5.566626
                   16         17         18         19         20
    16  H    0.000000
    17  C    3.873039   0.000000
    18  H    4.296073   2.141490   0.000000
    19  C    3.406112   1.396815   3.394602   0.000000
    20  H    2.490217   3.403790   4.962672   2.158661   0.000000
    21  H    4.958767   1.085763   2.458051   2.156892   4.303390
    22  H    4.306084   2.156719   4.288443   1.085921   2.488443
    23  C    4.899594   4.497291   3.179617   5.314129   6.210253
    24  C    6.026827   5.443067   3.714365   6.439978   7.472402
    25  C    5.154859   3.876047   3.031073   4.706487   5.882952
    26  C    7.108498   5.804522   4.065494   6.951126   8.277893
    27  H    6.221820   6.152383   4.323882   7.101222   7.952278
    28  C    6.388670   4.374017   3.452105   5.390973   6.883174
    29  H    4.644556   3.452734   3.240911   4.019565   5.067399
    30  C    7.274568   5.338643   3.953103   6.495854   8.026825
    31  H    8.004010   6.721986   4.859422   7.919874   9.270108
    32  H    6.836196   4.385537   3.921398   5.330221   6.946513
    33  H    8.261514   5.992421   4.688348   7.196032   8.864922
    34  O    4.510412   5.833325   4.551390   6.354435   6.563231
    35  H    3.967436   5.893463   4.758658   6.272134   6.224638
                   21         22         23         24         25
    21  H    0.000000
    22  H    2.486201   0.000000
    23  C    4.946926   6.225763   0.000000
    24  C    5.747313   7.357966   1.419187   0.000000
    25  C    4.136137   5.460635   1.417704   2.429050   0.000000
    26  C    5.851925   7.765380   2.442991   1.388983   2.794313
    27  H    6.548337   8.079937   2.160686   1.083276   3.409665
    28  C    4.285559   6.005625   2.441902   2.792760   1.390119
    29  H    3.815278   4.703258   2.172857   3.418112   1.083107
    30  C    5.190768   7.165567   2.828601   2.421904   2.422760
    31  H    6.719124   8.740039   3.423175   2.144105   3.880450
    32  H    4.104645   5.762985   3.421110   3.878734   2.143667
    33  H    5.667757   7.771971   3.914195   3.405106   3.405684
    34  O    6.569736   7.381571   2.373094   2.759868   3.687210
    35  H    6.735326   7.319930   3.135399   3.618416   4.358639
                   26         27         28         29         30
    26  C    0.000000
    27  H    2.149682   0.000000
    28  C    2.417818   3.876025   0.000000
    29  H    3.877279   4.315059   2.137729   0.000000
    30  C    1.400725   3.404729   1.399525   3.396733   0.000000
    31  H    1.086140   2.471301   3.403669   4.963414   2.158968
    32  H    3.404031   4.961994   1.085978   2.450422   2.158265
    33  H    2.162277   4.301357   2.160882   4.289529   1.085595
    34  O    4.147599   2.400824   4.812277   4.066224   5.007545
    35  H    5.002617   3.216925   5.559360   4.584371   5.835513
                   31         32         33         34         35
    31  H    0.000000
    32  H    4.304160   0.000000
    33  H    2.490988   2.490007   0.000000
    34  O    4.775838   5.779396   6.065430   0.000000
    35  H    5.619122   6.482844   6.899214   0.980024   0.000000
 Stoichiometry    C16H17O2(2)
 Framework group  C1[X(C16H17O2)]
 Deg. of freedom    99
 Full point group                 C1      NOp   1
 Largest Abelian subgroup         C1      NOp   1
 Largest concise Abelian subgroup C1      NOp   1
                         Standard orientation:                         
 ---------------------------------------------------------------------
 Center     Atomic      Atomic             Coordinates (Angstroms)
 Number     Number       Type             X           Y           Z
 ---------------------------------------------------------------------
      1          6           0       -0.895961   -1.395142   -0.867514
      2          6           0        0.728021   -1.242145    0.892962
      3          8           0       -1.294635   -2.501490   -0.442734
      4          6           0        0.093742   -1.375581   -2.019037
      5          1           0       -0.487140   -1.431317   -2.947604
      6          1           0        0.716551   -0.483513   -2.062885
      7          1           0        0.732764   -2.256093   -1.954319
      8          6           0       -0.238842   -1.177853    2.041243
      9          1           0       -0.722241   -0.206872    2.136406
     10          1           0       -1.017138   -1.933625    1.912253
     11          1           0        0.298582   -1.393690    2.973929
     12          6           0       -1.656586   -0.150141   -0.545582
     13          6           0       -2.841180   -0.263728    0.204153
     14          6           0       -1.241738    1.125704   -0.963886
     15          6           0       -3.585561    0.864571    0.534104
     16          1           0       -3.159496   -1.252092    0.516075
     17          6           0       -1.986705    2.256515   -0.630515
     18          1           0       -0.328307    1.246132   -1.533190
     19          6           0       -3.158385    2.130850    0.119462
     20          1           0       -4.499139    0.760740    1.111931
     21          1           0       -1.648989    3.236561   -0.953529
     22          1           0       -3.736615    3.012909    0.378008
     23          6           0        1.616820   -0.160513    0.551946
     24          6           0        2.754376   -0.392088   -0.264407
     25          6           0        1.368108    1.168745    0.977505
     26          6           0        3.591819    0.652602   -0.633983
     27          1           0        2.959787   -1.401767   -0.598833
     28          6           0        2.210670    2.207612    0.598988
     29          1           0        0.505968    1.388288    1.595273
     30          6           0        3.326965    1.960484   -0.208158
     31          1           0        4.457570    0.450173   -1.257841
     32          1           0        1.995808    3.217993    0.934120
     33          1           0        3.981818    2.775262   -0.501111
     34          8           0        1.176577   -2.492216    0.582284
     35          1           0        0.381308   -3.038783    0.411231
 ---------------------------------------------------------------------
 Rotational constants (GHZ):           0.6031791           0.3753961           0.2897070
 Leave Link  202 at Sat May 25 04:20:38 2019, MaxMem=   104857600 cpu:               1.9 elap:               0.1
 (Enter /opt/software/gaussian/g16.b01/l301.exe)
 Standard basis: 6-31G(d,p) (6D, 7F)
 Ernie: Thresh=  0.10000D-02 Tol=  0.10000D-05 Strict=F.
 There are   355 symmetry adapted cartesian basis functions of A   symmetry.
 There are   355 symmetry adapted basis functions of A   symmetry.
   355 basis functions,   623 primitive gaussians,   355 cartesian basis functions
    65 alpha electrons       64 beta electrons
       nuclear repulsion energy      1315.9428766846 Hartrees.
 IExCor=  402 DFT=T Ex+Corr=B3LYP ExCW=0 ScaHFX=  0.200000
 ScaDFX=  0.800000  0.720000  1.000000  0.810000 ScalE2=  1.000000  1.000000
 IRadAn=      5 IRanWt=     -1 IRanGd=            0 ICorTp=0 IEmpDi=131
 NAtoms=   35 NActive=   35 NUniq=   35 SFac= 1.00D+00 NAtFMM=   60 NAOKFM=F Big=F
 Integral buffers will be    131072 words long.
 Raffenetti 2 integral format.
 Two-electron integral symmetry is turned on.
 R6Disp:  Grimme-D3 Dispersion energy=       -0.0424815399 Hartrees.
 Nuclear repulsion after empirical dispersion term =     1315.9003951447 Hartrees.
 ------------------------------------------------------------------------------
 Polarizable Continuum Model (PCM)
 =================================
 Model                : PCM.
 Atomic radii         : UFF (Universal Force Field).
 Polarization charges : Total charges.
 Charge compensation  : None.
 Solution method      : On-the-fly selection.
 Cavity type          : Scaled VdW (van der Waals Surface) (Alpha=1.100).
 Cavity algorithm     : GePol (No added spheres)
                        Default sphere list used, NSphG=   35.
                        Lebedev-Laikov grids with approx.  5.0 points / Ang**2.
                        Smoothing algorithm: York/Karplus (Gamma=1.0000).
                        Polarization charges: spherical gaussians, with
                                              point-specific exponents (IZeta= 3).
                        Self-potential: point-specific (ISelfS= 7).
                        Self-field    : sphere-specific E.n sum rule (ISelfD= 2).
 Solvent              : Acetonitrile, Eps=  35.688000 Eps(inf)=   1.806874
 ------------------------------------------------------------------------------
 GePol: Number of generator spheres                  =      35
 GePol: Total number of spheres                      =      35
 GePol: Number of exposed spheres                    =      35 (100.00%)
 GePol: Number of points                             =    2386
 GePol: Average weight of points                     =       0.13
 GePol: Minimum weight of points                     =   0.45D-09
 GePol: Maximum weight of points                     =    0.20577
 GePol: Number of points with low weight             =     167
 GePol: Fraction of low-weight points (<1% of avg)   =       7.00%
 GePol: Cavity surface area                          =    310.086 Ang**2
 GePol: Cavity volume                                =    354.738 Ang**3
 Leave Link  301 at Sat May 25 04:20:38 2019, MaxMem=   104857600 cpu:               3.5 elap:               0.2
 (Enter /opt/software/gaussian/g16.b01/l302.exe)
 NPDir=0 NMtPBC=     1 NCelOv=     1 NCel=       1 NClECP=     1 NCelD=      1
         NCelK=      1 NCelE2=     1 NClLst=     1 CellRange=     0.0.
 One-electron integrals computed using PRISM.
 One-electron integral symmetry used in STVInt
 PrsmSu:  requested number of processors reduced to:  28 ShMem   1 Linda.
 NBasis=   355 RedAO= T EigKep=  4.55D-04  NBF=   355
 NBsUse=   355 1.00D-06 EigRej= -1.00D+00 NBFU=   355
 Precomputing XC quadrature grid using
 IXCGrd= 4 IRadAn=           5 IRanWt=          -1 IRanGd=           0 AccXCQ= 0.00D+00.
 Generated NRdTot=       0 NPtTot=           0 NUsed=           0 NTot=          32
 NSgBfM=   354   354   354   354   354 MxSgAt=    35 MxSgA2=    35.
 Leave Link  302 at Sat May 25 04:20:39 2019, MaxMem=   104857600 cpu:              14.3 elap:               0.5
 (Enter /opt/software/gaussian/g16.b01/l303.exe)
 DipDrv:  MaxL=1.
 Leave Link  303 at Sat May 25 04:20:39 2019, MaxMem=   104857600 cpu:               2.3 elap:               0.1
 (Enter /opt/software/gaussian/g16.b01/l308.exe)
 Leave Link  308 at Sat May 25 04:20:39 2019, MaxMem=   104857600 cpu:               2.4 elap:               0.1
 (Enter /opt/software/gaussian/g16.b01/l401.exe)
 ExpMin= 1.61D-01 ExpMax= 5.48D+03 ExpMxC= 8.25D+02 IAcc=3 IRadAn=         5 AccDes= 0.00D+00
 Harris functional with IExCor=  402 and IRadAn=       5 diagonalized for initial guess.
 HarFok:  IExCor=  402 AccDes= 0.00D+00 IRadAn=         5 IDoV= 1 UseB2=F ITyADJ=14
 ICtDFT=  3500011 ScaDFX=  1.000000  1.000000  1.000000  1.000000
 FoFCou: FMM=F IPFlag=           0 FMFlag=      100000 FMFlg1=           0
         NFxFlg=           0 DoJE=T BraDBF=F KetDBF=T FulRan=T
         wScrn=  0.000000 ICntrl=       500 IOpCl=  0 I1Cent=   200000004 NGrid=           0
         NMat0=    1 NMatS0=      1 NMatT0=    0 NMatD0=    1 NMtDS0=    0 NMtDT0=    0
 Petite list used in FoFCou.
 Harris En= -770.466649392957    
 JPrj=0 DoOrth=F DoCkMO=T.
 Mixing orbitals, IMix= 1 IMixAn=  0 NRI=1 NE=   65 Coef=  7.07106781D-01  7.07106781D-01
 Mixing orbitals, IMix= 1 IMixAn=  0 NRI=1 NE=   64 Coef= -7.07106781D-01  7.07106781D-01
 Initial guess <Sx>= 0.0000 <Sy>= 0.0000 <Sz>= 0.5000 <S**2>= 1.0000 S= 0.6180
 Leave Link  401 at Sat May 25 04:20:41 2019, MaxMem=   104857600 cpu:              30.9 elap:               1.0
 (Enter /opt/software/gaussian/g16.b01/l502.exe)
 Integral symmetry usage will be decided dynamically.
 UHF open shell SCF:
 Using DIIS extrapolation, IDIIS=  1040.
 NGot=   104857600 LenX=   104590331 LenY=   104463865
 Requested convergence on RMS density matrix=1.00D-08 within 128 cycles.
 Requested convergence on MAX density matrix=1.00D-06.
 Requested convergence on             energy=1.00D-06.
 No special actions if energy rises.
 Fock matrices will be formed incrementally for  20 cycles.

 Cycle   1  Pass 1  IDiag  1:
 FoFJK:  IHMeth= 1 ICntrl=       0 DoSepK=F KAlg= 0 I1Cent=           0 FoldK=F
 IRaf= 840000000 NMat=       1 IRICut=       1 DoRegI=T DoRafI=F ISym2E= 0 IDoP0=0 IntGTp=1.
 FoFCou: FMM=F IPFlag=           0 FMFlag=      100000 FMFlg1=           0
         NFxFlg=           0 DoJE=F BraDBF=F KetDBF=F FulRan=T
         wScrn=  0.000000 ICntrl=         0 IOpCl=  1 I1Cent=           0 NGrid=           0
         NMat0=    1 NMatS0=      1 NMatT0=    0 NMatD0=    1 NMtDS0=    0 NMtDT0=    0
 Symmetry not used in FoFCou.
 Inv3:  Mode=1 IEnd=    17078988.
 Iteration    1 A*A^-1 deviation from unit magnitude is 3.11D-15 for   1742.
 Iteration    1 A*A^-1 deviation from orthogonality  is 2.14D-15 for   2075   1325.
 Iteration    1 A^-1*A deviation from unit magnitude is 3.33D-15 for    785.
 Iteration    1 A^-1*A deviation from orthogonality  is 2.22D-15 for   2299    745.
 E= -769.864446659233    
 DIIS: error= 2.57D-02 at cycle   1 NSaved=   1.
 NSaved= 1 IEnMin= 1 EnMin= -769.864446659233     IErMin= 1 ErrMin= 2.57D-02
 ErrMax= 2.57D-02  0.00D+00 EMaxC= 1.00D-01 BMatC= 1.82D+00 BMatP= 1.82D+00
 IDIUse=3 WtCom= 7.43D-01 WtEn= 2.57D-01
 Coeff-Com:  0.100D+01
 Coeff-En:   0.100D+01
 Coeff:      0.100D+01
 Gap=     0.005 Goal=   None    Shift=    0.000
 Gap=    -0.000 Goal=   None    Shift=    0.000
 GapD=   -0.000 DampG=0.250 DampE=0.500 DampFc=0.2500 IDamp=-1.
 Damping current iteration by 2.50D-01
 RMSDP=4.54D-03 MaxDP=1.72D-01              OVMax= 5.92D-01

 Cycle   2  Pass 1  IDiag  1:
 RMSU=  1.11D-03    CP:  9.86D-01
 E= -770.046776881961     Delta-E=       -0.182330222727 Rises=F Damp=T
 DIIS: error= 1.43D-02 at cycle   2 NSaved=   2.
 NSaved= 2 IEnMin= 2 EnMin= -770.046776881961     IErMin= 2 ErrMin= 1.43D-02
 ErrMax= 1.43D-02  0.00D+00 EMaxC= 1.00D-01 BMatC= 4.82D-01 BMatP= 1.82D+00
 IDIUse=3 WtCom= 8.57D-01 WtEn= 1.43D-01
 Coeff-Com: -0.825D+00 0.183D+01
 Coeff-En:   0.000D+00 0.100D+01
 Coeff:     -0.707D+00 0.171D+01
 Gap=     0.103 Goal=   None    Shift=    0.000
 Gap=     0.120 Goal=   None    Shift=    0.000
 RMSDP=2.08D-03 MaxDP=4.89D-02 DE=-1.82D-01 OVMax= 1.81D-01

 Cycle   3  Pass 1  IDiag  1:
 RMSU=  1.48D-03    CP:  9.57D-01  2.24D+00
 E= -770.379473824634     Delta-E=       -0.332696942673 Rises=F Damp=F
 DIIS: error= 8.85D-03 at cycle   3 NSaved=   3.
 NSaved= 3 IEnMin= 3 EnMin= -770.379473824634     IErMin= 3 ErrMin= 8.85D-03
 ErrMax= 8.85D-03  0.00D+00 EMaxC= 1.00D-01 BMatC= 1.59D-01 BMatP= 4.82D-01
 IDIUse=3 WtCom= 9.12D-01 WtEn= 8.85D-02
 Coeff-Com: -0.466D+00 0.984D+00 0.482D+00
 Coeff-En:   0.000D+00 0.000D+00 0.100D+01
 Coeff:     -0.425D+00 0.897D+00 0.528D+00
 Gap=     0.115 Goal=   None    Shift=    0.000
 Gap=     0.131 Goal=   None    Shift=    0.000
 RMSDP=8.98D-04 MaxDP=4.52D-02 DE=-3.33D-01 OVMax= 9.66D-02

 Cycle   4  Pass 1  IDiag  1:
 RMSU=  7.78D-04    CP:  9.60D-01  2.30D+00  7.02D-01
 E= -770.408660863922     Delta-E=       -0.029187039288 Rises=F Damp=F
 DIIS: error= 4.59D-03 at cycle   4 NSaved=   4.
 NSaved= 4 IEnMin= 4 EnMin= -770.408660863922     IErMin= 4 ErrMin= 4.59D-03
 ErrMax= 4.59D-03  0.00D+00 EMaxC= 1.00D-01 BMatC= 4.23D-02 BMatP= 1.59D-01
 IDIUse=3 WtCom= 9.54D-01 WtEn= 4.59D-02
 Coeff-Com: -0.491D-01 0.118D+00 0.334D+00 0.597D+00
 Coeff-En:   0.000D+00 0.000D+00 0.223D+00 0.777D+00
 Coeff:     -0.468D-01 0.113D+00 0.329D+00 0.605D+00
 Gap=     0.118 Goal=   None    Shift=    0.000
 Gap=     0.149 Goal=   None    Shift=    0.000
 RMSDP=3.70D-04 MaxDP=2.03D-02 DE=-2.92D-02 OVMax= 4.37D-02

 Cycle   5  Pass 1  IDiag  1:
 RMSU=  2.22D-04    CP:  9.59D-01  2.29D+00  8.38D-01  7.23D-01
 E= -770.418412644361     Delta-E=       -0.009751780439 Rises=F Damp=F
 DIIS: error= 8.36D-04 at cycle   5 NSaved=   5.
 NSaved= 5 IEnMin= 5 EnMin= -770.418412644361     IErMin= 5 ErrMin= 8.36D-04
 ErrMax= 8.36D-04  0.00D+00 EMaxC= 1.00D-01 BMatC= 2.17D-03 BMatP= 4.23D-02
 IDIUse=3 WtCom= 9.92D-01 WtEn= 8.36D-03
 Coeff-Com:  0.511D-02-0.426D-02 0.121D+00 0.294D+00 0.585D+00
 Coeff-En:   0.000D+00 0.000D+00 0.000D+00 0.000D+00 0.100D+01
 Coeff:      0.507D-02-0.422D-02 0.119D+00 0.291D+00 0.588D+00
 Gap=     0.121 Goal=   None    Shift=    0.000
 Gap=     0.149 Goal=   None    Shift=    0.000
 RMSDP=9.84D-05 MaxDP=4.70D-03 DE=-9.75D-03 OVMax= 1.15D-02

 Cycle   6  Pass 1  IDiag  1:
 RMSU=  8.71D-05    CP:  9.58D-01  2.30D+00  8.43D-01  7.73D-01  9.12D-01
 E= -770.419025994416     Delta-E=       -0.000613350055 Rises=F Damp=F
 DIIS: error= 4.17D-04 at cycle   6 NSaved=   6.
 NSaved= 6 IEnMin= 6 EnMin= -770.419025994416     IErMin= 6 ErrMin= 4.17D-04
 ErrMax= 4.17D-04  0.00D+00 EMaxC= 1.00D-01 BMatC= 3.84D-04 BMatP= 2.17D-03
 IDIUse=3 WtCom= 9.96D-01 WtEn= 4.17D-03
 Coeff-Com:  0.105D-01-0.211D-01-0.909D-02 0.150D-01 0.287D+00 0.718D+00
 Coeff-En:   0.000D+00 0.000D+00 0.000D+00 0.000D+00 0.000D+00 0.100D+01
 Coeff:      0.105D-01-0.210D-01-0.906D-02 0.149D-01 0.286D+00 0.719D+00
 Gap=     0.123 Goal=   None    Shift=    0.000
 Gap=     0.149 Goal=   None    Shift=    0.000
 RMSDP=5.48D-05 MaxDP=3.59D-03 DE=-6.13D-04 OVMax= 9.09D-03

 Cycle   7  Pass 1  IDiag  1:
 RMSU=  3.58D-05    CP:  9.58D-01  2.30D+00  8.47D-01  7.97D-01  1.08D+00
                    CP:  9.61D-01
 E= -770.419202039425     Delta-E=       -0.000176045009 Rises=F Damp=F
 DIIS: error= 2.22D-04 at cycle   7 NSaved=   7.
 NSaved= 7 IEnMin= 7 EnMin= -770.419202039425     IErMin= 7 ErrMin= 2.22D-04
 ErrMax= 2.22D-04  0.00D+00 EMaxC= 1.00D-01 BMatC= 5.96D-05 BMatP= 3.84D-04
 IDIUse=3 WtCom= 9.98D-01 WtEn= 2.22D-03
 Coeff-Com: -0.478D-04-0.484D-03-0.235D-01-0.555D-01-0.408D-01 0.232D+00
 Coeff-Com:  0.889D+00
 Coeff-En:   0.000D+00 0.000D+00 0.000D+00 0.000D+00 0.000D+00 0.000D+00
 Coeff-En:   0.100D+01
 Coeff:     -0.477D-04-0.483D-03-0.234D-01-0.554D-01-0.407D-01 0.231D+00
 Coeff:      0.889D+00
 Gap=     0.123 Goal=   None    Shift=    0.000
 Gap=     0.150 Goal=   None    Shift=    0.000
 RMSDP=2.85D-05 MaxDP=1.56D-03 DE=-1.76D-04 OVMax= 3.94D-03

 Cycle   8  Pass 1  IDiag  1:
 RMSU=  1.88D-05    CP:  9.58D-01  2.31D+00  8.51D-01  8.04D-01  1.13D+00
                    CP:  1.13D+00  1.09D+00
 E= -770.419243883897     Delta-E=       -0.000041844472 Rises=F Damp=F
 DIIS: error= 1.09D-04 at cycle   8 NSaved=   8.
 NSaved= 8 IEnMin= 8 EnMin= -770.419243883897     IErMin= 8 ErrMin= 1.09D-04
 ErrMax= 1.09D-04  0.00D+00 EMaxC= 1.00D-01 BMatC= 2.13D-05 BMatP= 5.96D-05
 IDIUse=3 WtCom= 9.99D-01 WtEn= 1.09D-03
 Coeff-Com: -0.153D-02 0.277D-02-0.110D-01-0.337D-01-0.751D-01-0.221D-01
 Coeff-Com:  0.467D+00 0.674D+00
 Coeff-En:   0.000D+00 0.000D+00 0.000D+00 0.000D+00 0.000D+00 0.000D+00
 Coeff-En:   0.000D+00 0.100D+01
 Coeff:     -0.153D-02 0.277D-02-0.110D-01-0.336D-01-0.750D-01-0.220D-01
 Coeff:      0.466D+00 0.674D+00
 Gap=     0.123 Goal=   None    Shift=    0.000
 Gap=     0.150 Goal=   None    Shift=    0.000
 RMSDP=1.33D-05 MaxDP=8.89D-04 DE=-4.18D-05 OVMax= 1.87D-03

 Cycle   9  Pass 1  IDiag  1:
 RMSU=  9.71D-06    CP:  9.58D-01  2.31D+00  8.51D-01  8.05D-01  1.15D+00
                    CP:  1.18D+00  1.29D+00  9.69D-01
 E= -770.419256238863     Delta-E=       -0.000012354966 Rises=F Damp=F
 DIIS: error= 6.89D-05 at cycle   9 NSaved=   9.
 NSaved= 9 IEnMin= 9 EnMin= -770.419256238863     IErMin= 9 ErrMin= 6.89D-05
 ErrMax= 6.89D-05  0.00D+00 EMaxC= 1.00D-01 BMatC= 3.73D-06 BMatP= 2.13D-05
 IDIUse=1 WtCom= 1.00D+00 WtEn= 0.00D+00
 Coeff-Com: -0.400D-03 0.914D-03 0.276D-02 0.319D-02-0.945D-02-0.650D-01
 Coeff-Com: -0.616D-01 0.231D+00 0.899D+00
 Coeff:     -0.400D-03 0.914D-03 0.276D-02 0.319D-02-0.945D-02-0.650D-01
 Coeff:     -0.616D-01 0.231D+00 0.899D+00
 Gap=     0.123 Goal=   None    Shift=    0.000
 Gap=     0.150 Goal=   None    Shift=    0.000
 RMSDP=7.86D-06 MaxDP=4.57D-04 DE=-1.24D-05 OVMax= 1.06D-03

 Cycle  10  Pass 1  IDiag  1:
 RMSU=  4.61D-06    CP:  9.58D-01  2.30D+00  8.51D-01  8.04D-01  1.15D+00
                    CP:  1.20D+00  1.37D+00  1.23D+00  1.26D+00
 E= -770.419259816749     Delta-E=       -0.000003577886 Rises=F Damp=F
 DIIS: error= 4.19D-05 at cycle  10 NSaved=  10.
 NSaved=10 IEnMin=10 EnMin= -770.419259816749     IErMin=10 ErrMin= 4.19D-05
 ErrMax= 4.19D-05  0.00D+00 EMaxC= 1.00D-01 BMatC= 1.63D-06 BMatP= 3.73D-06
 IDIUse=1 WtCom= 1.00D+00 WtEn= 0.00D+00
 Coeff-Com:  0.169D-03-0.162D-03 0.522D-02 0.123D-01 0.175D-01-0.353D-01
 Coeff-Com: -0.183D+00-0.549D-01 0.526D+00 0.712D+00
 Coeff:      0.169D-03-0.162D-03 0.522D-02 0.123D-01 0.175D-01-0.353D-01
 Coeff:     -0.183D+00-0.549D-01 0.526D+00 0.712D+00
 Gap=     0.123 Goal=   None    Shift=    0.000
 Gap=     0.150 Goal=   None    Shift=    0.000
 RMSDP=4.89D-06 MaxDP=2.99D-04 DE=-3.58D-06 OVMax= 8.48D-04

 Cycle  11  Pass 1  IDiag  1:
 RMSU=  2.16D-06    CP:  9.58D-01  2.30D+00  8.51D-01  8.03D-01  1.15D+00
                    CP:  1.20D+00  1.41D+00  1.36D+00  1.60D+00  1.02D+00
 E= -770.419261169229     Delta-E=       -0.000001352480 Rises=F Damp=F
 DIIS: error= 1.87D-05 at cycle  11 NSaved=  11.
 NSaved=11 IEnMin=11 EnMin= -770.419261169229     IErMin=11 ErrMin= 1.87D-05
 ErrMax= 1.87D-05  0.00D+00 EMaxC= 1.00D-01 BMatC= 2.79D-07 BMatP= 1.63D-06
 IDIUse=1 WtCom= 1.00D+00 WtEn= 0.00D+00
 Coeff-Com:  0.198D-03-0.383D-03 0.915D-03 0.291D-02 0.746D-02 0.329D-02
 Coeff-Com: -0.484D-01-0.697D-01-0.620D-01 0.260D+00 0.905D+00
 Coeff:      0.198D-03-0.383D-03 0.915D-03 0.291D-02 0.746D-02 0.329D-02
 Coeff:     -0.484D-01-0.697D-01-0.620D-01 0.260D+00 0.905D+00
 Gap=     0.123 Goal=   None    Shift=    0.000
 Gap=     0.150 Goal=   None    Shift=    0.000
 RMSDP=2.81D-06 MaxDP=1.87D-04 DE=-1.35D-06 OVMax= 4.87D-04

 Cycle  12  Pass 1  IDiag  1:
 RMSU=  1.12D-06    CP:  9.58D-01  2.30D+00  8.51D-01  8.03D-01  1.15D+00
                    CP:  1.20D+00  1.42D+00  1.43D+00  1.76D+00  1.30D+00
                    CP:  1.17D+00
 E= -770.419261505731     Delta-E=       -0.000000336502 Rises=F Damp=F
 DIIS: error= 8.33D-06 at cycle  12 NSaved=  12.
 NSaved=12 IEnMin=12 EnMin= -770.419261505731     IErMin=12 ErrMin= 8.33D-06
 ErrMax= 8.33D-06  0.00D+00 EMaxC= 1.00D-01 BMatC= 9.76D-08 BMatP= 2.79D-07
 IDIUse=1 WtCom= 1.00D+00 WtEn= 0.00D+00
 Coeff-Com:  0.735D-04-0.173D-03-0.692D-03-0.127D-02-0.128D-03 0.996D-02
 Coeff-Com:  0.167D-01-0.225D-01-0.159D+00-0.323D-01 0.473D+00 0.717D+00
 Coeff:      0.735D-04-0.173D-03-0.692D-03-0.127D-02-0.128D-03 0.996D-02
 Coeff:      0.167D-01-0.225D-01-0.159D+00-0.323D-01 0.473D+00 0.717D+00
 Gap=     0.123 Goal=   None    Shift=    0.000
 Gap=     0.150 Goal=   None    Shift=    0.000
 RMSDP=1.20D-06 MaxDP=8.50D-05 DE=-3.37D-07 OVMax= 2.07D-04

 Cycle  13  Pass 1  IDiag  1:
 RMSU=  4.94D-07    CP:  9.58D-01  2.30D+00  8.51D-01  8.03D-01  1.15D+00
                    CP:  1.20D+00  1.43D+00  1.45D+00  1.83D+00  1.41D+00
                    CP:  1.45D+00  9.85D-01
 E= -770.419261580382     Delta-E=       -0.000000074651 Rises=F Damp=F
 DIIS: error= 3.78D-06 at cycle  13 NSaved=  13.
 NSaved=13 IEnMin=13 EnMin= -770.419261580382     IErMin=13 ErrMin= 3.78D-06
 ErrMax= 3.78D-06  0.00D+00 EMaxC= 1.00D-01 BMatC= 1.80D-08 BMatP= 9.76D-08
 IDIUse=1 WtCom= 1.00D+00 WtEn= 0.00D+00
 Coeff-Com: -0.271D-04 0.389D-04-0.556D-03-0.138D-02-0.232D-02 0.334D-02
 Coeff-Com:  0.212D-01 0.103D-01-0.527D-01-0.827D-01-0.466D-01 0.297D+00
 Coeff-Com:  0.854D+00
 Coeff:     -0.271D-04 0.389D-04-0.556D-03-0.138D-02-0.232D-02 0.334D-02
 Coeff:      0.212D-01 0.103D-01-0.527D-01-0.827D-01-0.466D-01 0.297D+00
 Coeff:      0.854D+00
 Gap=     0.123 Goal=   None    Shift=    0.000
 Gap=     0.150 Goal=   None    Shift=    0.000
 RMSDP=5.89D-07 MaxDP=4.36D-05 DE=-7.47D-08 OVMax= 8.62D-05

 Cycle  14  Pass 1  IDiag  1:
 RMSU=  2.71D-07    CP:  9.58D-01  2.30D+00  8.51D-01  8.03D-01  1.15D+00
                    CP:  1.20D+00  1.43D+00  1.46D+00  1.85D+00  1.46D+00
                    CP:  1.57D+00  1.23D+00  1.07D+00
 E= -770.419261596060     Delta-E=       -0.000000015678 Rises=F Damp=F
 DIIS: error= 1.51D-06 at cycle  14 NSaved=  14.
 NSaved=14 IEnMin=14 EnMin= -770.419261596060     IErMin=14 ErrMin= 1.51D-06
 ErrMax= 1.51D-06  0.00D+00 EMaxC= 1.00D-01 BMatC= 4.22D-09 BMatP= 1.80D-08
 IDIUse=1 WtCom= 1.00D+00 WtEn= 0.00D+00
 Coeff-Com: -0.297D-04 0.569D-04-0.115D-03-0.352D-03-0.105D-02-0.431D-03
 Coeff-Com:  0.598D-02 0.843D-02 0.765D-02-0.289D-01-0.112D+00-0.513D-02
 Coeff-Com:  0.384D+00 0.742D+00
 Coeff:     -0.297D-04 0.569D-04-0.115D-03-0.352D-03-0.105D-02-0.431D-03
 Coeff:      0.598D-02 0.843D-02 0.765D-02-0.289D-01-0.112D+00-0.513D-02
 Coeff:      0.384D+00 0.742D+00
 Gap=     0.123 Goal=   None    Shift=    0.000
 Gap=     0.150 Goal=   None    Shift=    0.000
 RMSDP=2.24D-07 MaxDP=1.24D-05 DE=-1.57D-08 OVMax= 3.39D-05

 Cycle  15  Pass 1  IDiag  1:
 RMSU=  1.23D-07    CP:  9.58D-01  2.30D+00  8.51D-01  8.03D-01  1.15D+00
                    CP:  1.20D+00  1.43D+00  1.46D+00  1.85D+00  1.47D+00
                    CP:  1.60D+00  1.30D+00  1.31D+00  9.78D-01
 E= -770.419261598641     Delta-E=       -0.000000002581 Rises=F Damp=F
 DIIS: error= 8.07D-07 at cycle  15 NSaved=  15.
 NSaved=15 IEnMin=15 EnMin= -770.419261598641     IErMin=15 ErrMin= 8.07D-07
 ErrMax= 8.07D-07  0.00D+00 EMaxC= 1.00D-01 BMatC= 1.65D-09 BMatP= 4.22D-09
 IDIUse=1 WtCom= 1.00D+00 WtEn= 0.00D+00
 Coeff-Com: -0.118D-04 0.251D-04 0.649D-04 0.133D-03-0.863D-04-0.109D-02
 Coeff-Com: -0.156D-02 0.266D-02 0.184D-01 0.286D-02-0.586D-01-0.772D-01
 Coeff-Com:  0.231D-01 0.453D+00 0.638D+00
 Coeff:     -0.118D-04 0.251D-04 0.649D-04 0.133D-03-0.863D-04-0.109D-02
 Coeff:     -0.156D-02 0.266D-02 0.184D-01 0.286D-02-0.586D-01-0.772D-01
 Coeff:      0.231D-01 0.453D+00 0.638D+00
 Gap=     0.123 Goal=   None    Shift=    0.000
 Gap=     0.150 Goal=   None    Shift=    0.000
 RMSDP=1.09D-07 MaxDP=5.88D-06 DE=-2.58D-09 OVMax= 1.43D-05

 Cycle  16  Pass 1  IDiag  1:
 RMSU=  6.22D-08    CP:  9.58D-01  2.30D+00  8.51D-01  8.03D-01  1.15D+00
                    CP:  1.20D+00  1.43D+00  1.46D+00  1.86D+00  1.48D+00
                    CP:  1.61D+00  1.33D+00  1.38D+00  1.18D+00  8.39D-01
 E= -770.419261599393     Delta-E=       -0.000000000752 Rises=F Damp=F
 DIIS: error= 3.67D-07 at cycle  16 NSaved=  16.
 NSaved=16 IEnMin=16 EnMin= -770.419261599393     IErMin=16 ErrMin= 3.67D-07
 ErrMax= 3.67D-07  0.00D+00 EMaxC= 1.00D-01 BMatC= 2.03D-10 BMatP= 1.65D-09
 IDIUse=1 WtCom= 1.00D+00 WtEn= 0.00D+00
 Coeff-Com:  0.131D-05-0.263D-05 0.474D-04 0.132D-03 0.205D-03-0.318D-03
 Coeff-Com: -0.203D-02-0.960D-03 0.533D-02 0.772D-02 0.435D-02-0.280D-01
 Coeff-Com: -0.864D-01 0.165D-02 0.255D+00 0.843D+00
 Coeff:      0.131D-05-0.263D-05 0.474D-04 0.132D-03 0.205D-03-0.318D-03
 Coeff:     -0.203D-02-0.960D-03 0.533D-02 0.772D-02 0.435D-02-0.280D-01
 Coeff:     -0.864D-01 0.165D-02 0.255D+00 0.843D+00
 Gap=     0.123 Goal=   None    Shift=    0.000
 Gap=     0.150 Goal=   None    Shift=    0.000
 RMSDP=5.31D-08 MaxDP=2.85D-06 DE=-7.52D-10 OVMax= 6.69D-06

 Cycle  17  Pass 1  IDiag  1:
 RMSU=  2.80D-08    CP:  9.58D-01  2.30D+00  8.51D-01  8.03D-01  1.15D+00
                    CP:  1.20D+00  1.43D+00  1.46D+00  1.86D+00  1.48D+00
                    CP:  1.62D+00  1.34D+00  1.41D+00  1.26D+00  1.05D+00
                    CP:  1.04D+00
 E= -770.419261599548     Delta-E=       -0.000000000155 Rises=F Damp=F
 DIIS: error= 2.05D-07 at cycle  17 NSaved=  17.
 NSaved=17 IEnMin=17 EnMin= -770.419261599548     IErMin=17 ErrMin= 2.05D-07
 ErrMax= 2.05D-07  0.00D+00 EMaxC= 1.00D-01 BMatC= 5.08D-11 BMatP= 2.03D-10
 IDIUse=1 WtCom= 1.00D+00 WtEn= 0.00D+00
 Coeff-Com:  0.122D-05-0.284D-05 0.104D-04 0.359D-04 0.109D-03 0.485D-04
 Coeff-Com: -0.607D-03-0.805D-03-0.970D-03 0.280D-02 0.125D-01 0.931D-03
 Coeff-Com: -0.429D-01-0.776D-01 0.125D-02 0.370D+00 0.735D+00
 Coeff:      0.122D-05-0.284D-05 0.104D-04 0.359D-04 0.109D-03 0.485D-04
 Coeff:     -0.607D-03-0.805D-03-0.970D-03 0.280D-02 0.125D-01 0.931D-03
 Coeff:     -0.429D-01-0.776D-01 0.125D-02 0.370D+00 0.735D+00
 Gap=     0.123 Goal=   None    Shift=    0.000
 Gap=     0.150 Goal=   None    Shift=    0.000
 RMSDP=2.26D-08 MaxDP=1.39D-06 DE=-1.55D-10 OVMax= 3.16D-06

 Cycle  18  Pass 1  IDiag  1:
 RMSU=  1.45D-08    CP:  9.58D-01  2.30D+00  8.51D-01  8.03D-01  1.15D+00
                    CP:  1.20D+00  1.43D+00  1.46D+00  1.86D+00  1.48D+00
                    CP:  1.62D+00  1.35D+00  1.42D+00  1.28D+00  1.11D+00
                    CP:  1.22D+00  1.08D+00
 E= -770.419261599581     Delta-E=       -0.000000000033 Rises=F Damp=F
 DIIS: error= 1.35D-07 at cycle  18 NSaved=  18.
 NSaved=18 IEnMin=18 EnMin= -770.419261599581     IErMin=18 ErrMin= 1.35D-07
 ErrMax= 1.35D-07  0.00D+00 EMaxC= 1.00D-01 BMatC= 1.73D-11 BMatP= 5.08D-11
 IDIUse=1 WtCom= 1.00D+00 WtEn= 0.00D+00
 Coeff-Com:  0.212D-06-0.870D-06-0.107D-04-0.261D-04-0.950D-05 0.125D-03
 Coeff-Com:  0.346D-03-0.330D-04-0.229D-02-0.115D-02 0.481D-02 0.926D-02
 Coeff-Com:  0.709D-02-0.379D-01-0.838D-01-0.951D-01 0.406D+00 0.793D+00
 Coeff:      0.212D-06-0.870D-06-0.107D-04-0.261D-04-0.950D-05 0.125D-03
 Coeff:      0.346D-03-0.330D-04-0.229D-02-0.115D-02 0.481D-02 0.926D-02
 Coeff:      0.709D-02-0.379D-01-0.838D-01-0.951D-01 0.406D+00 0.793D+00
 Gap=     0.123 Goal=   None    Shift=    0.000
 Gap=     0.150 Goal=   None    Shift=    0.000
 RMSDP=1.44D-08 MaxDP=9.87D-07 DE=-3.30D-11 OVMax= 2.25D-06

 Cycle  19  Pass 1  IDiag  1:
 RMSU=  7.28D-09    CP:  9.58D-01  2.30D+00  8.51D-01  8.03D-01  1.15D+00
                    CP:  1.20D+00  1.43D+00  1.46D+00  1.86D+00  1.48D+00
                    CP:  1.62D+00  1.35D+00  1.43D+00  1.29D+00  1.14D+00
                    CP:  1.32D+00  1.39D+00  1.06D+00
 E= -770.419261599586     Delta-E=       -0.000000000005 Rises=F Damp=F
 DIIS: error= 5.43D-08 at cycle  19 NSaved=  19.
 NSaved=19 IEnMin=19 EnMin= -770.419261599586     IErMin=19 ErrMin= 5.43D-08
 ErrMax= 5.43D-08  0.00D+00 EMaxC= 1.00D-01 BMatC= 3.05D-12 BMatP= 1.73D-11
 IDIUse=1 WtCom= 1.00D+00 WtEn= 0.00D+00
 Coeff-Com: -0.331D-07-0.773D-08-0.593D-05-0.169D-04-0.211D-04 0.440D-04
 Coeff-Com:  0.241D-03 0.154D-03-0.790D-03-0.950D-03-0.285D-03 0.352D-02
 Coeff-Com:  0.108D-01-0.146D-02-0.358D-01-0.109D+00 0.466D-01 0.328D+00
 Coeff-Com:  0.759D+00
 Coeff:     -0.331D-07-0.773D-08-0.593D-05-0.169D-04-0.211D-04 0.440D-04
 Coeff:      0.241D-03 0.154D-03-0.790D-03-0.950D-03-0.285D-03 0.352D-02
 Coeff:      0.108D-01-0.146D-02-0.358D-01-0.109D+00 0.466D-01 0.328D+00
 Coeff:      0.759D+00
 Gap=     0.123 Goal=   None    Shift=    0.000
 Gap=     0.150 Goal=   None    Shift=    0.000
 RMSDP=6.51D-09 MaxDP=4.49D-07 DE=-5.00D-12 OVMax= 1.06D-06

 Error on total polarization charges =  0.00982
 SCF Done:  E(UB3LYP) =  -770.419261600     A.U. after   19 cycles
            NFock= 19  Conv=0.65D-08     -V/T= 2.0095
 <Sx>= 0.0000 <Sy>= 0.0000 <Sz>= 0.5000 <S**2>= 0.7671 S= 0.5085
 <L.S>=  0.00000000000    
 KE= 7.631797214924D+02 PE=-4.421983306802D+03 EE= 1.572483928565D+03
 Annihilation of the first spin contaminant:
 S**2 before annihilation     0.7671,   after     0.7502
 Leave Link  502 at Sat May 25 04:21:27 2019, MaxMem=   104857600 cpu:            1456.5 elap:              46.3
 (Enter /opt/software/gaussian/g16.b01/l801.exe)
 DoSCS=F DFT=T ScalE2(SS,OS)=  1.000000  1.000000
 ExpMin= 1.61D-01 ExpMax= 5.48D+03 ExpMxC= 8.25D+02 IAcc=3 IRadAn=         5 AccDes= 0.00D+00
 HarFok:  IExCor=  205 AccDes= 0.00D+00 IRadAn=         5 IDoV=-2 UseB2=F ITyADJ=14
 ICtDFT= 12500011 ScaDFX=  1.000000  1.000000  1.000000  1.000000
 Largest valence mixing into a core orbital is  5.85D-05
 Largest core mixing into a valence orbital is  1.21D-05
 Largest valence mixing into a core orbital is  6.40D-05
 Largest core mixing into a valence orbital is  1.21D-05
 Range of M.O.s used for correlation:    19   355
 NBasis=   355 NAE=    65 NBE=    64 NFC=    18 NFV=     0
 NROrb=    337 NOA=    47 NOB=    46 NVA=   290 NVB=   291
 Leave Link  801 at Sat May 25 04:21:28 2019, MaxMem=   104857600 cpu:               4.6 elap:               0.2
 (Enter /opt/software/gaussian/g16.b01/l914.exe)
 UHF ground state
 Ignoring spin specification with unrestricted ground state.
 Two-electron integrals replicated using symmetry.
 MDV=   104857600 DFT=T DoStab=F Mixed=T DoRPA=T DoScal=F NonHer=T
 NEqPCM:  Using non-equilibrium solvation (IEInf=1, Eps=  35.6880, EpsInf=   1.8069)
 Inv3:  Mode=1 IEnd=    17078988.
 Iteration    1 A*A^-1 deviation from unit magnitude is 3.33D-15 for    634.
 Iteration    1 A*A^-1 deviation from orthogonality  is 2.23D-15 for   1874   1687.
 Iteration    1 A^-1*A deviation from unit magnitude is 3.11D-15 for     89.
 Iteration    1 A^-1*A deviation from orthogonality  is 1.96D-15 for   2086   1341.
 Making orbital integer symmetry assigments:
 Orbital symmetries:
 Alpha Orbitals:
       Occupied  (A) (A) (A) (A) (A) (A) (A) (A) (A) (A) (A) (A)
                 (A) (A) (A) (A) (A) (A) (A) (A) (A) (A) (A) (A)
                 (A) (A) (A) (A) (A) (A) (A) (A) (A) (A) (A) (A)
                 (A) (A) (A) (A) (A) (A) (A) (A) (A) (A) (A) (A)
                 (A) (A) (A) (A) (A) (A) (A) (A) (A) (A) (A) (A)
                 (A) (A) (A) (A) (A)
       Virtual   (A) (A) (A) (A) (A) (A) (A) (A) (A) (A) (A) (A)
                 (A) (A) (A) (A) (A) (A) (A) (A) (A) (A) (A) (A)
                 (A) (A) (A) (A) (A) (A) (A) (A) (A) (A) (A) (A)
                 (A) (A) (A) (A) (A) (A) (A) (A) (A) (A) (A) (A)
                 (A) (A) (A) (A) (A) (A) (A) (A) (A) (A) (A) (A)
                 (A) (A) (A) (A) (A) (A) (A) (A) (A) (A) (A) (A)
                 (A) (A) (A) (A) (A) (A) (A) (A) (A) (A) (A) (A)
                 (A) (A) (A) (A) (A) (A) (A) (A) (A) (A) (A) (A)
                 (A) (A) (A) (A) (A) (A) (A) (A) (A) (A) (A) (A)
                 (A) (A) (A) (A) (A) (A) (A) (A) (A) (A) (A) (A)
                 (A) (A) (A) (A) (A) (A) (A) (A) (A) (A) (A) (A)
                 (A) (A) (A) (A) (A) (A) (A) (A) (A) (A) (A) (A)
                 (A) (A) (A) (A) (A) (A) (A) (A) (A) (A) (A) (A)
                 (A) (A) (A) (A) (A) (A) (A) (A) (A) (A) (A) (A)
                 (A) (A) (A) (A) (A) (A) (A) (A) (A) (A) (A) (A)
                 (A) (A) (A) (A) (A) (A) (A) (A) (A) (A) (A) (A)
                 (A) (A) (A) (A) (A) (A) (A) (A) (A) (A) (A) (A)
                 (A) (A) (A) (A) (A) (A) (A) (A) (A) (A) (A) (A)
                 (A) (A) (A) (A) (A) (A) (A) (A) (A) (A) (A) (A)
                 (A) (A) (A) (A) (A) (A) (A) (A) (A) (A) (A) (A)
                 (A) (A) (A) (A) (A) (A) (A) (A) (A) (A) (A) (A)
                 (A) (A) (A) (A) (A) (A) (A) (A) (A) (A) (A) (A)
                 (A) (A) (A) (A) (A) (A) (A) (A) (A) (A) (A) (A)
                 (A) (A) (A) (A) (A) (A) (A) (A) (A) (A) (A) (A)
                 (A) (A)
 Beta  Orbitals:
       Occupied  (A) (A) (A) (A) (A) (A) (A) (A) (A) (A) (A) (A)
                 (A) (A) (A) (A) (A) (A) (A) (A) (A) (A) (A) (A)
                 (A) (A) (A) (A) (A) (A) (A) (A) (A) (A) (A) (A)
                 (A) (A) (A) (A) (A) (A) (A) (A) (A) (A) (A) (A)
                 (A) (A) (A) (A) (A) (A) (A) (A) (A) (A) (A) (A)
                 (A) (A) (A) (A)
       Virtual   (A) (A) (A) (A) (A) (A) (A) (A) (A) (A) (A) (A)
                 (A) (A) (A) (A) (A) (A) (A) (A) (A) (A) (A) (A)
                 (A) (A) (A) (A) (A) (A) (A) (A) (A) (A) (A) (A)
                 (A) (A) (A) (A) (A) (A) (A) (A) (A) (A) (A) (A)
                 (A) (A) (A) (A) (A) (A) (A) (A) (A) (A) (A) (A)
                 (A) (A) (A) (A) (A) (A) (A) (A) (A) (A) (A) (A)
                 (A) (A) (A) (A) (A) (A) (A) (A) (A) (A) (A) (A)
                 (A) (A) (A) (A) (A) (A) (A) (A) (A) (A) (A) (A)
                 (A) (A) (A) (A) (A) (A) (A) (A) (A) (A) (A) (A)
                 (A) (A) (A) (A) (A) (A) (A) (A) (A) (A) (A) (A)
                 (A) (A) (A) (A) (A) (A) (A) (A) (A) (A) (A) (A)
                 (A) (A) (A) (A) (A) (A) (A) (A) (A) (A) (A) (A)
                 (A) (A) (A) (A) (A) (A) (A) (A) (A) (A) (A) (A)
                 (A) (A) (A) (A) (A) (A) (A) (A) (A) (A) (A) (A)
                 (A) (A) (A) (A) (A) (A) (A) (A) (A) (A) (A) (A)
                 (A) (A) (A) (A) (A) (A) (A) (A) (A) (A) (A) (A)
                 (A) (A) (A) (A) (A) (A) (A) (A) (A) (A) (A) (A)
                 (A) (A) (A) (A) (A) (A) (A) (A) (A) (A) (A) (A)
                 (A) (A) (A) (A) (A) (A) (A) (A) (A) (A) (A) (A)
                 (A) (A) (A) (A) (A) (A) (A) (A) (A) (A) (A) (A)
                 (A) (A) (A) (A) (A) (A) (A) (A) (A) (A) (A) (A)
                 (A) (A) (A) (A) (A) (A) (A) (A) (A) (A) (A) (A)
                 (A) (A) (A) (A) (A) (A) (A) (A) (A) (A) (A) (A)
                 (A) (A) (A) (A) (A) (A) (A) (A) (A) (A) (A) (A)
                 (A) (A) (A)
   144 initial guesses have been made.
 Convergence on wavefunction:    0.001000000000000
 Davidson Disk Diagonalization:  ConvIn= 1.00D-03 SkipCon=T Conv= 1.00D-03.
 Max sub-space:  2160 roots to seek:   144 dimension of matrix:        27016
 Iteration     1 Dimension   144 NMult     0 NNew    144
 CISAX will form     3 AO SS matrices at one time.
 NMat=     3 NSing=     3 JSym2X= 0.
 FoFJK:  IHMeth= 1 ICntrl=       0 DoSepK=F KAlg= 0 I1Cent=           0 FoldK=F
 IRaf= 840000000 NMat=       6 IRICut=       1 DoRegI=T DoRafI=F ISym2E= 0 IDoP0=0 IntGTp=1.
 NMat=     3 NSing=     3 JSym2X= 0.
 NMat=     3 NSing=     3 JSym2X= 0.
 NMat=     3 NSing=     3 JSym2X= 0.
 NMat=     3 NSing=     3 JSym2X= 0.
 NMat=     3 NSing=     3 JSym2X= 0.
 NMat=     3 NSing=     3 JSym2X= 0.
 NMat=     3 NSing=     3 JSym2X= 0.
 NMat=     3 NSing=     3 JSym2X= 0.
 NMat=     3 NSing=     3 JSym2X= 0.
 NMat=     3 NSing=     3 JSym2X= 0.
 NMat=     3 NSing=     3 JSym2X= 0.
 NMat=     3 NSing=     3 JSym2X= 0.
 NMat=     3 NSing=     3 JSym2X= 0.
 NMat=     3 NSing=     3 JSym2X= 0.
 NMat=     3 NSing=     3 JSym2X= 0.
 NMat=     3 NSing=     3 JSym2X= 0.
 NMat=     3 NSing=     3 JSym2X= 0.
 NMat=     3 NSing=     3 JSym2X= 0.
 NMat=     3 NSing=     3 JSym2X= 0.
 NMat=     3 NSing=     3 JSym2X= 0.
 NMat=     3 NSing=     3 JSym2X= 0.
 NMat=     3 NSing=     3 JSym2X= 0.
 NMat=     3 NSing=     3 JSym2X= 0.
 NMat=     3 NSing=     3 JSym2X= 0.
 NMat=     3 NSing=     3 JSym2X= 0.
 NMat=     3 NSing=     3 JSym2X= 0.
 NMat=     3 NSing=     3 JSym2X= 0.
 NMat=     3 NSing=     3 JSym2X= 0.
 NMat=     3 NSing=     3 JSym2X= 0.
 NMat=     3 NSing=     3 JSym2X= 0.
 NMat=     3 NSing=     3 JSym2X= 0.
 NMat=     3 NSing=     3 JSym2X= 0.
 NMat=     3 NSing=     3 JSym2X= 0.
 NMat=     3 NSing=     3 JSym2X= 0.
 NMat=     3 NSing=     3 JSym2X= 0.
 NMat=     3 NSing=     3 JSym2X= 0.
 NMat=     3 NSing=     3 JSym2X= 0.
 NMat=     3 NSing=     3 JSym2X= 0.
 NMat=     3 NSing=     3 JSym2X= 0.
 NMat=     3 NSing=     3 JSym2X= 0.
 NMat=     3 NSing=     3 JSym2X= 0.
 NMat=     3 NSing=     3 JSym2X= 0.
 NMat=     3 NSing=     3 JSym2X= 0.
 NMat=     3 NSing=     3 JSym2X= 0.
 NMat=     3 NSing=     3 JSym2X= 0.
 NMat=     3 NSing=     3 JSym2X= 0.
 NMat=     3 NSing=     3 JSym2X= 0.
 New state      1 was old state      3
 New state      2 was old state      1
 New state      3 was old state      2
 New state      6 was old state      7
 New state      7 was old state      6
 New state      9 was old state     10
 New state     10 was old state     12
 New state     12 was old state      9
 New state     13 was old state     45
 New state     14 was old state     31
 New state     17 was old state     13
 New state     18 was old state     21
 New state     19 was old state     17
 New state     20 was old state     27
 New state     21 was old state     18
 New state     23 was old state     19
 New state     24 was old state     47
 New state     25 was old state     28
 New state     26 was old state     25
 New state     27 was old state     24
 New state     28 was old state     30
 New state     29 was old state     20
 New state     30 was old state     39
 New state     31 was old state     42
 New state     32 was old state     46
 New state     33 was old state     43
 New state     34 was old state     23
 New state     35 was old state     32
 New state     36 was old state     48
 Excitation Energies [eV] at current iteration:
 Root      1 :     2.735810659959299
 Root      2 :     2.902859379654120
 Root      3 :     3.207097562311718
 Root      4 :     3.309229487996334
 Root      5 :     3.406920828100048
 Root      6 :     3.542578093572273
 Root      7 :     3.767911608514806
 Root      8 :     3.935153455160758
 Root      9 :     4.088171108677559
 Root     10 :     4.318285394353735
 Root     11 :     4.476649937902757
 Root     12 :     4.526208563801789
 Root     13 :     4.567908926067476
 Root     14 :     4.697141524623968
 Root     15 :     4.757152831482848
 Root     16 :     4.783318417773549
 Root     17 :     4.887153912492911
 Root     18 :     5.042318289292254
 Root     19 :     5.132659334881052
 Root     20 :     5.189350979745179
 Root     21 :     5.281149394620448
 Root     22 :     5.324120524426879
 Root     23 :     5.374636502320851
 Root     24 :     5.545985222095236
 Root     25 :     5.669191446357067
 Root     26 :     5.698860360077193
 Root     27 :     5.741944150655208
 Root     28 :     5.809118435336147
 Root     29 :     5.847166980732807
 Root     30 :     5.975700822621529
 Root     31 :     6.006485016067528
 Root     32 :     6.026805549529961
 Root     33 :     6.102220947184307
 Root     34 :     6.127683535650258
 Root     35 :     6.144748404717085
 Root     36 :     6.160759957668567
 Root     37 :     6.188643317107310
 Root     38 :     6.191761606985810
 Root     39 :     6.202118218429526
 Root     40 :     6.241322649218040
 Root     41 :     6.252629246078058
 Root     42 :     6.280983022426878
 Root     43 :     6.287017344374384
 Root     44 :     6.320636238846545
 Root     45 :     6.347255632721287
 Root     46 :     6.373788138882353
 Root     47 :     6.415968840170678
 Root     48 :     6.435263850740059
 Root     49 :     6.476494395241608
 Root     50 :     6.517118725679174
 Root     51 :     6.544087781226867
 Root     52 :     6.587835576187778
 Root     53 :     6.620399682640458
 Root     54 :     6.629523242365703
 Root     55 :     6.688823358202813
 Root     56 :     6.704676967507534
 Root     57 :     6.748968680579837
 Root     58 :     6.793165513395216
 Root     59 :     6.868980257753236
 Root     60 :     6.916286188199956
 Root     61 :     6.974549683288744
 Root     62 :     6.999683597765211
 Root     63 :     7.009656772092431
 Root     64 :     7.022935950009516
 Root     65 :     7.186144403694628
 Root     66 :     7.202014989851289
 Root     67 :     7.223730284698305
 Root     68 :     7.238676543516664
 Root     69 :     7.344137419298645
 Root     70 :     7.373960782032357
 Root     71 :     7.383226955876991
 Root     72 :     7.402468313372427
 Root     73 :     7.422545925050233
 Root     74 :     7.427343697263294
 Root     75 :     7.465020375831906
 Root     76 :     7.471655827891554
 Root     77 :     7.499690428187707
 Root     78 :     7.531862527735083
 Root     79 :     7.541697255825267
 Root     80 :     7.551412054565810
 Root     81 :     7.577810883272142
 Root     82 :     7.607954817303541
 Root     83 :     7.612260080275355
 Root     84 :     7.660726588568860
 Root     85 :     7.692358719254220
 Root     86 :     7.708718281423631
 Root     87 :     7.732277557264067
 Root     88 :     7.744462870187641
 Root     89 :     7.775253734323718
 Root     90 :     7.791570105159034
 Root     91 :     7.826642464136548
 Root     92 :     7.839417403610348
 Root     93 :     7.845300732675132
 Root     94 :     7.883644759925865
 Root     95 :     7.912214163322303
 Root     96 :     7.939462199402890
 Root     97 :     7.956765199876978
 Root     98 :     7.977102020797838
 Root     99 :     7.992715163422631
 Root    100 :     7.999210093144340
 Root    101 :     8.027058776957446
 Root    102 :     8.033822893424313
 Root    103 :     8.086825400055567
 Root    104 :     8.101890244475369
 Root    105 :     8.108036932008645
 Root    106 :     8.140573476073513
 Root    107 :     8.176791513470727
 Root    108 :     8.225992300137936
 Root    109 :     8.248724309457112
 Root    110 :     8.284176612438872
 Root    111 :     8.296886541057956
 Root    112 :     8.332216380129475
 Root    113 :     8.358895994396860
 Root    114 :     8.366336672151292
 Root    115 :     8.371743718059221
 Root    116 :     8.377935836303893
 Root    117 :     8.388740519589874
 Root    118 :     8.400929032335197
 Root    119 :     8.412449805485899
 Root    120 :     8.440974700124448
 Root    121 :     8.457856552877239
 Root    122 :     8.474798770000863
 Root    123 :     8.500550442937644
 Root    124 :     8.509279427714729
 Root    125 :     8.542088802577723
 Root    126 :     8.560218422615611
 Root    127 :     8.571820449386491
 Root    128 :     8.585080085466462
 Root    129 :     8.599793836247565
 Root    130 :     8.606519874241707
 Root    131 :     8.632692851489736
 Root    132 :     8.641401735139313
 Root    133 :     8.644277394426352
 Root    134 :     8.661293718629420
 Root    135 :     8.675302532891369
 Root    136 :     8.732450434774410
 Root    137 :     8.735254032137689
 Root    138 :     8.768571965663758
 Root    139 :     8.810120848577899
 Root    140 :     8.844583069065269
 Root    141 :     8.925632748729418
 Root    142 :     8.988969472093634
 Root    143 :     9.262919049633908
 Root    144 :     9.401717819043691
 Iteration     2 Dimension   216 NMult   144 NNew     72
 CISAX will form     3 AO SS matrices at one time.
 NMat=     3 NSing=     3 JSym2X= 0.
 NMat=     3 NSing=     3 JSym2X= 0.
 NMat=     3 NSing=     3 JSym2X= 0.
 NMat=     3 NSing=     3 JSym2X= 0.
 NMat=     3 NSing=     3 JSym2X= 0.
 NMat=     3 NSing=     3 JSym2X= 0.
 NMat=     3 NSing=     3 JSym2X= 0.
 NMat=     3 NSing=     3 JSym2X= 0.
 NMat=     3 NSing=     3 JSym2X= 0.
 NMat=     3 NSing=     3 JSym2X= 0.
 NMat=     3 NSing=     3 JSym2X= 0.
 NMat=     3 NSing=     3 JSym2X= 0.
 NMat=     3 NSing=     3 JSym2X= 0.
 NMat=     3 NSing=     3 JSym2X= 0.
 NMat=     3 NSing=     3 JSym2X= 0.
 NMat=     3 NSing=     3 JSym2X= 0.
 NMat=     3 NSing=     3 JSym2X= 0.
 NMat=     3 NSing=     3 JSym2X= 0.
 NMat=     3 NSing=     3 JSym2X= 0.
 NMat=     3 NSing=     3 JSym2X= 0.
 NMat=     3 NSing=     3 JSym2X= 0.
 NMat=     3 NSing=     3 JSym2X= 0.
 NMat=     3 NSing=     3 JSym2X= 0.
 NMat=     3 NSing=     3 JSym2X= 0.
 Root      1 not converged, maximum delta is    0.530106769829308
 Root      2 not converged, maximum delta is    0.446551047909354
 Root      3 not converged, maximum delta is    0.488282182797927
 Root      4 not converged, maximum delta is    0.412664963893901
 Root      5 not converged, maximum delta is    0.243918513530580
 Root      6 not converged, maximum delta is    0.191871803388819
 Root      7 not converged, maximum delta is    0.235294093779227
 Root      8 not converged, maximum delta is    0.174266127232131
 Root      9 not converged, maximum delta is    0.109910920604729
 Root     10 not converged, maximum delta is    0.302306401129635
 New state     11 was old state     12
 Root     11 not converged, maximum delta is    0.349646408999904
 New state     12 was old state     13
 Root     12 not converged, maximum delta is    0.329578440831706
 New state     13 was old state     11
 Root     13 not converged, maximum delta is    0.523673638564906
 Root     14 not converged, maximum delta is    0.485811091155938
 Root     15 not converged, maximum delta is    0.318596312721882
 Root     16 not converged, maximum delta is    0.279528284698790
 Root     17 not converged, maximum delta is    0.081535858397546
 Root     18 not converged, maximum delta is    0.145205021546274
 New state     19 was old state     22
 Root     19 not converged, maximum delta is    0.389335404845988
 New state     20 was old state     19
 Root     20 not converged, maximum delta is    0.093679523661070
 New state     21 was old state     20
 Root     21 not converged, maximum delta is    0.195844742496002
 New state     22 was old state     21
 Root     22 not converged, maximum delta is    0.215852463908794
 Root     23 not converged, maximum delta is    0.367092583841636
 New state     24 was old state     29
 Root     24 not converged, maximum delta is    0.178990681986081
 New state     25 was old state     24
 Root     25 not converged, maximum delta is    0.044853544162190
 New state     26 was old state     25
 Root     26 not converged, maximum delta is    0.045346210594525
 New state     27 was old state     26
 Root     27 not converged, maximum delta is    0.355247417147385
 New state     28 was old state     31
 Root     28 not converged, maximum delta is    0.372978679920196
 New state     29 was old state     27
 Root     29 not converged, maximum delta is    0.122187538072221
 New state     30 was old state     28
 Root     30 not converged, maximum delta is    0.119094506687953
 New state     31 was old state     30
 Root     31 not converged, maximum delta is    0.227832403396368
 Root     32 not converged, maximum delta is    0.151126574423401
 Root     33 not converged, maximum delta is    0.224349028240714
 Root     34 not converged, maximum delta is    0.215321695085117
 New state     35 was old state     36
 Root     35 not converged, maximum delta is    0.317037522246121
 New state     36 was old state     35
 Root     36 not converged, maximum delta is    0.355139933009167
 Excitation Energies [eV] at current iteration:
 Root      1 :     2.602504412802294   Change is   -0.133306247157005
 Root      2 :     2.719459611698408   Change is   -0.183399767955712
 Root      3 :     3.090756654370054   Change is   -0.116340907941664
 Root      4 :     3.184814570343098   Change is   -0.124414917653237
 Root      5 :     3.258716857499329   Change is   -0.148203970600719
 Root      6 :     3.465125074719957   Change is   -0.077453018852316
 Root      7 :     3.676043335517922   Change is   -0.091868272996885
 Root      8 :     3.877875254357540   Change is   -0.057278200803218
 Root      9 :     4.033741148404798   Change is   -0.054429960272762
 Root     10 :     4.060886037540149   Change is   -0.257399356813587
 Root     11 :     4.268379514828856   Change is   -0.257829048972933
 Root     12 :     4.332704710008072   Change is   -0.235204216059405
 Root     13 :     4.446200350448803   Change is   -0.030449587453955
 Root     14 :     4.575039827766820   Change is   -0.122101696857148
 Root     15 :     4.614612433923361   Change is   -0.142540397559486
 Root     16 :     4.751343561922890   Change is   -0.031974855850659
 Root     17 :     4.857116551765005   Change is   -0.030037360727906
 Root     18 :     4.952529521609163   Change is   -0.089788767683091
 Root     19 :     5.031049230042210   Change is   -0.293071294384668
 Root     20 :     5.053110364118536   Change is   -0.079548970762515
 Root     21 :     5.145237626407823   Change is   -0.044113353337356
 Root     22 :     5.209469441323377   Change is   -0.071679953297070
 Root     23 :     5.274918641934002   Change is   -0.099717860386850
 Root     24 :     5.384538797907766   Change is   -0.462628182825041
 Root     25 :     5.493198952198967   Change is   -0.052786269896269
 Root     26 :     5.608654806883266   Change is   -0.060536639473801
 Root     27 :     5.679225691982010   Change is   -0.019634668095182
 Root     28 :     5.695586038886931   Change is   -0.310898977180597
 Root     29 :     5.733279515721931   Change is   -0.008664634933278
 Root     30 :     5.774339048161946   Change is   -0.034779387174201
 Root     31 :     5.890737825414010   Change is   -0.084962997207519
 Root     32 :     5.963191812301131   Change is   -0.063613737228829
 Root     33 :     6.016328839765028   Change is   -0.085892107419280
 Root     34 :     6.036189578412020   Change is   -0.091493957238238
 Root     35 :     6.066482836911193   Change is   -0.094277120757374
 Root     36 :     6.115552298227141   Change is   -0.029196106489944
 Iteration     3 Dimension   288 NMult   216 NNew     72
 CISAX will form     3 AO SS matrices at one time.
 NMat=     3 NSing=     3 JSym2X= 0.
 NMat=     3 NSing=     3 JSym2X= 0.
 NMat=     3 NSing=     3 JSym2X= 0.
 NMat=     3 NSing=     3 JSym2X= 0.
 NMat=     3 NSing=     3 JSym2X= 0.
 NMat=     3 NSing=     3 JSym2X= 0.
 NMat=     3 NSing=     3 JSym2X= 0.
 NMat=     3 NSing=     3 JSym2X= 0.
 NMat=     3 NSing=     3 JSym2X= 0.
 NMat=     3 NSing=     3 JSym2X= 0.
 NMat=     3 NSing=     3 JSym2X= 0.
 NMat=     3 NSing=     3 JSym2X= 0.
 NMat=     3 NSing=     3 JSym2X= 0.
 NMat=     3 NSing=     3 JSym2X= 0.
 NMat=     3 NSing=     3 JSym2X= 0.
 NMat=     3 NSing=     3 JSym2X= 0.
 NMat=     3 NSing=     3 JSym2X= 0.
 NMat=     3 NSing=     3 JSym2X= 0.
 NMat=     3 NSing=     3 JSym2X= 0.
 NMat=     3 NSing=     3 JSym2X= 0.
 NMat=     3 NSing=     3 JSym2X= 0.
 NMat=     3 NSing=     3 JSym2X= 0.
 NMat=     3 NSing=     3 JSym2X= 0.
 NMat=     3 NSing=     3 JSym2X= 0.
 Root      1 not converged, maximum delta is    0.013502730761973
 Root      2 not converged, maximum delta is    0.017734387715475
 Root      3 not converged, maximum delta is    0.009018737431946
 Root      4 not converged, maximum delta is    0.006641264639447
 Root      5 not converged, maximum delta is    0.004966630004560
 Root      6 not converged, maximum delta is    0.005460355996952
 Root      7 not converged, maximum delta is    0.008388567708843
 Root      8 not converged, maximum delta is    0.005738178072077
 Root      9 not converged, maximum delta is    0.024839293192687
 Root     10 not converged, maximum delta is    0.047242367330867
 Root     11 not converged, maximum delta is    0.025478165596779
 Root     12 not converged, maximum delta is    0.015952722274224
 Root     13 not converged, maximum delta is    0.015116806451777
 Root     14 not converged, maximum delta is    0.043305140868710
 Root     15 not converged, maximum delta is    0.087093335496531
 Root     16 not converged, maximum delta is    0.005190337509118
 Root     17 not converged, maximum delta is    0.019074393815140
 Root     18 not converged, maximum delta is    0.037746649066722
 Root     19 not converged, maximum delta is    0.026182770810280
 Root     20 not converged, maximum delta is    0.008252238818645
 Root     21 not converged, maximum delta is    0.018560478964130
 Root     22 not converged, maximum delta is    0.019945810680703
 Root     23 not converged, maximum delta is    0.016809393935150
 Root     24 not converged, maximum delta is    0.013216015318944
 Root     25 not converged, maximum delta is    0.006888321916050
 Root     26 not converged, maximum delta is    0.007754267203507
 Root     27 not converged, maximum delta is    0.164776243107731
 Root     28 not converged, maximum delta is    0.160875592165118
 Root     29 not converged, maximum delta is    0.025067908835979
 Root     30 not converged, maximum delta is    0.007888347433211
 Root     31 not converged, maximum delta is    0.019176402221245
 Root     32 not converged, maximum delta is    0.026239514870902
 Root     33 not converged, maximum delta is    0.077635544336051
 Root     34 not converged, maximum delta is    0.200817432611103
 Root     35 not converged, maximum delta is    0.085231640312448
 Root     36 not converged, maximum delta is    0.109227367924097
 Excitation Energies [eV] at current iteration:
 Root      1 :     2.595185480453382   Change is   -0.007318932348911
 Root      2 :     2.716599660204312   Change is   -0.002859951494096
 Root      3 :     3.085532032304279   Change is   -0.005224622065775
 Root      4 :     3.180398044028838   Change is   -0.004416526314260
 Root      5 :     3.252366507307852   Change is   -0.006350350191477
 Root      6 :     3.461554867121163   Change is   -0.003570207598794
 Root      7 :     3.671164325172112   Change is   -0.004879010345810
 Root      8 :     3.875348519654897   Change is   -0.002526734702644
 Root      9 :     4.031566987102115   Change is   -0.002174161302683
 Root     10 :     4.055694767559861   Change is   -0.005191269980287
 Root     11 :     4.259393556168113   Change is   -0.008985958660744
 Root     12 :     4.325613034388357   Change is   -0.007091675619714
 Root     13 :     4.442797948126094   Change is   -0.003402402322709
 Root     14 :     4.563329824854307   Change is   -0.011710002912513
 Root     15 :     4.608875320939963   Change is   -0.005737112983399
 Root     16 :     4.750268205684089   Change is   -0.001075356238800
 Root     17 :     4.855659510420947   Change is   -0.001457041344057
 Root     18 :     4.947528761577773   Change is   -0.005000760031390
 Root     19 :     5.007879197683844   Change is   -0.023170032358366
 Root     20 :     5.048469377685492   Change is   -0.004640986433045
 Root     21 :     5.142614376054273   Change is   -0.002623250353550
 Root     22 :     5.204780205353847   Change is   -0.004689235969530
 Root     23 :     5.270192101519412   Change is   -0.004726540414589
 Root     24 :     5.369935912360917   Change is   -0.014602885546849
 Root     25 :     5.489705495445443   Change is   -0.003493456753524
 Root     26 :     5.603270980657358   Change is   -0.005383826225908
 Root     27 :     5.673391661461570   Change is   -0.005834030520440
 Root     28 :     5.689665240085530   Change is   -0.005920798801402
 Root     29 :     5.732173453652124   Change is   -0.001106062069806
 Root     30 :     5.771465626738522   Change is   -0.002873421423424
 Root     31 :     5.879547218567458   Change is   -0.011190606846551
 Root     32 :     5.955347584428609   Change is   -0.007844227872523
 Root     33 :     6.009485553813414   Change is   -0.006843285951613
 Root     34 :     6.026602803419868   Change is   -0.009586774992152
 Root     35 :     6.053959906150184   Change is   -0.012522930761009
 Root     36 :     6.103534370747974   Change is   -0.012017927479166
 Iteration     4 Dimension   360 NMult   288 NNew     72
 CISAX will form     3 AO SS matrices at one time.
 NMat=     3 NSing=     3 JSym2X= 0.
 NMat=     3 NSing=     3 JSym2X= 0.
 NMat=     3 NSing=     3 JSym2X= 0.
 NMat=     3 NSing=     3 JSym2X= 0.
 NMat=     3 NSing=     3 JSym2X= 0.
 NMat=     3 NSing=     3 JSym2X= 0.
 NMat=     3 NSing=     3 JSym2X= 0.
 NMat=     3 NSing=     3 JSym2X= 0.
 NMat=     3 NSing=     3 JSym2X= 0.
 NMat=     3 NSing=     3 JSym2X= 0.
 NMat=     3 NSing=     3 JSym2X= 0.
 NMat=     3 NSing=     3 JSym2X= 0.
 NMat=     3 NSing=     3 JSym2X= 0.
 NMat=     3 NSing=     3 JSym2X= 0.
 NMat=     3 NSing=     3 JSym2X= 0.
 NMat=     3 NSing=     3 JSym2X= 0.
 NMat=     3 NSing=     3 JSym2X= 0.
 NMat=     3 NSing=     3 JSym2X= 0.
 NMat=     3 NSing=     3 JSym2X= 0.
 NMat=     3 NSing=     3 JSym2X= 0.
 NMat=     3 NSing=     3 JSym2X= 0.
 NMat=     3 NSing=     3 JSym2X= 0.
 NMat=     3 NSing=     3 JSym2X= 0.
 NMat=     3 NSing=     3 JSym2X= 0.
 Root      1 has converged.
 Root      2 has converged.
 Root      3 has converged.
 Root      4 has converged.
 Root      5 has converged.
 Root      6 has converged.
 Root      7 has converged.
 Root      8 has converged.
 Root      9 not converged, maximum delta is    0.001314205047734
 Root     10 not converged, maximum delta is    0.002367239332188
 Root     11 has converged.
 Root     12 has converged.
 Root     13 not converged, maximum delta is    0.001176529555353
 Root     14 not converged, maximum delta is    0.001884804538823
 Root     15 not converged, maximum delta is    0.004748054747710
 Root     16 has converged.
 Root     17 not converged, maximum delta is    0.001427944627519
 Root     18 not converged, maximum delta is    0.003547454325435
 Root     19 not converged, maximum delta is    0.002563792276723
 Root     20 has converged.
 Root     21 not converged, maximum delta is    0.001012993329228
 Root     22 not converged, maximum delta is    0.001311666477847
 Root     23 not converged, maximum delta is    0.001079824218100
 Root     24 has converged.
 Root     25 has converged.
 Root     26 has converged.
[...]
     7  H    0.000039   0.000005  -0.000017  -0.000000  -0.000000  -0.000005
     8  C   -0.000164   0.000010  -0.000019  -0.000014  -0.000022   0.000002
     9  H   -0.000169   0.000000   0.000000   0.000006   0.000028   0.000000
    10  H   -0.000012   0.000000  -0.000000  -0.000000  -0.000009   0.000000
    11  H    0.001001  -0.000001   0.000001   0.000003   0.000031  -0.000003
    12  C   -0.000205   0.000001  -0.000000  -0.000005   0.000010   0.000002
    13  C    0.000106  -0.000000  -0.000000  -0.000000  -0.000005  -0.000000
    14  C    0.002678   0.000002   0.000000   0.000017   0.000004  -0.000047
    15  C   -0.000002   0.000000  -0.000000   0.000000   0.000000   0.000000
    16  H   -0.000000  -0.000000  -0.000000  -0.000000   0.000000   0.000000
    17  C   -0.000058   0.000000  -0.000000  -0.000002  -0.000018  -0.000000
    18  H    0.000119  -0.000006  -0.000000  -0.000116   0.000003  -0.000002
    19  C   -0.000067  -0.000000   0.000000  -0.000000   0.000005   0.000000
    20  H   -0.000000  -0.000000   0.000000   0.000000   0.000000   0.000000
    21  H   -0.000007   0.000000   0.000000  -0.000003   0.000000   0.000000
    22  H    0.000000   0.000000  -0.000000  -0.000000  -0.000000  -0.000000
    23  C   -0.004406   0.000398   0.000798   0.000940   0.000480   0.000306
    24  C    0.005160   0.000275   0.000487   0.000372  -0.000013  -0.008049
    25  C    0.183376   0.000306   0.000012   0.000867   0.000767  -0.007655
    26  C    0.000306  -0.091318   0.000405  -0.000135  -0.000013  -0.000738
    27  H    0.000012   0.000405  -0.008858  -0.000014   0.000001   0.000002
    28  C    0.000867  -0.000135  -0.000014  -0.091960   0.000307  -0.001609
    29  H    0.000767  -0.000013   0.000001   0.000307  -0.008761   0.000007
    30  C   -0.007655  -0.000738   0.000002  -0.001609   0.000007   0.201879
    31  H   -0.000009   0.000309   0.000030   0.000002  -0.000000  -0.000406
    32  H   -0.000376   0.000002  -0.000000   0.000392   0.000024  -0.000373
    33  H    0.000017   0.000079   0.000002   0.000077   0.000002   0.000960
    34  O    0.000247   0.000002  -0.000002   0.000001   0.000000  -0.000002
    35  H    0.000014   0.000002  -0.000010  -0.000000  -0.000000  -0.000000
              31         32         33         34         35
     1  C    0.000000   0.000000  -0.000000  -0.006723  -0.004124
     2  C   -0.000002  -0.000002   0.000000  -0.070312  -0.012897
     3  O   -0.000000  -0.000000   0.000000   0.003635   0.006006
     4  C    0.000000  -0.000000  -0.000000   0.000468   0.000358
     5  H    0.000000   0.000000  -0.000000  -0.000115  -0.000080
     6  H   -0.000003  -0.000000   0.000000   0.000212   0.000039
     7  H   -0.000001  -0.000000   0.000000   0.001693   0.000922
     8  C   -0.000000  -0.000000   0.000000   0.000532   0.001782
     9  H   -0.000000  -0.000000   0.000000  -0.000028   0.000037
    10  H   -0.000000  -0.000000   0.000000  -0.000762   0.002088
    11  H    0.000000   0.000000  -0.000000   0.002639  -0.000983
    12  C   -0.000000   0.000000  -0.000000   0.000259   0.000327
    13  C   -0.000000  -0.000000   0.000000   0.000009   0.000026
    14  C   -0.000000  -0.000003   0.000000   0.000021   0.000012
    15  C    0.000000   0.000000  -0.000000  -0.000000  -0.000000
    16  H    0.000000   0.000000  -0.000000  -0.000001  -0.000000
    17  C    0.000000  -0.000000   0.000000  -0.000000  -0.000000
    18  H   -0.000000  -0.000000   0.000000   0.000001   0.000001
    19  C    0.000000   0.000000  -0.000000  -0.000000  -0.000000
    20  H    0.000000   0.000000  -0.000000  -0.000000  -0.000000
    21  H    0.000000   0.000000  -0.000000  -0.000000  -0.000000
    22  H   -0.000000  -0.000000   0.000000   0.000000   0.000000
    23  C    0.000011  -0.000010  -0.000029   0.001998   0.000582
    24  C   -0.000346  -0.000007   0.000013   0.001747   0.000093
    25  C   -0.000009  -0.000376   0.000017   0.000247   0.000014
    26  C    0.000309   0.000002   0.000079   0.000002   0.000002
    27  H    0.000030  -0.000000   0.000002  -0.000002  -0.000010
    28  C    0.000002   0.000392   0.000077   0.000001  -0.000000
    29  H   -0.000000   0.000024   0.000002   0.000000  -0.000000
    30  C   -0.000406  -0.000373   0.000960  -0.000002  -0.000000
    31  H    0.003621  -0.000000   0.000044  -0.000000  -0.000000
    32  H   -0.000000   0.003525   0.000048   0.000000  -0.000000
    33  H    0.000044   0.000048  -0.009601   0.000000   0.000000
    34  O   -0.000000   0.000000   0.000000   0.132322  -0.001286
    35  H   -0.000000  -0.000000   0.000000  -0.001286   0.016701
 Mulliken charges and spin densities:
               1          2
     1  C    0.342167   0.049072
     2  C    0.218756   0.534289
     3  O   -0.577047   0.102202
     4  C   -0.362366  -0.001260
     5  H    0.137387   0.004391
     6  H    0.127699   0.000261
     7  H    0.125084   0.001107
     8  C   -0.350735  -0.031270
     9  H    0.131578   0.001864
    10  H    0.128952   0.009582
    11  H    0.133002   0.030042
    12  C    0.080720  -0.023712
    13  C   -0.115834   0.034562
    14  C   -0.120354   0.029951
    15  C   -0.101471  -0.016957
    16  H    0.107499  -0.001646
    17  C   -0.108523  -0.017546
    18  H    0.107307  -0.001242
    19  C   -0.092081   0.036219
    20  H    0.105681   0.000623
    21  H    0.106774   0.000617
    22  H    0.107479  -0.001620
    23  C    0.102686  -0.140019
    24  C   -0.124048   0.170953
    25  C   -0.126327   0.166880
    26  C   -0.100890  -0.090549
    27  H    0.109813  -0.007392
    28  C   -0.108354  -0.090887
    29  H    0.102867  -0.007192
    30  C   -0.099070   0.184432
    31  H    0.103552   0.003249
    32  H    0.104325   0.003219
    33  H    0.103671  -0.008388
    34  O   -0.541486   0.066556
    35  H    0.341588   0.009609
 Sum of Mulliken charges =  -0.00000   1.00000
 Mulliken charges and spin densities with hydrogens summed into heavy atoms:
               1          2
     1  C    0.342167   0.049072
     2  C    0.218756   0.534289
     3  O   -0.577047   0.102202
     4  C    0.027805   0.004498
     8  C    0.042797   0.010219
    12  C    0.080720  -0.023712
    13  C   -0.008336   0.032916
    14  C   -0.013047   0.028709
    15  C    0.004210  -0.016333
    17  C   -0.001750  -0.016929
    19  C    0.015397   0.034599
    23  C    0.102686  -0.140019
    24  C   -0.014236   0.163561
    25  C   -0.023460   0.159688
    26  C    0.002662  -0.087300
    28  C   -0.004029  -0.087668
    30  C    0.004601   0.176044
    34  O   -0.199899   0.076165
 Electronic spatial extent (au):  <R**2>=           4109.7823
 Charge=             -0.0000 electrons
 Dipole moment (field-independent basis, Debye):
    X=              0.1165    Y=              3.6757    Z=              0.1400  Tot=              3.6803
 Quadrupole moment (field-independent basis, Debye-Ang):
   XX=           -101.7032   YY=           -103.5469   ZZ=           -101.9305
   XY=             -2.3162   XZ=             -7.7970   YZ=             -0.5534
 Traceless Quadrupole moment (field-independent basis, Debye-Ang):
   XX=              0.6903   YY=             -1.1534   ZZ=              0.4630
   XY=             -2.3162   XZ=             -7.7970   YZ=             -0.5534
 Octapole moment (field-independent basis, Debye-Ang**2):
  XXX=             -5.0958  YYY=             22.9988  ZZZ=              0.1062  XYY=              6.0126
  XXY=             20.5452  XXZ=             -1.4859  XZZ=             -1.1571  YZZ=            -13.2246
  YYZ=              4.2861  XYZ=              1.3794
 Hexadecapole moment (field-independent basis, Debye-Ang**3):
 XXXX=          -2936.4900 YYYY=          -1602.9346 ZZZZ=           -724.5202 XXXY=             -4.3826
 XXXZ=           -147.0414 YYYX=            -28.5488 YYYZ=            -14.5630 ZZZX=              0.3376
 ZZZY=              0.6880 XXYY=           -758.7666 XXZZ=           -652.4443 YYZZ=           -399.3826
 XXYZ=              4.0402 YYXZ=            -22.0609 ZZXY=              2.8441
 N-N= 1.315900395145D+03 E-N=-4.421983300958D+03  KE= 7.631797214924D+02
 Leave Link  601 at Sat May 25 04:49:35 2019, MaxMem=   104857600 cpu:               5.0 elap:               0.2
 (Enter /opt/software/gaussian/g16.b01/l9999.exe)
 Electronic transition elements 
                 1             2             3             4             5 
      1  -0.770324D+03 -0.770319D+03 -0.770306D+03 -0.770302D+03 -0.770300D+03
      2  -0.137948D+01  0.674997D+00 -0.699746D+00  0.540896D+00  0.247951D+00
      3  -0.624830D-01  0.128365D+00  0.521251D-01 -0.140591D-01  0.253153D+00
      4  -0.462570D+00  0.281460D+00 -0.920395D-01 -0.217933D-02  0.689625D-01
      5   0.127177D+00 -0.628704D-01  0.758206D-01 -0.633855D-01 -0.268604D-01
      6   0.650149D-02 -0.118892D-01 -0.549370D-02  0.129486D-02 -0.271236D-01
      7   0.429670D-01 -0.280975D-01  0.110408D-01  0.323417D-02 -0.929384D-02
      8  -0.168669D+00  0.208182D+00 -0.226067D+00  0.179248D+00  0.195434D-01
      9   0.191961D+00  0.408522D+00  0.192155D-01 -0.235992D-01 -0.135805D+00
     10   0.269403D+00 -0.470199D+00  0.564218D+00 -0.384267D-01 -0.230359D+00
     11   0.448354D-01 -0.770808D-01 -0.171289D-01 -0.424723D-01 -0.194973D+00
     12  -0.410617D-01  0.284578D-01  0.122376D-02  0.311440D-02  0.600539D-01
     13   0.131126D-01  0.230633D-01  0.419266D-02  0.858530D-02  0.180497D-01
     14   0.171749D+00 -0.872664D-01  0.330075D+00 -0.129282D+00 -0.723854D-01
     15  -0.916685D-02  0.520385D-02  0.980178D-02  0.111134D-01  0.339860D-01
     16  -0.782737D-01  0.583143D-01  0.393946D-01  0.709708D-02  0.251070D-03
                 6             7             8             9            10 
      1  -0.770292D+03 -0.770284D+03 -0.770277D+03 -0.770271D+03 -0.770270D+03
      2  -0.203399D+00  0.455848D-01 -0.130643D+00  0.560403D-01 -0.263916D+00
      3   0.190295D-01 -0.184503D+00  0.565485D-01 -0.731114D-01  0.205341D+00
      4   0.845909D-01 -0.110644D+00  0.105328D+00 -0.744156D-01  0.134095D+00
      5   0.274235D-01 -0.790589D-02  0.168075D-01 -0.744984D-02  0.397599D-01
      6  -0.681467D-02  0.297153D-01 -0.665123D-02  0.111940D-01 -0.280843D-01
      7  -0.121929D-01  0.159066D-01 -0.141762D-01  0.114231D-01 -0.203805D-01
      8  -0.228684D+00  0.188803D+00 -0.335135D+00  0.163284D+00 -0.144837D+00
      9   0.320849D-01 -0.301898D+00  0.865190D-01  0.364157D+00  0.167304D+00
     10  -0.534921D+00  0.396240D+00 -0.595724D+00 -0.198692D+00  0.126379D+00
     11   0.650055D-01 -0.349463D+00 -0.317114D-02 -0.453821D-01 -0.969603D-01
     12  -0.351011D-01  0.965997D-01 -0.108116D-02 -0.603043D-02  0.150675D-01
     13  -0.970822D-02  0.714035D-01  0.240963D-01  0.563331D-01  0.183230D-01
     14  -0.563294D-01  0.792587D-01 -0.138365D+00 -0.897129D-01  0.238772D+00
     15  -0.301814D-01  0.108963D+00 -0.140283D-01  0.455685D-02  0.105770D-01
     16  -0.466912D-01  0.224118D-01 -0.738076D-01 -0.244379D-01  0.730419D-01
                11            12            13            14            15 
      1  -0.770263D+03 -0.770260D+03 -0.770256D+03 -0.770252D+03 -0.770250D+03
      2   0.457893D+00 -0.442517D+00  0.140182D+00  0.510845D+00  0.136746D+00
      3   0.772551D+00 -0.534464D+00  0.309029D+00 -0.709909D-01  0.391445D+00
      4  -0.146511D+00  0.826230D-01 -0.122456D+00  0.209490D-01  0.666208D-01
      5  -0.701973D-01  0.695014D-01 -0.241658D-01 -0.829495D-01 -0.219619D-01
      6  -0.116668D+00  0.830017D-01 -0.504994D-01  0.102293D-01 -0.644040D-01
      7   0.220632D-01 -0.129914D-01  0.196883D-01  0.931791D-03 -0.915800D-02
      8   0.157568D+00 -0.139833D+00  0.111067D+00  0.141582D-01 -0.735471D-01
      9  -0.212712D+00  0.226817D+00  0.195706D+00 -0.307197D+00 -0.287078D+00
     10  -0.369083D+00  0.372695D+00  0.140236D+00 -0.275793D+00 -0.488583D-01
     11  -0.677727D+00  0.540260D+00  0.554039D-01  0.842891D-01 -0.316388D+00
     12   0.791712D-01 -0.841406D-01 -0.361622D-01 -0.704163D-01 -0.123731D-01
     13   0.184137D+00 -0.151860D+00  0.125949D-01  0.187074D-01  0.108768D+00
     14  -0.304085D+00  0.258167D+00 -0.618648D-01 -0.805304D-01  0.873804D-01
     15   0.832131D-01 -0.630145D-01 -0.491263D-01 -0.168182D-01  0.332489D-01
     16  -0.926511D-01  0.757151D-01 -0.116574D-01  0.311847D-01  0.433737D-01
                16            17            18            19            20 
      1  -0.770245D+03 -0.770241D+03 -0.770237D+03 -0.770235D+03 -0.770234D+03
      2   0.123208D+00 -0.375102D-01 -0.105666D+00  0.377795D+00 -0.887394D-01
      3   0.109754D+00 -0.141621D-01  0.359969D-01 -0.622233D-01 -0.448389D+00
      4   0.237480D-01 -0.659482D-01 -0.256707D+00 -0.932545D-01  0.869260D-01
      5  -0.217277D-01  0.517820D-02  0.207925D-01 -0.646441D-01  0.159782D-01
      6  -0.202396D-01  0.281614D-02 -0.652797D-02  0.117973D-01  0.853880D-01
      7  -0.502757D-02  0.123799D-01  0.467801D-01  0.166825D-01 -0.165909D-01
      8   0.935707D-02  0.165944D-01 -0.257359D-01 -0.111587D+00  0.499827D-02
      9  -0.231827D+00 -0.574236D-01 -0.229055D+00  0.216769D+00 -0.131910D+00
     10  -0.528801D-01  0.448420D-01 -0.155390D+00 -0.585504D-01  0.172561D-01
     11  -0.205642D-01 -0.371292D-01 -0.159018D+00  0.747367D-01 -0.187826D+00
     12  -0.188809D-02 -0.141931D-01 -0.437429D-01  0.129472D+00  0.166286D+00
     13  -0.129722D-01  0.315040D-01  0.932894D-01 -0.144174D+00 -0.234153D-01
     14  -0.684730D-01  0.472299D-01 -0.184925D+00 -0.948729D-01  0.642582D-01
     15   0.240089D-02  0.122434D-01  0.313603D-01  0.634096D-02  0.118639D+00
     16   0.135652D-02  0.132010D-02 -0.186685D+00 -0.202925D-01  0.282783D-01
                21            22            23            24            25 
      1  -0.770230D+03 -0.770228D+03 -0.770226D+03 -0.770222D+03 -0.770218D+03
      2   0.146351D-01  0.520136D-02  0.136897D+00 -0.646101D-01  0.894303D-01
      3   0.190596D+00  0.249585D+00 -0.218563D+00  0.115377D+01 -0.134610D+00
      4  -0.912274D-01 -0.240699D+00 -0.364271D+00 -0.264103D-01 -0.858666D-01
      5  -0.344083D-04  0.979460D-03 -0.300910D-01  0.133340D-01 -0.183951D-01
      6  -0.359303D-01 -0.468924D-01  0.414893D-01 -0.219970D+00  0.277217D-01
      7   0.174039D-01  0.465802D-01  0.695399D-01  0.555352D-02  0.176317D-01
      8  -0.123824D+00 -0.661995D-01  0.256414D+00 -0.176898D+00  0.471638D-01
      9  -0.287302D-01 -0.179777D+00 -0.294101D-01 -0.450955D+00 -0.467809D-01
     10  -0.175893D+00 -0.167093D-01  0.111342D+00  0.306297D+00  0.877495D-01
     11  -0.131145D+00 -0.330025D+00  0.613358D-01 -0.132045D+01 -0.444233D-01
     12  -0.212604D-01 -0.236672D-01  0.134178D-01  0.103670D+00  0.529488D-01
     13   0.493776D-01  0.122411D+00  0.662222D-02  0.231156D+00 -0.472353D-02
     14  -0.147202D+00 -0.993014D-01 -0.493058D-01  0.296978D+00  0.147268D-01
     15   0.154565D-02  0.468594D-01  0.205568D-01  0.192445D+00  0.403790D-01
     16  -0.110504D+00 -0.126897D+00 -0.476265D-01  0.441504D-01  0.133395D-01
                26            27            28            29            30 
      1  -0.770213D+03 -0.770211D+03 -0.770210D+03 -0.770209D+03 -0.770207D+03
      2  -0.230440D-01 -0.278144D+00  0.235174D+00 -0.218737D+00 -0.386700D-03
      3   0.571405D-01 -0.122512D-01 -0.332321D-01  0.580319D-01  0.338441D-01
      4   0.805999D-02  0.343716D+00 -0.249385D+00  0.137667D+00 -0.453340D-01
      5   0.321938D-02  0.582938D-01 -0.493791D-01  0.467938D-01  0.212310D-03
      6  -0.103975D-01  0.310796D-02  0.548011D-02 -0.108527D-01 -0.765052D-02
      7  -0.284988D-02 -0.720367D-01  0.499394D-01 -0.256613D-01  0.100394D-01
      8   0.108443D+00 -0.156479D+00  0.124058D+00 -0.121597D+00 -0.425926D-01
      9   0.163935D+00 -0.206920D-01 -0.134287D-01 -0.109684D-02 -0.652668D-01
     10  -0.248989D-02  0.341204D+00 -0.245571D+00  0.324965D-01  0.860616D-01
     11  -0.370313D-01  0.654808D-01 -0.964725D-02 -0.824179D-01 -0.528607D-01
     12   0.930020D-01  0.561299D-01 -0.517765D-01  0.259782D-01 -0.242401D-01
     13  -0.874679D-01 -0.596350D-01  0.595621D-01 -0.127196D-01  0.489903D-01
     14  -0.473254D-01  0.547313D+00 -0.416548D+00  0.171490D+00 -0.343546D-01
     15   0.108406D-01  0.668133D-02  0.461191D-02 -0.607025D-02  0.595799D-02
     16  -0.269761D-02  0.183671D+00 -0.141380D+00  0.366769D-01 -0.286346D-01
                31            32            33            34            35 
      1  -0.770203D+03 -0.770200D+03 -0.770198D+03 -0.770198D+03 -0.770197D+03
      2   0.650713D-01 -0.636201D+00  0.569702D-02 -0.200479D+00 -0.423616D+00
      3   0.780247D-01 -0.318149D-01 -0.190756D-01  0.127103D+00 -0.936944D-01
      4  -0.500663D-01  0.266959D+00 -0.106712D-01  0.252607D-01  0.169544D+00
      5  -0.169692D-01  0.139239D+00 -0.180996D-03  0.415070D-01  0.943380D-01
      6  -0.169532D-01  0.740125D-02  0.428078D-02 -0.265341D-01  0.202584D-01
      7   0.102010D-01 -0.628824D-01  0.189472D-02 -0.743400D-02 -0.393815D-01
      8   0.334193D+00 -0.183580D+00  0.241592D-01 -0.530743D-01 -0.163251D+00
      9  -0.159685D+00 -0.821127D-01  0.557894D-01 -0.134036D+00  0.219855D+00
     10  -0.426917D-01 -0.444464D+00  0.286823D-01 -0.158465D+00  0.530801D-01
     11  -0.761745D-02 -0.214437D+00  0.199967D-01 -0.178942D+00  0.156037D+00
     12   0.888710D-01  0.678245D-01 -0.309730D-01  0.217036D-02  0.660509D-01
     13  -0.640377D-01  0.238615D-01  0.117350D-01  0.371646D-01 -0.138274D+00
     14  -0.112197D-01  0.153605D+00  0.124083D+00  0.106345D+00  0.282443D+00
     15   0.312669D-01  0.514639D-01 -0.139485D-01  0.853391D-02  0.623635D-02
     16  -0.215578D-01 -0.862262D-01  0.236773D-01 -0.562174D-01  0.301725D-01
                36 
      1  -0.770195D+03
      2  -0.737757D+00
      3  -0.913616D-01
      4   0.169156D+00
      5   0.159486D+00
      6   0.221844D-01
      7  -0.417050D-01
      8  -0.607885D-01
      9  -0.162385D+00
     10   0.233745D+00
     11  -0.139925D+00
     12   0.504353D-01
     13   0.531379D-02
     14   0.605441D+00
     15   0.284842D-01
     16   0.418811D-01
 1\1\GINC-GRA739\SP\UB3LYP TD-FC\6-31G(d,p)\C16H17O2(2)\RZK\25-May-2019
 \0\\#p td=(50-50,nstates=36) ub3lyp/6-31g(d,p) scrf=(iefpcm,solvent=ac
 etonitrile) guess=(mix,always) empiricaldispersion=gd3\\Title Card Req
 uired\\0,2\C,0,-0.895961,-1.395142,-0.867514\C,0,0.728021,-1.242145,0.
 892962\O,0,-1.294635,-2.50149,-0.442734\C,0,0.093742,-1.375581,-2.0190
 37\H,0,-0.48714,-1.431317,-2.947604\H,0,0.716551,-0.483513,-2.062885\H
 ,0,0.732764,-2.256093,-1.954319\C,0,-0.238842,-1.177853,2.041243\H,0,-
 0.722241,-0.206872,2.136406\H,0,-1.017138,-1.933625,1.912253\H,0,0.298
 582,-1.39369,2.973929\C,0,-1.656586,-0.150141,-0.545582\C,0,-2.84118,-
 0.263728,0.204153\C,0,-1.241738,1.125704,-0.963886\C,0,-3.585561,0.864
 571,0.534104\H,0,-3.159496,-1.252092,0.516075\C,0,-1.986705,2.256515,-
 0.630515\H,0,-0.328307,1.246132,-1.53319\C,0,-3.158385,2.13085,0.11946
 2\H,0,-4.499139,0.76074,1.111931\H,0,-1.648989,3.236561,-0.953529\H,0,
 -3.736615,3.012909,0.378008\C,0,1.61682,-0.160513,0.551946\C,0,2.75437
 6,-0.392088,-0.264407\C,0,1.368108,1.168745,0.977505\C,0,3.591819,0.65
 2602,-0.633983\H,0,2.959787,-1.401767,-0.598833\C,0,2.21067,2.207612,0
 .598988\H,0,0.505968,1.388288,1.595273\C,0,3.326965,1.960484,-0.208158
 \H,0,4.45757,0.450173,-1.257841\H,0,1.995808,3.217993,0.93412\H,0,3.98
 1818,2.775262,-0.501111\O,0,1.176577,-2.492216,0.582284\H,0,0.381308,-
 3.038783,0.411231\\Version=ES64L-G16RevB.01\State=2-A\HF=-770.4192616\
 S2=0.767074\S2-1=0.\S2A=0.750218\RMSD=6.509e-09\PG=C01 [X(C16H17O2)]\\
 @


 GROWING OLD ISN'T SO BAD -- WHEN YOU CONSIDER THE ALTERNATIVE.

                     -- MAURICE CHEVALIER
 Job cpu time:       0 days 15 hours 24 minutes 48.4 seconds.
 Elapsed time:       0 days  0 hours 28 minutes 56.6 seconds.
 File lengths (MBytes):  RWF=   2174 Int=      0 D2E=      0 Chk=    178 Scr=      1
 Normal termination of Gaussian 16 at Sat May 25 04:49:36 2019.
