 Entering Gaussian System, Link 0=g16
 Initial command:
 /opt/software/gaussian/g16.b01/l1.exe "/localscratch/rzk.15153359.0/Gau-13638.inp" -scrdir="/localscratch/rzk.15153359.0/"
 Entering Link 1 = /opt/software/gaussian/g16.b01/l1.exe PID=     13645.
  
 Copyright (c) 1988-2017, Gaussian, Inc.  All Rights Reserved.
  
 This is part of the Gaussian(R) 16 program.  It is based on
 the Gaussian(R) 09 system (copyright 2009, Gaussian, Inc.),
 the Gaussian(R) 03 system (copyright 2003, Gaussian, Inc.),
 the Gaussian(R) 98 system (copyright 1998, Gaussian, Inc.),
 the Gaussian(R) 94 system (copyright 1995, Gaussian, Inc.),
 the Gaussian 92(TM) system (copyright 1992, Gaussian, Inc.),
 the Gaussian 90(TM) system (copyright 1990, Gaussian, Inc.),
 the Gaussian 88(TM) system (copyright 1988, Gaussian, Inc.),
 the Gaussian 86(TM) system (copyright 1986, Carnegie Mellon
 University), and the Gaussian 82(TM) system (copyright 1983,
 Carnegie Mellon University). Gaussian is a federally registered
 trademark of Gaussian, Inc.
  
 This software contains proprietary and confidential information,
 including trade secrets, belonging to Gaussian, Inc.
  
 This software is provided under written license and may be
 used, copied, transmitted, or stored only in accord with that
 written license.
  
 The following legend is applicable only to US Government
 contracts under FAR:
  
                    RESTRICTED RIGHTS LEGEND
  
 Use, reproduction and disclosure by the US Government is
 subject to restrictions as set forth in subparagraphs (a)
 and (c) of the Commercial Computer Software - Restricted
 Rights clause in FAR 52.227-19.
  
 Gaussian, Inc.
 340 Quinnipiac St., Bldg. 40, Wallingford CT 06492
  
  
 ---------------------------------------------------------------
 Warning -- This program may not be used in any manner that
 competes with the business of Gaussian, Inc. or will provide
 assistance to any competitor of Gaussian, Inc.  The licensee
 of this program is prohibited from giving any competitor of
 Gaussian, Inc. access to this program.  By using this program,
 the user acknowledges that Gaussian, Inc. is engaged in the
 business of creating and licensing software in the field of
 computational chemistry and represents and warrants to the
 licensee that it is not a competitor of Gaussian, Inc. and that
 it will not use this program in any manner prohibited above.
 ---------------------------------------------------------------
  

 Cite this work as:
 Gaussian 16, Revision B.01,
 M. J. Frisch, G. W. Trucks, H. B. Schlegel, G. E. Scuseria, 
 M. A. Robb, J. R. Cheeseman, G. Scalmani, V. Barone, 
 G. A. Petersson, H. Nakatsuji, X. Li, M. Caricato, A. V. Marenich, 
 J. Bloino, B. G. Janesko, R. Gomperts, B. Mennucci, H. P. Hratchian, 
 J. V. Ortiz, A. F. Izmaylov, J. L. Sonnenberg, D. Williams-Young, 
 F. Ding, F. Lipparini, F. Egidi, J. Goings, B. Peng, A. Petrone, 
 T. Henderson, D. Ranasinghe, V. G. Zakrzewski, J. Gao, N. Rega, 
 G. Zheng, W. Liang, M. Hada, M. Ehara, K. Toyota, R. Fukuda, 
 J. Hasegawa, M. Ishida, T. Nakajima, Y. Honda, O. Kitao, H. Nakai, 
 T. Vreven, K. Throssell, J. A. Montgomery, Jr., J. E. Peralta, 
 F. Ogliaro, M. J. Bearpark, J. J. Heyd, E. N. Brothers, K. N. Kudin, 
 V. N. Staroverov, T. A. Keith, R. Kobayashi, J. Normand, 
 K. Raghavachari, A. P. Rendell, J. C. Burant, S. S. Iyengar, 
 J. Tomasi, M. Cossi, J. M. Millam, M. Klene, C. Adamo, R. Cammi, 
 J. W. Ochterski, R. L. Martin, K. Morokuma, O. Farkas, 
 J. B. Foresman, and D. J. Fox, Gaussian, Inc., Wallingford CT, 2016.
 
 ******************************************
 Gaussian 16:  ES64L-G16RevB.01 20-Dec-2017
                25-May-2019 
 ******************************************
 %NProcShared=32
 Will use up to   32 processors via shared memory.
 %chk=AH-A_16.chk
 ----------------------------------------------------------------------
 #p td=(50-50,nstates=36) ub3lyp/6-31g(d,p) scrf=(iefpcm,solvent=aceton
 itrile) guess=(mix,always) empiricaldispersion=gd3
 ----------------------------------------------------------------------
 1/38=1,172=1/1;
 2/12=2,17=6,18=5,40=1/2;
 3/5=1,6=6,7=101,11=2,25=1,30=1,70=2201,72=2,74=-5,116=2,124=31/1,2,3,8;
 4/13=-1/1;
 5/5=2,38=5,53=2/2;
 8/6=1,10=2,108=36/1;
 9/41=36,42=1,48=2,70=2/14;
 6/7=2,8=2,9=2,10=2/1;
 99/5=1,9=1/99;
 Leave Link    1 at Sat May 25 04:16:14 2019, MaxMem=           0 cpu:               2.8 elap:               0.1
 (Enter /opt/software/gaussian/g16.b01/l101.exe)
 -------------------
 Title Card Required
 -------------------
 Symbolic Z-matrix:
 Charge =  0 Multiplicity = 2
 C                    -0.60111  -1.3209   -0.57679 
 C                     0.65365  -1.30074   0.57002 
 O                    -1.1593   -2.519    -0.33366 
 C                     0.06059  -1.34129  -1.97945 
 H                    -0.72726  -1.43926  -2.72967 
 H                     0.62371  -0.42783  -2.17097 
 H                     0.73439  -2.19439  -2.04809 
 C                     0.02352  -1.37503   1.96757 
 H                    -0.65981  -0.55001   2.16813 
 H                    -0.53748  -2.30771   2.05839 
 H                     0.82226  -1.36277   2.71346 
 C                    -1.55933  -0.14519  -0.37958 
 C                    -2.74037  -0.34334   0.34967 
 C                    -1.30677   1.12975  -0.90681 
 C                    -3.6406    0.70165   0.55546 
 H                    -2.94562  -1.33074   0.74808 
 C                    -2.20708   2.17758  -0.70405 
 H                    -0.40055   1.31938  -1.46976 
 C                    -3.3763    1.96897   0.02949 
 H                    -4.54931   0.52618   1.12409 
 H                    -1.99138   3.1574   -1.11998 
 H                    -4.0756    2.7846    0.18801 
 C                     1.54103  -0.09659   0.37027 
 C                     2.69595  -0.19319  -0.42534 
 C                     1.23936   1.13979   0.96567 
 C                     3.52582   0.91064  -0.61424 
 H                     2.93973  -1.14326  -0.88396 
 C                     2.06838   2.24381   0.7742 
 H                     0.34907   1.25009   1.57242 
 C                     3.21449   2.13464  -0.01701 
 H                     4.41626   0.81447  -1.22824 
 H                     1.81718   3.19019   1.24329 
 H                     3.85909   2.99561  -0.16628 
 O                     1.41135  -2.46235   0.32457 
 H                     0.76169  -3.17462   0.19934 
 
 ITRead=  0  0  0  0  0  0  0  0  0  0  0  0  0  0  0  0  0  0  0  0
 ITRead=  0  0  0  0  0  0  0  0  0  0  0  0  0  0  0
 MicOpt= -1 -1 -1 -1 -1 -1 -1 -1 -1 -1 -1 -1 -1 -1 -1 -1 -1 -1 -1 -1
 MicOpt= -1 -1 -1 -1 -1 -1 -1 -1 -1 -1 -1 -1 -1 -1 -1
 NAtoms=     35 NQM=       35 NQMF=       0 NMMI=      0 NMMIF=      0
                NMic=       0 NMicF=      0.
                    Isotopes and Nuclear Properties:
 (Nuclear quadrupole moments (NQMom) in fm**2, nuclear magnetic moments (NMagM)
  in nuclear magnetons)

  Atom         1           2           3           4           5           6           7           8           9          10
 IAtWgt=          12          12          16          12           1           1           1          12           1           1
 AtmWgt=  12.0000000  12.0000000  15.9949146  12.0000000   1.0078250   1.0078250   1.0078250  12.0000000   1.0078250   1.0078250
 NucSpn=           0           0           0           0           1           1           1           0           1           1
 AtZEff=  -0.0000000  -0.0000000  -0.0000000  -0.0000000  -0.0000000  -0.0000000  -0.0000000  -0.0000000  -0.0000000  -0.0000000
 NQMom=    0.0000000   0.0000000   0.0000000   0.0000000   0.0000000   0.0000000   0.0000000   0.0000000   0.0000000   0.0000000
 NMagM=    0.0000000   0.0000000   0.0000000   0.0000000   2.7928460   2.7928460   2.7928460   0.0000000   2.7928460   2.7928460
 AtZNuc=   6.0000000   6.0000000   8.0000000   6.0000000   1.0000000   1.0000000   1.0000000   6.0000000   1.0000000   1.0000000

  Atom        11          12          13          14          15          16          17          18          19          20
 IAtWgt=           1          12          12          12          12           1          12           1          12           1
 AtmWgt=   1.0078250  12.0000000  12.0000000  12.0000000  12.0000000   1.0078250  12.0000000   1.0078250  12.0000000   1.0078250
 NucSpn=           1           0           0           0           0           1           0           1           0           1
 AtZEff=  -0.0000000  -0.0000000  -0.0000000  -0.0000000  -0.0000000  -0.0000000  -0.0000000  -0.0000000  -0.0000000  -0.0000000
 NQMom=    0.0000000   0.0000000   0.0000000   0.0000000   0.0000000   0.0000000   0.0000000   0.0000000   0.0000000   0.0000000
 NMagM=    2.7928460   0.0000000   0.0000000   0.0000000   0.0000000   2.7928460   0.0000000   2.7928460   0.0000000   2.7928460
 AtZNuc=   1.0000000   6.0000000   6.0000000   6.0000000   6.0000000   1.0000000   6.0000000   1.0000000   6.0000000   1.0000000

  Atom        21          22          23          24          25          26          27          28          29          30
 IAtWgt=           1           1          12          12          12          12           1          12           1          12
 AtmWgt=   1.0078250   1.0078250  12.0000000  12.0000000  12.0000000  12.0000000   1.0078250  12.0000000   1.0078250  12.0000000
 NucSpn=           1           1           0           0           0           0           1           0           1           0
 AtZEff=  -0.0000000  -0.0000000  -0.0000000  -0.0000000  -0.0000000  -0.0000000  -0.0000000  -0.0000000  -0.0000000  -0.0000000
 NQMom=    0.0000000   0.0000000   0.0000000   0.0000000   0.0000000   0.0000000   0.0000000   0.0000000   0.0000000   0.0000000
 NMagM=    2.7928460   2.7928460   0.0000000   0.0000000   0.0000000   0.0000000   2.7928460   0.0000000   2.7928460   0.0000000
 AtZNuc=   1.0000000   1.0000000   6.0000000   6.0000000   6.0000000   6.0000000   1.0000000   6.0000000   1.0000000   6.0000000

  Atom        31          32          33          34          35
 IAtWgt=           1           1           1          16           1
 AtmWgt=   1.0078250   1.0078250   1.0078250  15.9949146   1.0078250
 NucSpn=           1           1           1           0           1
 AtZEff=  -0.0000000  -0.0000000  -0.0000000  -0.0000000  -0.0000000
 NQMom=    0.0000000   0.0000000   0.0000000   0.0000000   0.0000000
 NMagM=    2.7928460   2.7928460   2.7928460   0.0000000   2.7928460
 AtZNuc=   1.0000000   1.0000000   1.0000000   8.0000000   1.0000000
 Leave Link  101 at Sat May 25 04:16:14 2019, MaxMem=   104857600 cpu:               5.3 elap:               0.2
 (Enter /opt/software/gaussian/g16.b01/l202.exe)
                          Input orientation:                          
 ---------------------------------------------------------------------
 Center     Atomic      Atomic             Coordinates (Angstroms)
 Number     Number       Type             X           Y           Z
 ---------------------------------------------------------------------
      1          6           0       -0.601112   -1.320901   -0.576788
      2          6           0        0.653645   -1.300739    0.570024
      3          8           0       -1.159302   -2.518996   -0.333664
      4          6           0        0.060585   -1.341291   -1.979454
      5          1           0       -0.727257   -1.439264   -2.729669
      6          1           0        0.623707   -0.427827   -2.170969
      7          1           0        0.734390   -2.194394   -2.048091
      8          6           0        0.023517   -1.375028    1.967569
      9          1           0       -0.659811   -0.550007    2.168134
     10          1           0       -0.537482   -2.307715    2.058390
     11          1           0        0.822261   -1.362772    2.713457
     12          6           0       -1.559330   -0.145189   -0.379575
     13          6           0       -2.740374   -0.343338    0.349667
     14          6           0       -1.306773    1.129754   -0.906806
     15          6           0       -3.640597    0.701651    0.555459
     16          1           0       -2.945623   -1.330743    0.748075
     17          6           0       -2.207081    2.177583   -0.704048
     18          1           0       -0.400550    1.319379   -1.469763
     19          6           0       -3.376304    1.968971    0.029489
     20          1           0       -4.549314    0.526181    1.124087
     21          1           0       -1.991383    3.157395   -1.119981
     22          1           0       -4.075598    2.784602    0.188012
     23          6           0        1.541033   -0.096586    0.370271
     24          6           0        2.695951   -0.193189   -0.425336
     25          6           0        1.239355    1.139786    0.965667
     26          6           0        3.525822    0.910637   -0.614235
     27          1           0        2.939732   -1.143261   -0.883961
     28          6           0        2.068378    2.243813    0.774196
     29          1           0        0.349069    1.250091    1.572420
     30          6           0        3.214494    2.134641   -0.017013
     31          1           0        4.416260    0.814474   -1.228235
     32          1           0        1.817183    3.190187    1.243287
     33          1           0        3.859091    2.995614   -0.166279
     34          8           0        1.411350   -2.462350    0.324566
     35          1           0        0.761691   -3.174622    0.199344
 ---------------------------------------------------------------------
                    Distance matrix (angstroms):
                    1          2          3          4          5
     1  C    0.000000
     2  C    1.700000   0.000000
     3  O    1.343919   2.363806   0.000000
     4  C    1.551042   2.617862   2.362993   0.000000
     5  H    2.159819   3.579672   2.663330   1.092299   0.000000
     6  H    2.199813   2.876789   3.305722   1.090046   1.777710
     7  H    2.170550   2.767610   2.575014   1.089270   1.780781
     8  C    2.620466   1.534833   2.829028   3.947341   4.757293
     9  H    2.851722   2.200618   3.222639   4.283408   4.978333
    10  H    2.814607   2.155926   2.480569   4.194740   4.869880
    11  H    3.585172   2.150950   3.814235   4.754369   5.659901
    12  C    1.529501   2.671010   2.407715   2.571847   2.808900
    13  C    2.527922   3.533347   2.774927   3.777047   3.838750
    14  C    2.571494   3.454209   3.696433   3.020977   3.202893
    15  C    3.822456   4.738174   4.161722   4.929315   4.884991
    16  H    2.692971   3.603794   2.402717   4.059164   4.126455
    17  C    3.851587   4.680356   4.826270   4.376236   4.401659
    18  H    2.794407   3.483831   4.074254   2.748017   3.050281
    19  C    4.346553   5.217631   5.018847   5.177441   5.123131
    20  H    4.678994   5.542148   4.784383   5.862643   5.772567
    21  H    4.720492   5.452270   5.790688   5.018709   5.031738
    22  H    5.432507   6.261125   6.074955   6.231285   6.129053
    23  C    2.642849   1.509087   3.695322   3.043390   4.069097
    24  C    3.487879   2.527533   4.503416   3.267809   4.310569
    25  C    3.438236   2.540817   4.563825   4.027279   4.916764
    26  C    4.691775   3.813405   5.813045   4.352341   5.299602
    27  H    3.558579   2.713865   4.358618   3.086877   4.115952
    28  C    4.653872   3.821911   5.859149   4.946392   5.801526
    29  H    3.483093   2.757589   4.484903   4.406165   5.186432
    30  C    5.178124   4.324858   6.394271   5.087280   5.972328
    31  H    5.491651   4.676017   6.557375   4.917678   5.812866
    32  H    5.432379   4.687805   6.628801   5.831465   6.609869
    33  H    6.220469   5.410700   7.458097   6.043591   6.875587
    34  O    2.483012   1.408441   2.654190   2.896523   3.866354
    35  H    2.428146   1.913247   2.098608   2.932544   3.715851
                    6          7          8          9         10
     6  H    0.000000
     7  H    1.774291   0.000000
     8  C    4.287763   4.159594   0.000000
     9  H    4.526606   4.735436   1.089873   0.000000
    10  H    4.771773   4.300429   1.092187   1.765374   0.000000
    11  H    4.977064   4.834424   1.092928   1.776092   1.780711
    12  C    2.838068   3.499191   3.086583   2.732002   3.415313
    13  C    4.204496   4.609733   3.364682   2.770970   3.410461
    14  C    2.784047   4.064337   4.038024   3.563062   4.604388
    15  C    5.185887   5.857138   4.442115   3.612818   4.576506
    16  H    4.698531   4.701801   3.210128   2.801973   2.910420
    17  C    4.117448   5.438096   4.973344   4.252437   5.525986
    18  H    2.143250   3.737533   4.388042   4.098306   5.061860
    19  C    5.156234   6.208684   5.147550   4.277661   5.519546
    20  H    6.207066   6.736599   5.023628   4.168507   4.999868
    21  H    4.560382   6.077242   5.842572   5.131239   6.487164
    22  H    6.161815   7.275063   6.105087   5.167988   6.476748
    23  C    2.721968   3.301507   2.547279   2.877780   3.472616
    24  C    2.719648   3.238190   3.776856   4.256118   4.592952
    25  C    3.560185   4.522663   2.967551   2.812145   4.029449
    26  C    3.554881   4.414663   4.914887   5.233983   5.831908
    27  H    2.744487   2.706217   4.085248   4.756463   4.701532
    28  C    4.230689   5.426095   4.324535   4.146264   5.399636
    29  H    4.111423   5.012090   2.674580   2.147805   3.698665
    30  C    4.232959   5.386719   5.141855   5.195425   6.174071
    31  H    4.100673   4.825103   5.856900   6.258085   6.714874
    32  H    5.115814   6.403071   4.958126   4.580381   6.036205
    33  H    5.119223   6.343592   6.194146   6.200112   7.239082
    34  O    3.314719   2.481849   2.409940   3.368309   2.613045
    35  H    3.630745   2.452051   2.628699   3.575669   2.428051
                   11         12         13         14         15
    11  H    0.000000
    12  C    4.089172   0.000000
    13  C    4.395352   1.402113   0.000000
    14  C    4.883828   1.402582   2.409136   0.000000
    15  C    5.369907   2.433742   1.394544   2.787154   0.000000
    16  H    4.249788   2.144514   1.084355   3.387994   2.156552
    17  C    5.778440   2.433133   2.783839   1.396285   2.412406
    18  H    5.117473   2.162462   3.398489   1.083567   3.870532
    19  C    5.994343   2.817517   2.419441   2.421547   1.397353
    20  H    5.911688   3.413465   2.151291   3.873358   1.086229
    21  H    6.560774   3.412028   3.869882   2.150689   3.399659
    22  H    6.896927   3.903516   3.404844   3.406397   2.159381
    23  C    2.758692   3.190123   4.288561   3.353332   5.246024
    24  C    3.838054   4.255798   5.493342   4.243087   6.474144
    25  C    3.080833   3.360577   4.291545   3.160542   4.916723
    26  C    4.852954   5.198904   6.462722   4.846399   7.264256
    27  H    4.180106   4.635959   5.867309   4.816630   6.984007
    28  C    4.280303   4.494306   5.477013   3.931735   5.917644
    29  H    2.890143   3.065791   3.684942   2.983765   4.153605
    30  C    5.040847   5.302685   6.460285   4.716289   7.026625
    31  H    5.761438   6.111371   7.419415   5.740716   8.252711
    32  H    4.886789   5.015900   5.835725   4.315945   6.037655
    33  H    6.042412   6.266532   7.414023   5.542199   7.875817
    34  O    2.694976   3.832752   4.661293   4.669869   5.965432
    35  H    3.099554   3.860019   4.505910   4.902016   5.876432
                   16         17         18         19         20
    16  H    0.000000
    17  C    3.868134   0.000000
    18  H    4.291777   2.141585   0.000000
    19  C    3.404404   1.395951   3.394825   0.000000
    20  H    2.482212   3.399303   4.956759   2.157716   0.000000
    21  H    4.954149   1.086074   2.455891   2.156766   4.301411
    22  H    4.304251   2.157684   4.289647   1.086000   2.490203
    23  C    4.668615   4.513797   3.026620   5.344423   6.168339
    24  C    5.873524   5.453253   3.600973   6.461740   7.443928
    25  C    4.864658   3.967731   2.941575   4.782080   5.823255
    26  C    6.982784   5.871916   4.039232   7.012403   8.269062
    27  H    6.110327   6.127810   4.191091   7.100189   7.931274
    28  C    6.157787   4.524284   3.462013   5.502244   6.845913
    29  H    4.265588   3.546329   3.133944   4.095831   4.971841
    30  C    7.109240   5.465102   3.980412   6.593044   8.010366
    31  H    7.918654   6.782439   4.849219   7.977392   9.273513
    32  H    6.585466   4.583905   3.972267   5.471470   6.902421
    33  H    8.115266   6.144657   4.759556   7.310490   8.858014
    34  O    4.521406   5.973279   4.561148   6.530337   6.715658
    35  H    4.176742   6.186746   4.932825   6.603666   6.538950
                   21         22         23         24         25
    21  H    0.000000
    22  H    2.488729   0.000000
    23  C    5.028639   6.315141   0.000000
    24  C    5.803451   7.422756   1.405759   0.000000
    25  C    4.342619   5.617730   1.405034   2.415240   0.000000
    26  C    5.978566   7.870002   2.433750   1.393844   2.788643
    27  H    6.547308   8.111232   2.150578   1.082776   3.394806
    28  C    4.572111   6.195523   2.432841   2.787778   1.393849
    29  H    4.045312   4.883543   2.163210   3.403225   1.083017
    30  C    5.418830   7.321880   2.815819   2.419588   2.420035
    31  H    6.823407   8.831694   3.413529   2.149301   3.874501
    32  H    4.482330   6.000248   3.411934   3.873470   2.148279
    33  H    5.929904   7.945397   3.901664   3.404184   3.404176
    34  O    6.726577   7.593138   2.369757   2.713235   3.662783
    35  H    7.029543   7.675405   3.179763   3.608397   4.407894
                   26         27         28         29         30
    26  C    0.000000
    27  H    2.152847   0.000000
    28  C    2.414382   3.870531   0.000000
    29  H    3.871492   4.298078   2.140250   0.000000
    30  C    1.397063   3.401725   1.396965   3.394022   0.000000
    31  H    1.085874   2.476164   3.400778   4.957366   2.157346
    32  H    3.400909   4.956215   1.085711   2.455129   2.157548
    33  H    2.158440   4.300067   2.157858   4.288377   1.085845
    34  O    4.090157   2.352974   4.773031   4.058054   4.949781
    35  H    4.999167   3.169202   5.603331   4.651202   5.852463
                   31         32         33         34         35
    31  H    0.000000
    32  H    4.302050   0.000000
    33  H    2.489088   2.488800   0.000000
    34  O    4.709379   5.741073   6.001811   0.000000
    35  H    5.595243   6.535646   6.913710   0.972146   0.000000
 Stoichiometry    C16H17O2(2)
 Framework group  C1[X(C16H17O2)]
 Deg. of freedom    99
 Full point group                 C1      NOp   1
 Largest Abelian subgroup         C1      NOp   1
 Largest concise Abelian subgroup C1      NOp   1
                         Standard orientation:                         
 ---------------------------------------------------------------------
 Center     Atomic      Atomic             Coordinates (Angstroms)
 Number     Number       Type             X           Y           Z
 ---------------------------------------------------------------------
      1          6           0       -0.601112   -1.320901   -0.576788
      2          6           0        0.653645   -1.300739    0.570024
      3          8           0       -1.159301   -2.518996   -0.333664
      4          6           0        0.060585   -1.341291   -1.979454
      5          1           0       -0.727257   -1.439264   -2.729669
      6          1           0        0.623707   -0.427827   -2.170969
      7          1           0        0.734390   -2.194394   -2.048091
      8          6           0        0.023517   -1.375028    1.967569
      9          1           0       -0.659811   -0.550007    2.168134
     10          1           0       -0.537482   -2.307715    2.058390
     11          1           0        0.822261   -1.362772    2.713457
     12          6           0       -1.559330   -0.145189   -0.379575
     13          6           0       -2.740374   -0.343339    0.349667
     14          6           0       -1.306773    1.129754   -0.906806
     15          6           0       -3.640597    0.701650    0.555459
     16          1           0       -2.945623   -1.330744    0.748075
     17          6           0       -2.207082    2.177583   -0.704048
     18          1           0       -0.400550    1.319379   -1.469763
     19          6           0       -3.376304    1.968970    0.029489
     20          1           0       -4.549314    0.526180    1.124087
     21          1           0       -1.991384    3.157395   -1.119981
     22          1           0       -4.075599    2.784601    0.188012
     23          6           0        1.541033   -0.096586    0.370271
     24          6           0        2.695951   -0.193188   -0.425336
     25          6           0        1.239355    1.139786    0.965667
     26          6           0        3.525822    0.910638   -0.614235
     27          1           0        2.939732   -1.143260   -0.883961
     28          6           0        2.068377    2.243813    0.774196
     29          1           0        0.349069    1.250091    1.572420
     30          6           0        3.214494    2.134642   -0.017013
     31          1           0        4.416260    0.814475   -1.228235
     32          1           0        1.817182    3.190187    1.243287
     33          1           0        3.859090    2.995615   -0.166279
     34          8           0        1.411351   -2.462350    0.324566
     35          1           0        0.761692   -3.174622    0.199344
 ---------------------------------------------------------------------
 Rotational constants (GHZ):           0.6165921           0.3842180           0.2908800
 Leave Link  202 at Sat May 25 04:16:15 2019, MaxMem=   104857600 cpu:               2.0 elap:               0.1
 (Enter /opt/software/gaussian/g16.b01/l301.exe)
 Standard basis: 6-31G(d,p) (6D, 7F)
 Ernie: Thresh=  0.10000D-02 Tol=  0.10000D-05 Strict=F.
 There are   355 symmetry adapted cartesian basis functions of A   symmetry.
 There are   355 symmetry adapted basis functions of A   symmetry.
   355 basis functions,   623 primitive gaussians,   355 cartesian basis functions
    65 alpha electrons       64 beta electrons
       nuclear repulsion energy      1329.4014669945 Hartrees.
 IExCor=  402 DFT=T Ex+Corr=B3LYP ExCW=0 ScaHFX=  0.200000
 ScaDFX=  0.800000  0.720000  1.000000  0.810000 ScalE2=  1.000000  1.000000
 IRadAn=      5 IRanWt=     -1 IRanGd=            0 ICorTp=0 IEmpDi=131
 NAtoms=   35 NActive=   35 NUniq=   35 SFac= 1.00D+00 NAtFMM=   60 NAOKFM=F Big=F
 Integral buffers will be    131072 words long.
 Raffenetti 2 integral format.
 Two-electron integral symmetry is turned on.
 R6Disp:  Grimme-D3 Dispersion energy=       -0.0417315043 Hartrees.
 Nuclear repulsion after empirical dispersion term =     1329.3597354903 Hartrees.
 ------------------------------------------------------------------------------
 Polarizable Continuum Model (PCM)
 =================================
 Model                : PCM.
 Atomic radii         : UFF (Universal Force Field).
 Polarization charges : Total charges.
 Charge compensation  : None.
 Solution method      : On-the-fly selection.
 Cavity type          : Scaled VdW (van der Waals Surface) (Alpha=1.100).
 Cavity algorithm     : GePol (No added spheres)
                        Default sphere list used, NSphG=   35.
                        Lebedev-Laikov grids with approx.  5.0 points / Ang**2.
                        Smoothing algorithm: York/Karplus (Gamma=1.0000).
                        Polarization charges: spherical gaussians, with
                                              point-specific exponents (IZeta= 3).
                        Self-potential: point-specific (ISelfS= 7).
                        Self-field    : sphere-specific E.n sum rule (ISelfD= 2).
 Solvent              : Acetonitrile, Eps=  35.688000 Eps(inf)=   1.806874
 ------------------------------------------------------------------------------
 GePol: Number of generator spheres                  =      35
 GePol: Total number of spheres                      =      35
 GePol: Number of exposed spheres                    =      35 (100.00%)
 GePol: Number of points                             =    2399
 GePol: Average weight of points                     =       0.13
 GePol: Minimum weight of points                     =   0.11D-08
 GePol: Maximum weight of points                     =    0.20577
 GePol: Number of points with low weight             =     176
 GePol: Fraction of low-weight points (<1% of avg)   =       7.34%
 GePol: Cavity surface area                          =    307.214 Ang**2
 GePol: Cavity volume                                =    349.771 Ang**3
 Leave Link  301 at Sat May 25 04:16:15 2019, MaxMem=   104857600 cpu:               3.3 elap:               0.2
 (Enter /opt/software/gaussian/g16.b01/l302.exe)
 NPDir=0 NMtPBC=     1 NCelOv=     1 NCel=       1 NClECP=     1 NCelD=      1
         NCelK=      1 NCelE2=     1 NClLst=     1 CellRange=     0.0.
 One-electron integrals computed using PRISM.
 One-electron integral symmetry used in STVInt
 PrsmSu:  requested number of processors reduced to:  28 ShMem   1 Linda.
 NBasis=   355 RedAO= T EigKep=  4.49D-04  NBF=   355
 NBsUse=   355 1.00D-06 EigRej= -1.00D+00 NBFU=   355
 Precomputing XC quadrature grid using
 IXCGrd= 4 IRadAn=           5 IRanWt=          -1 IRanGd=           0 AccXCQ= 0.00D+00.
 Generated NRdTot=       0 NPtTot=           0 NUsed=           0 NTot=          32
 NSgBfM=   354   354   354   354   354 MxSgAt=    35 MxSgA2=    35.
 Leave Link  302 at Sat May 25 04:16:16 2019, MaxMem=   104857600 cpu:              15.1 elap:               0.5
 (Enter /opt/software/gaussian/g16.b01/l303.exe)
 DipDrv:  MaxL=1.
 Leave Link  303 at Sat May 25 04:16:16 2019, MaxMem=   104857600 cpu:               2.6 elap:               0.1
 (Enter /opt/software/gaussian/g16.b01/l308.exe)
 Leave Link  308 at Sat May 25 04:16:16 2019, MaxMem=   104857600 cpu:               2.2 elap:               0.1
 (Enter /opt/software/gaussian/g16.b01/l401.exe)
 ExpMin= 1.61D-01 ExpMax= 5.48D+03 ExpMxC= 8.25D+02 IAcc=3 IRadAn=         5 AccDes= 0.00D+00
 Harris functional with IExCor=  402 and IRadAn=       5 diagonalized for initial guess.
 HarFok:  IExCor=  402 AccDes= 0.00D+00 IRadAn=         5 IDoV= 1 UseB2=F ITyADJ=14
 ICtDFT=  3500011 ScaDFX=  1.000000  1.000000  1.000000  1.000000
 FoFCou: FMM=F IPFlag=           0 FMFlag=      100000 FMFlg1=           0
         NFxFlg=           0 DoJE=T BraDBF=F KetDBF=T FulRan=T
         wScrn=  0.000000 ICntrl=       500 IOpCl=  0 I1Cent=   200000004 NGrid=           0
         NMat0=    1 NMatS0=      1 NMatT0=    0 NMatD0=    1 NMtDS0=    0 NMtDT0=    0
 Petite list used in FoFCou.
 Harris En= -770.422059052129    
 JPrj=0 DoOrth=F DoCkMO=T.
 Mixing orbitals, IMix= 1 IMixAn=  0 NRI=1 NE=   65 Coef=  7.07106781D-01  7.07106781D-01
 Mixing orbitals, IMix= 1 IMixAn=  0 NRI=1 NE=   64 Coef= -7.07106781D-01  7.07106781D-01
 Initial guess <Sx>= 0.0000 <Sy>= 0.0000 <Sz>= 0.5000 <S**2>= 1.0000 S= 0.6180
 Leave Link  401 at Sat May 25 04:16:17 2019, MaxMem=   104857600 cpu:              29.6 elap:               1.0
 (Enter /opt/software/gaussian/g16.b01/l502.exe)
 Integral symmetry usage will be decided dynamically.
 UHF open shell SCF:
 Using DIIS extrapolation, IDIIS=  1040.
 NGot=   104857600 LenX=   104590331 LenY=   104463865
 Requested convergence on RMS density matrix=1.00D-08 within 128 cycles.
 Requested convergence on MAX density matrix=1.00D-06.
 Requested convergence on             energy=1.00D-06.
 No special actions if energy rises.
 Fock matrices will be formed incrementally for  20 cycles.

 Cycle   1  Pass 1  IDiag  1:
 FoFJK:  IHMeth= 1 ICntrl=       0 DoSepK=F KAlg= 0 I1Cent=           0 FoldK=F
 IRaf= 840000000 NMat=       1 IRICut=       1 DoRegI=T DoRafI=F ISym2E= 0 IDoP0=0 IntGTp=1.
 FoFCou: FMM=F IPFlag=           0 FMFlag=      100000 FMFlg1=           0
         NFxFlg=           0 DoJE=F BraDBF=F KetDBF=F FulRan=T
         wScrn=  0.000000 ICntrl=         0 IOpCl=  1 I1Cent=           0 NGrid=           0
         NMat0=    1 NMatS0=      1 NMatT0=    0 NMatD0=    1 NMtDS0=    0 NMtDT0=    0
 Symmetry not used in FoFCou.
 Inv3:  Mode=1 IEnd=    17265603.
 Iteration    1 A*A^-1 deviation from unit magnitude is 3.33D-15 for   2229.
 Iteration    1 A*A^-1 deviation from orthogonality  is 1.99D-15 for   1981    519.
 Iteration    1 A^-1*A deviation from unit magnitude is 3.55D-15 for    466.
 Iteration    1 A^-1*A deviation from orthogonality  is 2.60D-15 for   2204   2046.
 E= -769.830377200436    
 DIIS: error= 2.70D-02 at cycle   1 NSaved=   1.
 NSaved= 1 IEnMin= 1 EnMin= -769.830377200436     IErMin= 1 ErrMin= 2.70D-02
 ErrMax= 2.70D-02  0.00D+00 EMaxC= 1.00D-01 BMatC= 1.78D+00 BMatP= 1.78D+00
 IDIUse=3 WtCom= 7.30D-01 WtEn= 2.70D-01
 Coeff-Com:  0.100D+01
 Coeff-En:   0.100D+01
 Coeff:      0.100D+01
 Gap=     0.016 Goal=   None    Shift=    0.000
 Gap=     0.036 Goal=   None    Shift=    0.000
 GapD=    0.016 DampG=0.250 DampE=0.500 DampFc=0.2500 IDamp=-1.
 Damping current iteration by 2.50D-01
 RMSDP=4.57D-03 MaxDP=1.42D-01              OVMax= 9.08D-01

 Cycle   2  Pass 1  IDiag  1:
 RMSU=  1.12D-03    CP:  9.86D-01
 E= -770.002611539848     Delta-E=       -0.172234339412 Rises=F Damp=T
 DIIS: error= 1.44D-02 at cycle   2 NSaved=   2.
 NSaved= 2 IEnMin= 2 EnMin= -770.002611539848     IErMin= 2 ErrMin= 1.44D-02
 ErrMax= 1.44D-02  0.00D+00 EMaxC= 1.00D-01 BMatC= 4.87D-01 BMatP= 1.78D+00
 IDIUse=3 WtCom= 8.56D-01 WtEn= 1.44D-01
 Coeff-Com: -0.722D+00 0.172D+01
 Coeff-En:   0.000D+00 0.100D+01
 Coeff:     -0.618D+00 0.162D+01
 Gap=     0.292 Goal=   None    Shift=    0.000
 Gap=    -0.071 Goal=   None    Shift=    0.000
 RMSDP=2.50D-03 MaxDP=1.55D-01 DE=-1.72D-01 OVMax= 7.40D-01

 Cycle   3  Pass 1  IDiag  1:
 RMSU=  2.27D-03    CP:  9.60D-01  1.83D+00
 E= -770.269394822549     Delta-E=       -0.266783282701 Rises=F Damp=F
 DIIS: error= 1.89D-02 at cycle   3 NSaved=   3.
 NSaved= 3 IEnMin= 3 EnMin= -770.269394822549     IErMin= 2 ErrMin= 1.44D-02
 ErrMax= 1.89D-02  0.00D+00 EMaxC= 1.00D-01 BMatC= 4.61D-01 BMatP= 4.87D-01
 IDIUse=3 WtCom= 8.11D-01 WtEn= 1.89D-01
 Coeff-Com: -0.499D+00 0.111D+01 0.392D+00
 Coeff-En:   0.000D+00 0.000D+00 0.100D+01
 Coeff:     -0.405D+00 0.898D+00 0.507D+00
 Gap=     0.240 Goal=   None    Shift=    0.000
 Gap=     0.066 Goal=   None    Shift=    0.000
 RMSDP=1.75D-03 MaxDP=1.39D-01 DE=-2.67D-01 OVMax= 2.84D-01

 Cycle   4  Pass 1  IDiag  1:
 RMSU=  1.26D-03    CP:  9.61D-01  1.89D+00  4.64D-01
 E= -770.353254056345     Delta-E=       -0.083859233797 Rises=F Damp=F
 DIIS: error= 1.24D-02 at cycle   4 NSaved=   4.
 NSaved= 4 IEnMin= 4 EnMin= -770.353254056345     IErMin= 4 ErrMin= 1.24D-02
 ErrMax= 1.24D-02  0.00D+00 EMaxC= 1.00D-01 BMatC= 1.25D-01 BMatP= 4.61D-01
 IDIUse=3 WtCom= 8.76D-01 WtEn= 1.24D-01
 Coeff-Com: -0.211D+00 0.451D+00 0.324D+00 0.435D+00
 Coeff-En:   0.000D+00 0.000D+00 0.217D+00 0.783D+00
 Coeff:     -0.185D+00 0.395D+00 0.311D+00 0.479D+00
 Gap=     0.214 Goal=   None    Shift=    0.000
 Gap=     0.074 Goal=   None    Shift=    0.000
 RMSDP=7.95D-04 MaxDP=9.33D-02 DE=-8.39D-02 OVMax= 1.96D-01

 Cycle   5  Pass 1  IDiag  1:
 RMSU=  5.23D-04    CP:  9.61D-01  1.89D+00  6.43D-01  6.50D-01
 E= -770.377090112507     Delta-E=       -0.023836056162 Rises=F Damp=F
 DIIS: error= 5.85D-03 at cycle   5 NSaved=   5.
 NSaved= 5 IEnMin= 5 EnMin= -770.377090112507     IErMin= 5 ErrMin= 5.85D-03
 ErrMax= 5.85D-03  0.00D+00 EMaxC= 1.00D-01 BMatC= 3.69D-02 BMatP= 1.25D-01
 IDIUse=3 WtCom= 9.42D-01 WtEn= 5.85D-02
 Coeff-Com: -0.473D-01 0.835D-01 0.112D+00 0.380D+00 0.472D+00
 Coeff-En:   0.000D+00 0.000D+00 0.000D+00 0.219D+00 0.781D+00
 Coeff:     -0.446D-01 0.786D-01 0.106D+00 0.371D+00 0.490D+00
 Gap=     0.216 Goal=   None    Shift=    0.000
 Gap=     0.073 Goal=   None    Shift=    0.000
 RMSDP=3.53D-04 MaxDP=3.15D-02 DE=-2.38D-02 OVMax= 9.10D-02

 Cycle   6  Pass 1  IDiag  1:
 RMSU=  2.73D-04    CP:  9.60D-01  1.91D+00  6.13D-01  7.86D-01  7.65D-01
 E= -770.385547637792     Delta-E=       -0.008457525285 Rises=F Damp=F
 DIIS: error= 1.11D-03 at cycle   6 NSaved=   6.
 NSaved= 6 IEnMin= 6 EnMin= -770.385547637792     IErMin= 6 ErrMin= 1.11D-03
 ErrMax= 1.11D-03  0.00D+00 EMaxC= 1.00D-01 BMatC= 2.51D-03 BMatP= 3.69D-02
 IDIUse=3 WtCom= 9.89D-01 WtEn= 1.11D-02
 Coeff-Com: -0.216D-01 0.298D-01 0.784D-03 0.124D+00 0.202D+00 0.665D+00
 Coeff-En:   0.000D+00 0.000D+00 0.000D+00 0.000D+00 0.000D+00 0.100D+01
 Coeff:     -0.214D-01 0.294D-01 0.775D-03 0.123D+00 0.200D+00 0.669D+00
 Gap=     0.217 Goal=   None    Shift=    0.000
 Gap=     0.080 Goal=   None    Shift=    0.000
 RMSDP=1.83D-04 MaxDP=1.93D-02 DE=-8.46D-03 OVMax= 3.55D-02

 Cycle   7  Pass 1  IDiag  1:
 RMSU=  1.43D-04    CP:  9.59D-01  1.94D+00  5.91D-01  8.26D-01  8.90D-01
                    CP:  1.18D+00
 E= -770.387058591371     Delta-E=       -0.001510953578 Rises=F Damp=F
 DIIS: error= 8.32D-04 at cycle   7 NSaved=   7.
 NSaved= 7 IEnMin= 7 EnMin= -770.387058591371     IErMin= 7 ErrMin= 8.32D-04
 ErrMax= 8.32D-04  0.00D+00 EMaxC= 1.00D-01 BMatC= 1.44D-03 BMatP= 2.51D-03
 IDIUse=3 WtCom= 9.92D-01 WtEn= 8.32D-03
 Coeff-Com: -0.554D-02 0.654D-02-0.311D-01-0.113D-01-0.365D-01 0.449D+00
 Coeff-Com:  0.629D+00
 Coeff-En:   0.000D+00 0.000D+00 0.000D+00 0.000D+00 0.000D+00 0.000D+00
 Coeff-En:   0.100D+01
 Coeff:     -0.550D-02 0.648D-02-0.308D-01-0.112D-01-0.362D-01 0.445D+00
 Coeff:      0.632D+00
 Gap=     0.219 Goal=   None    Shift=    0.000
 Gap=     0.085 Goal=   None    Shift=    0.000
 RMSDP=1.59D-04 MaxDP=1.81D-02 DE=-1.51D-03 OVMax= 3.79D-02

 Cycle   8  Pass 1  IDiag  1:
 RMSU=  7.48D-05    CP:  9.59D-01  1.96D+00  5.74D-01  8.56D-01  9.41D-01
                    CP:  1.60D+00  1.35D+00
 E= -770.388304546362     Delta-E=       -0.001245954991 Rises=F Damp=F
 DIIS: error= 6.71D-04 at cycle   8 NSaved=   8.
 NSaved= 8 IEnMin= 8 EnMin= -770.388304546362     IErMin= 8 ErrMin= 6.71D-04
 ErrMax= 6.71D-04  0.00D+00 EMaxC= 1.00D-01 BMatC= 3.28D-04 BMatP= 1.44D-03
 IDIUse=3 WtCom= 9.93D-01 WtEn= 6.71D-03
 Coeff-Com: -0.266D-02 0.644D-02-0.365D-02-0.610D-02-0.552D-01-0.104D-02
 Coeff-Com:  0.126D+00 0.936D+00
 Coeff-En:   0.000D+00 0.000D+00 0.000D+00 0.000D+00 0.000D+00 0.000D+00
 Coeff-En:   0.000D+00 0.100D+01
 Coeff:     -0.264D-02 0.640D-02-0.363D-02-0.606D-02-0.548D-01-0.103D-02
 Coeff:      0.125D+00 0.937D+00
 Gap=     0.219 Goal=   None    Shift=    0.000
 Gap=     0.088 Goal=   None    Shift=    0.000
 RMSDP=1.67D-04 MaxDP=2.24D-02 DE=-1.25D-03 OVMax= 4.08D-02

 Cycle   9  Pass 1  IDiag  1:
 RMSU=  4.43D-05    CP:  9.58D-01  1.99D+00  5.56D-01  8.82D-01  9.67D-01
                    CP:  1.94D+00  2.01D+00  1.89D+00
 E= -770.389312479891     Delta-E=       -0.001007933530 Rises=F Damp=F
 DIIS: error= 6.04D-04 at cycle   9 NSaved=   9.
 NSaved= 9 IEnMin= 9 EnMin= -770.389312479891     IErMin= 9 ErrMin= 6.04D-04
 ErrMax= 6.04D-04  0.00D+00 EMaxC= 1.00D-01 BMatC= 2.34D-04 BMatP= 3.28D-04
 IDIUse=3 WtCom= 9.94D-01 WtEn= 6.04D-03
 Coeff-Com: -0.252D-02 0.794D-02 0.168D-01 0.193D-01 0.181D-02-0.176D+00
 Coeff-Com: -0.270D+00 0.526D+00 0.878D+00
 Coeff-En:   0.000D+00 0.000D+00 0.000D+00 0.000D+00 0.000D+00 0.000D+00
 Coeff-En:   0.000D+00 0.000D+00 0.100D+01
 Coeff:     -0.251D-02 0.789D-02 0.167D-01 0.192D-01 0.180D-02-0.175D+00
 Coeff:     -0.269D+00 0.522D+00 0.878D+00
 Gap=     0.220 Goal=   None    Shift=    0.000
 Gap=     0.091 Goal=   None    Shift=    0.000
 RMSDP=1.77D-04 MaxDP=2.47D-02 DE=-1.01D-03 OVMax= 5.44D-02

 Cycle  10  Pass 1  IDiag  1:
 RMSU=  3.17D-05    CP:  9.58D-01  2.01D+00  5.35D-01  9.01D-01  9.66D-01
                    CP:  2.27D+00  2.67D+00  3.00D+00  1.81D+00
 E= -770.390275433648     Delta-E=       -0.000962953756 Rises=F Damp=F
 DIIS: error= 5.51D-04 at cycle  10 NSaved=  10.
 NSaved=10 IEnMin=10 EnMin= -770.390275433648     IErMin=10 ErrMin= 5.51D-04
 ErrMax= 5.51D-04  0.00D+00 EMaxC= 1.00D-01 BMatC= 1.39D-04 BMatP= 2.34D-04
 IDIUse=3 WtCom= 9.94D-01 WtEn= 5.51D-03
 Coeff-Com: -0.778D-03 0.608D-03 0.112D-01 0.409D-01 0.914D-01 0.453D-01
 Coeff-Com: -0.156D+00-0.762D+00-0.130D+00 0.186D+01
 Coeff-En:   0.000D+00 0.000D+00 0.000D+00 0.000D+00 0.000D+00 0.000D+00
 Coeff-En:   0.000D+00 0.000D+00 0.000D+00 0.100D+01
 Coeff:     -0.774D-03 0.605D-03 0.111D-01 0.407D-01 0.909D-01 0.450D-01
 Coeff:     -0.156D+00-0.758D+00-0.130D+00 0.186D+01
 Gap=     0.221 Goal=   None    Shift=    0.000
 Gap=     0.093 Goal=   None    Shift=    0.000
 RMSDP=3.11D-04 MaxDP=4.33D-02 DE=-9.63D-04 OVMax= 7.64D-02

 Cycle  11  Pass 1  IDiag  1:
 RMSU=  1.99D-04    CP:  9.57D-01  2.06D+00  4.94D-01  9.20D-01  9.25D-01
                    CP:  2.72D+00  3.00D+00  3.00D+00  3.00D+00  3.00D+00
 E= -770.391631455793     Delta-E=       -0.001356022146 Rises=F Damp=F
 DIIS: error= 4.53D-04 at cycle  11 NSaved=  11.
 NSaved=11 IEnMin=11 EnMin= -770.391631455793     IErMin=11 ErrMin= 4.53D-04
 ErrMax= 4.53D-04  0.00D+00 EMaxC= 1.00D-01 BMatC= 9.44D-05 BMatP= 1.39D-04
 IDIUse=3 WtCom= 9.95D-01 WtEn= 4.53D-03
 Coeff-Com: -0.729D-03-0.443D-03-0.211D-02 0.238D-01 0.371D-01 0.165D+00
 Coeff-Com:  0.125D+00-0.543D+00-0.731D+00 0.733D+00 0.119D+01
 Coeff-En:   0.000D+00 0.000D+00 0.000D+00 0.000D+00 0.000D+00 0.000D+00
 Coeff-En:   0.000D+00 0.000D+00 0.000D+00 0.000D+00 0.100D+01
 Coeff:     -0.725D-03-0.441D-03-0.210D-02 0.237D-01 0.369D-01 0.164D+00
 Coeff:      0.124D+00-0.541D+00-0.727D+00 0.730D+00 0.119D+01
 Gap=     0.222 Goal=   None    Shift=    0.000
 Gap=     0.096 Goal=   None    Shift=    0.000
 RMSDP=2.37D-04 MaxDP=3.06D-02 DE=-1.36D-03 OVMax= 6.41D-02

 Cycle  12  Pass 1  IDiag  1:
 RMSU=  8.64D-05    CP:  9.56D-01  2.10D+00  4.60D-01  9.23D-01  8.58D-01
                    CP:  2.98D+00  3.00D+00  3.00D+00  3.00D+00  3.00D+00
                    CP:  1.93D+00
 E= -770.392348349624     Delta-E=       -0.000716893831 Rises=F Damp=F
 DIIS: error= 3.27D-04 at cycle  12 NSaved=  12.
 NSaved=12 IEnMin=12 EnMin= -770.392348349624     IErMin=12 ErrMin= 3.27D-04
 ErrMax= 3.27D-04  0.00D+00 EMaxC= 1.00D-01 BMatC= 8.39D-05 BMatP= 9.44D-05
 IDIUse=3 WtCom= 9.97D-01 WtEn= 3.27D-03
 Coeff-Com: -0.136D-02 0.200D-02-0.467D-02 0.859D-02-0.255D-01 0.115D+00
 Coeff-Com:  0.168D+00 0.554D-01-0.475D+00-0.389D+00 0.770D+00 0.775D+00
 Coeff-En:   0.000D+00 0.000D+00 0.000D+00 0.000D+00 0.000D+00 0.000D+00
 Coeff-En:   0.000D+00 0.000D+00 0.000D+00 0.000D+00 0.000D+00 0.100D+01
 Coeff:     -0.136D-02 0.200D-02-0.466D-02 0.856D-02-0.254D-01 0.115D+00
 Coeff:      0.168D+00 0.552D-01-0.473D+00-0.387D+00 0.768D+00 0.776D+00
 Gap=     0.222 Goal=   None    Shift=    0.000
 Gap=     0.096 Goal=   None    Shift=    0.000
 RMSDP=1.16D-04 MaxDP=1.31D-02 DE=-7.17D-04 OVMax= 2.95D-02

 Cycle  13  Pass 1  IDiag  1:
 RMSU=  2.78D-05    CP:  9.56D-01  2.12D+00  4.42D-01  9.24D-01  8.01D-01
                    CP:  3.00D+00  3.00D+00  3.00D+00  3.00D+00  3.00D+00
                    CP:  2.36D+00  1.55D+00
 E= -770.392609600298     Delta-E=       -0.000261250673 Rises=F Damp=F
 DIIS: error= 2.23D-04 at cycle  13 NSaved=  13.
 NSaved=13 IEnMin=13 EnMin= -770.392609600298     IErMin=13 ErrMin= 2.23D-04
 ErrMax= 2.23D-04  0.00D+00 EMaxC= 1.00D-01 BMatC= 2.77D-05 BMatP= 8.39D-05
 IDIUse=3 WtCom= 9.98D-01 WtEn= 2.23D-03
 Coeff-Com:  0.703D-03-0.229D-03 0.202D-02 0.140D-03-0.229D-01-0.564D-01
 Coeff-Com: -0.486D-01 0.293D+00 0.212D+00-0.436D+00-0.744D+00 0.197D+00
 Coeff-Com:  0.160D+01
 Coeff-En:   0.000D+00 0.000D+00 0.000D+00 0.000D+00 0.000D+00 0.000D+00
 Coeff-En:   0.000D+00 0.000D+00 0.000D+00 0.000D+00 0.000D+00 0.000D+00
 Coeff-En:   0.100D+01
 Coeff:      0.702D-03-0.228D-03 0.201D-02 0.140D-03-0.229D-01-0.562D-01
 Coeff:     -0.484D-01 0.292D+00 0.211D+00-0.435D+00-0.743D+00 0.197D+00
 Coeff:      0.160D+01
 Gap=     0.222 Goal=   None    Shift=    0.000
 Gap=     0.097 Goal=   None    Shift=    0.000
 RMSDP=2.25D-04 MaxDP=2.44D-02 DE=-2.61D-04 OVMax= 6.18D-02

 Cycle  14  Pass 1  IDiag  1:
 RMSU=  5.07D-05    CP:  9.55D-01  2.16D+00  4.06D-01  9.12D-01  7.10D-01
                    CP:  3.00D+00  3.00D+00  3.00D+00  3.00D+00  3.00D+00
                    CP:  3.00D+00  2.77D+00  2.52D+00
 E= -770.392863537372     Delta-E=       -0.000253937074 Rises=F Damp=F
 DIIS: error= 1.46D-04 at cycle  14 NSaved=  14.
 NSaved=14 IEnMin=14 EnMin= -770.392863537372     IErMin=14 ErrMin= 1.46D-04
 ErrMax= 1.46D-04  0.00D+00 EMaxC= 1.00D-01 BMatC= 3.51D-05 BMatP= 2.77D-05
 IDIUse=3 WtCom= 9.98D-01 WtEn= 2.23D-03
 Coeff-Com:  0.125D-02-0.140D-02 0.421D-02 0.352D-02-0.783D-02-0.725D-01
 Coeff-Com: -0.104D+00 0.166D+00 0.345D+00-0.633D-01-0.849D+00-0.208D+00
 Coeff-Com:  0.121D+01 0.575D+00
 Coeff-En:   0.000D+00 0.000D+00 0.000D+00 0.000D+00 0.000D+00 0.000D+00
 Coeff-En:   0.000D+00 0.000D+00 0.000D+00 0.000D+00 0.000D+00 0.000D+00
 Coeff-En:   0.000D+00 0.100D+01
 Coeff:      0.124D-02-0.140D-02 0.420D-02 0.351D-02-0.781D-02-0.723D-01
 Coeff:     -0.104D+00 0.166D+00 0.344D+00-0.631D-01-0.847D+00-0.207D+00
 Coeff:      0.121D+01 0.576D+00
 Gap=     0.222 Goal=   None    Shift=    0.000
 Gap=     0.097 Goal=   None    Shift=    0.000
 RMSDP=3.77D-05 MaxDP=4.13D-03 DE=-2.54D-04 OVMax= 9.13D-03

 Cycle  15  Pass 1  IDiag  1:
 RMSU=  1.85D-05    CP:  9.55D-01  2.17D+00  4.00D-01  9.12D-01  6.83D-01
                    CP:  3.00D+00  3.00D+00  3.00D+00  3.00D+00  3.00D+00
                    CP:  3.00D+00  2.97D+00  2.97D+00  1.27D+00
 E= -770.392888037429     Delta-E=       -0.000024500058 Rises=F Damp=F
 DIIS: error= 3.45D-05 at cycle  15 NSaved=  15.
 NSaved=15 IEnMin=15 EnMin= -770.392888037429     IErMin=15 ErrMin= 3.45D-05
 ErrMax= 3.45D-05  0.00D+00 EMaxC= 1.00D-01 BMatC= 1.39D-06 BMatP= 2.77D-05
 IDIUse=1 WtCom= 1.00D+00 WtEn= 0.00D+00
 Coeff-Com:  0.548D-03-0.862D-03 0.121D-02 0.141D-02 0.239D-02-0.113D-01
 Coeff-Com: -0.195D-01-0.232D-01 0.595D-01 0.972D-01-0.160D+00-0.173D+00
 Coeff-Com:  0.144D+00 0.145D+00 0.937D+00
 Coeff:      0.548D-03-0.862D-03 0.121D-02 0.141D-02 0.239D-02-0.113D-01
 Coeff:     -0.195D-01-0.232D-01 0.595D-01 0.972D-01-0.160D+00-0.173D+00
 Coeff:      0.144D+00 0.145D+00 0.937D+00
 Gap=     0.222 Goal=   None    Shift=    0.000
 Gap=     0.097 Goal=   None    Shift=    0.000
 RMSDP=3.36D-05 MaxDP=3.28D-03 DE=-2.45D-05 OVMax= 8.66D-03

 Cycle  16  Pass 1  IDiag  1:
 RMSU=  1.66D-05    CP:  9.55D-01  2.17D+00  3.95D-01  9.10D-01  6.66D-01
                    CP:  3.00D+00  3.00D+00  3.00D+00  3.00D+00  3.00D+00
                    CP:  3.00D+00  3.00D+00  3.00D+00  1.63D+00  1.68D+00
 E= -770.392894660140     Delta-E=       -0.000006622711 Rises=F Damp=F
 DIIS: error= 1.60D-05 at cycle  16 NSaved=  16.
 NSaved=16 IEnMin=16 EnMin= -770.392894660140     IErMin=16 ErrMin= 1.60D-05
 ErrMax= 1.60D-05  0.00D+00 EMaxC= 1.00D-01 BMatC= 5.38D-07 BMatP= 1.39D-06
 IDIUse=1 WtCom= 1.00D+00 WtEn= 0.00D+00
 Coeff-Com:  0.145D-03-0.303D-03 0.725D-04 0.604D-03 0.217D-02 0.561D-02
 Coeff-Com:  0.685D-02-0.366D-01-0.199D-01 0.603D-01 0.369D-01-0.669D-01
 Coeff-Com: -0.101D+00-0.294D-01 0.477D+00 0.664D+00
 Coeff:      0.145D-03-0.303D-03 0.725D-04 0.604D-03 0.217D-02 0.561D-02
 Coeff:      0.685D-02-0.366D-01-0.199D-01 0.603D-01 0.369D-01-0.669D-01
 Coeff:     -0.101D+00-0.294D-01 0.477D+00 0.664D+00
 Gap=     0.222 Goal=   None    Shift=    0.000
 Gap=     0.097 Goal=   None    Shift=    0.000
 RMSDP=9.67D-06 MaxDP=9.97D-04 DE=-6.62D-06 OVMax= 2.38D-03

 Cycle  17  Pass 1  IDiag  1:
 RMSU=  1.65D-06    CP:  9.54D-01  2.17D+00  3.93D-01  9.09D-01  6.60D-01
                    CP:  3.00D+00  3.00D+00  3.00D+00  3.00D+00  3.00D+00
                    CP:  3.00D+00  3.00D+00  3.00D+00  1.73D+00  1.90D+00
                    CP:  1.31D+00
 E= -770.392895395551     Delta-E=       -0.000000735410 Rises=F Damp=F
 DIIS: error= 6.74D-06 at cycle  17 NSaved=  17.
 NSaved=17 IEnMin=17 EnMin= -770.392895395551     IErMin=17 ErrMin= 6.74D-06
 ErrMax= 6.74D-06  0.00D+00 EMaxC= 1.00D-01 BMatC= 9.16D-08 BMatP= 5.38D-07
 IDIUse=1 WtCom= 1.00D+00 WtEn= 0.00D+00
 Coeff-Com: -0.516D-04 0.416D-04-0.211D-03 0.167D-03 0.584D-03 0.554D-02
 Coeff-Com:  0.769D-02-0.154D-01-0.252D-01 0.103D-01 0.516D-01 0.313D-02
 Coeff-Com: -0.752D-01-0.554D-01 0.226D-01 0.351D+00 0.719D+00
 Coeff:     -0.516D-04 0.416D-04-0.211D-03 0.167D-03 0.584D-03 0.554D-02
 Coeff:      0.769D-02-0.154D-01-0.252D-01 0.103D-01 0.516D-01 0.313D-02
 Coeff:     -0.752D-01-0.554D-01 0.226D-01 0.351D+00 0.719D+00
 Gap=     0.222 Goal=   None    Shift=    0.000
 Gap=     0.097 Goal=   None    Shift=    0.000
 RMSDP=5.69D-06 MaxDP=5.43D-04 DE=-7.35D-07 OVMax= 1.48D-03

 Cycle  18  Pass 1  IDiag  1:
 RMSU=  5.66D-07    CP:  9.54D-01  2.17D+00  3.93D-01  9.08D-01  6.57D-01
                    CP:  3.00D+00  3.00D+00  3.00D+00  3.00D+00  3.00D+00
                    CP:  3.00D+00  3.00D+00  3.00D+00  1.79D+00  2.00D+00
                    CP:  1.50D+00  1.02D+00
 E= -770.392895512988     Delta-E=       -0.000000117438 Rises=F Damp=F
 DIIS: error= 6.86D-06 at cycle  18 NSaved=  18.
 NSaved=18 IEnMin=18 EnMin= -770.392895512988     IErMin=17 ErrMin= 6.74D-06
 ErrMax= 6.86D-06  0.00D+00 EMaxC= 1.00D-01 BMatC= 5.00D-08 BMatP= 9.16D-08
 IDIUse=1 WtCom= 1.00D+00 WtEn= 0.00D+00
 Coeff-Com: -0.311D-04 0.351D-04-0.240D-04 0.247D-03 0.236D-03 0.154D-02
 Coeff-Com:  0.856D-03-0.630D-02-0.565D-02 0.787D-02 0.163D-01 0.533D-03
 Coeff-Com: -0.274D-01-0.252D-01-0.171D-01 0.753D-01 0.292D+00 0.687D+00
 Coeff:     -0.311D-04 0.351D-04-0.240D-04 0.247D-03 0.236D-03 0.154D-02
 Coeff:      0.856D-03-0.630D-02-0.565D-02 0.787D-02 0.163D-01 0.533D-03
 Coeff:     -0.274D-01-0.252D-01-0.171D-01 0.753D-01 0.292D+00 0.687D+00
 Gap=     0.222 Goal=   None    Shift=    0.000
 Gap=     0.097 Goal=   None    Shift=    0.000
 RMSDP=6.00D-07 MaxDP=4.86D-05 DE=-1.17D-07 OVMax= 1.16D-04

 Cycle  19  Pass 1  IDiag  1:
 RMSU=  3.50D-07    CP:  9.54D-01  2.17D+00  3.92D-01  9.09D-01  6.57D-01
                    CP:  3.00D+00  3.00D+00  3.00D+00  3.00D+00  3.00D+00
                    CP:  3.00D+00  3.00D+00  3.00D+00  1.79D+00  2.01D+00
                    CP:  1.51D+00  1.14D+00  8.34D-01
 E= -770.392895528703     Delta-E=       -0.000000015715 Rises=F Damp=F
 DIIS: error= 1.41D-06 at cycle  19 NSaved=  19.
 NSaved=19 IEnMin=19 EnMin= -770.392895528703     IErMin=19 ErrMin= 1.41D-06
 ErrMax= 1.41D-06  0.00D+00 EMaxC= 1.00D-01 BMatC= 2.07D-09 BMatP= 5.00D-08
 IDIUse=1 WtCom= 1.00D+00 WtEn= 0.00D+00
 Coeff-Com:  0.725D-06 0.272D-05 0.226D-04-0.561D-05-0.935D-04-0.818D-03
 Coeff-Com: -0.132D-02 0.272D-02 0.363D-02-0.258D-02-0.841D-02 0.795D-03
 Coeff-Com:  0.145D-01 0.796D-02-0.103D-01-0.698D-01-0.115D+00 0.161D+00
 Coeff-Com:  0.102D+01
 Coeff:      0.725D-06 0.272D-05 0.226D-04-0.561D-05-0.935D-04-0.818D-03
 Coeff:     -0.132D-02 0.272D-02 0.363D-02-0.258D-02-0.841D-02 0.795D-03
 Coeff:      0.145D-01 0.796D-02-0.103D-01-0.698D-01-0.115D+00 0.161D+00
 Coeff:      0.102D+01
 Gap=     0.222 Goal=   None    Shift=    0.000
 Gap=     0.097 Goal=   None    Shift=    0.000
 RMSDP=3.62D-07 MaxDP=3.79D-05 DE=-1.57D-08 OVMax= 8.58D-05

 Cycle  20  Pass 1  IDiag  1:
 RMSU=  1.50D-07    CP:  9.54D-01  2.17D+00  3.92D-01  9.08D-01  6.57D-01
                    CP:  3.00D+00  3.00D+00  3.00D+00  3.00D+00  3.00D+00
                    CP:  3.00D+00  3.00D+00  3.00D+00  1.80D+00  2.01D+00
                    CP:  1.52D+00  1.15D+00  1.03D+00  1.11D+00
 E= -770.392895530707     Delta-E=       -0.000000002004 Rises=F Damp=F
 DIIS: error= 8.80D-07 at cycle  20 NSaved=  20.
 NSaved=20 IEnMin=20 EnMin= -770.392895530707     IErMin=20 ErrMin= 8.80D-07
 ErrMax= 8.80D-07  0.00D+00 EMaxC= 1.00D-01 BMatC= 7.50D-10 BMatP= 2.07D-09
 IDIUse=1 WtCom= 1.00D+00 WtEn= 0.00D+00
 Coeff-Com:  0.240D-05 0.396D-06 0.903D-05-0.524D-04-0.892D-04-0.494D-03
 Coeff-Com: -0.479D-03 0.219D-02 0.190D-02-0.267D-02-0.538D-02 0.791D-03
 Coeff-Com:  0.105D-01 0.683D-02-0.201D-02-0.376D-01-0.903D-01-0.654D-01
 Coeff-Com:  0.462D+00 0.720D+00
 Coeff:      0.240D-05 0.396D-06 0.903D-05-0.524D-04-0.892D-04-0.494D-03
 Coeff:     -0.479D-03 0.219D-02 0.190D-02-0.267D-02-0.538D-02 0.791D-03
 Coeff:      0.105D-01 0.683D-02-0.201D-02-0.376D-01-0.903D-01-0.654D-01
 Coeff:      0.462D+00 0.720D+00
 Gap=     0.222 Goal=   None    Shift=    0.000
 Gap=     0.097 Goal=   None    Shift=    0.000
 RMSDP=2.49D-07 MaxDP=2.38D-05 DE=-2.00D-09 OVMax= 5.80D-05

 Cycle  21  Pass 1  IDiag  1:
 Restarting incremental Fock formation.
 E= -770.392895531629     Delta-E=       -0.000000000922 Rises=F Damp=F
 DIIS: error= 5.56D-07 at cycle  21 NSaved=  20.
 NSaved=20 IEnMin=20 EnMin= -770.392895531629     IErMin=20 ErrMin= 5.56D-07
 ErrMax= 5.56D-07  0.00D+00 EMaxC= 1.00D-01 BMatC= 2.03D-10 BMatP= 7.50D-10
 IDIUse=1 WtCom= 1.00D+00 WtEn= 0.00D+00
 Coeff-Com:  0.149D-05-0.475D-06-0.162D-04-0.278D-04 0.419D-04 0.152D-03
 Coeff-Com:  0.280D-04-0.787D-04 0.992D-04 0.707D-03-0.930D-04-0.176D-02
 Coeff-Com: -0.558D-05 0.119D-02 0.793D-02 0.434D-02-0.592D-01-0.260D+00
 Coeff-Com:  0.204D+00 0.110D+01
 Coeff:      0.149D-05-0.475D-06-0.162D-04-0.278D-04 0.419D-04 0.152D-03
 Coeff:      0.280D-04-0.787D-04 0.992D-04 0.707D-03-0.930D-04-0.176D-02
 Coeff:     -0.558D-05 0.119D-02 0.793D-02 0.434D-02-0.592D-01-0.260D+00
 Coeff:      0.204D+00 0.110D+01
 Gap=     0.222 Goal=   None    Shift=    0.000
 Gap=     0.097 Goal=   None    Shift=    0.000
 RMSDP=2.14D-07 MaxDP=2.18D-05 DE=-9.22D-10 OVMax= 5.35D-05

 Cycle  22  Pass 1  IDiag  1:
 RMSU=  2.14D-07    CP:  1.00D+00
 E= -770.392895531831     Delta-E=       -0.000000000201 Rises=F Damp=F
 DIIS: error= 5.44D-07 at cycle  22 NSaved=  20.
 NSaved=20 IEnMin=20 EnMin= -770.392895531831     IErMin=20 ErrMin= 5.44D-07
 ErrMax= 5.44D-07  0.00D+00 EMaxC= 1.00D-01 BMatC= 4.48D-10 BMatP= 2.03D-10
 IDIUse=1 WtCom= 1.00D+00 WtEn= 0.00D+00
 Coeff-Com: -0.318D-05 0.304D-05 0.105D-04 0.112D-03 0.174D-03-0.434D-03
 Coeff-Com: -0.539D-03 0.452D-03 0.148D-02-0.628D-04-0.326D-02-0.864D-03
 Coeff-Com:  0.185D-03 0.145D-01 0.258D-01 0.117D-01-0.299D+00-0.140D+00
 Coeff-Com:  0.666D+00 0.724D+00
 Coeff:     -0.318D-05 0.304D-05 0.105D-04 0.112D-03 0.174D-03-0.434D-03
 Coeff:     -0.539D-03 0.452D-03 0.148D-02-0.628D-04-0.326D-02-0.864D-03
 Coeff:      0.185D-03 0.145D-01 0.258D-01 0.117D-01-0.299D+00-0.140D+00
 Coeff:      0.666D+00 0.724D+00
 Gap=     0.222 Goal=   None    Shift=    0.000
 Gap=     0.097 Goal=   None    Shift=    0.000
 RMSDP=1.09D-07 MaxDP=1.39D-05 DE=-2.01D-10 OVMax= 2.77D-05

 Cycle  23  Pass 1  IDiag  1:
 RMSU=  8.14D-08    CP:  1.00D+00  6.59D-01
 E= -770.392895532062     Delta-E=       -0.000000000231 Rises=F Damp=F
 DIIS: error= 1.15D-07 at cycle  23 NSaved=  20.
 NSaved=20 IEnMin=20 EnMin= -770.392895532062     IErMin=20 ErrMin= 1.15D-07
 ErrMax= 1.15D-07  0.00D+00 EMaxC= 1.00D-01 BMatC= 2.09D-11 BMatP= 2.03D-10
 IDIUse=1 WtCom= 1.00D+00 WtEn= 0.00D+00
 Coeff-Com:  0.885D-05 0.141D-04 0.460D-04 0.431D-04-0.263D-03-0.226D-03
 Coeff-Com:  0.354D-03 0.629D-03-0.998D-04-0.153D-02-0.427D-03 0.122D-03
 Coeff-Com:  0.565D-02 0.109D-01 0.135D-01-0.111D+00-0.961D-01 0.150D+00
 Coeff-Com:  0.340D+00 0.688D+00
 Coeff:      0.885D-05 0.141D-04 0.460D-04 0.431D-04-0.263D-03-0.226D-03
 Coeff:      0.354D-03 0.629D-03-0.998D-04-0.153D-02-0.427D-03 0.122D-03
 Coeff:      0.565D-02 0.109D-01 0.135D-01-0.111D+00-0.961D-01 0.150D+00
 Coeff:      0.340D+00 0.688D+00
 Gap=     0.222 Goal=   None    Shift=    0.000
 Gap=     0.097 Goal=   None    Shift=    0.000
 RMSDP=1.70D-08 MaxDP=8.63D-07 DE=-2.31D-10 OVMax= 3.02D-06

 Cycle  24  Pass 1  IDiag  1:
 RMSU=  1.27D-08    CP:  1.00D+00  6.51D-01  1.14D+00
 E= -770.392895532070     Delta-E=       -0.000000000009 Rises=F Damp=F
 DIIS: error= 4.79D-08 at cycle  24 NSaved=  20.
 NSaved=20 IEnMin=20 EnMin= -770.392895532070     IErMin=20 ErrMin= 4.79D-08
 ErrMax= 4.79D-08  0.00D+00 EMaxC= 1.00D-01 BMatC= 5.44D-12 BMatP= 2.09D-11
 IDIUse=1 WtCom= 1.00D+00 WtEn= 0.00D+00
 Coeff-Com: -0.103D-05-0.102D-04-0.115D-04 0.353D-04 0.283D-04-0.155D-04
 Coeff-Com: -0.148D-03-0.288D-04 0.280D-03 0.214D-04 0.181D-03-0.151D-02
 Coeff-Com: -0.288D-02-0.207D-02 0.440D-01 0.367D-02-0.145D+00-0.410D-01
 Coeff-Com:  0.316D+00 0.828D+00
 Coeff:     -0.103D-05-0.102D-04-0.115D-04 0.353D-04 0.283D-04-0.155D-04
 Coeff:     -0.148D-03-0.288D-04 0.280D-03 0.214D-04 0.181D-03-0.151D-02
 Coeff:     -0.288D-02-0.207D-02 0.440D-01 0.367D-02-0.145D+00-0.410D-01
 Coeff:      0.316D+00 0.828D+00
 Gap=     0.222 Goal=   None    Shift=    0.000
 Gap=     0.097 Goal=   None    Shift=    0.000
 RMSDP=1.42D-08 MaxDP=1.26D-06 DE=-8.64D-12 OVMax= 2.91D-06

 Cycle  25  Pass 1  IDiag  1:
 RMSU=  7.50D-09    CP:  1.00D+00  6.17D-01  1.21D+00  1.60D+00
 E= -770.392895532077     Delta-E=       -0.000000000007 Rises=F Damp=F
 DIIS: error= 1.30D-08 at cycle  25 NSaved=  20.
 NSaved=20 IEnMin=20 EnMin= -770.392895532077     IErMin=20 ErrMin= 1.30D-08
 ErrMax= 1.30D-08  0.00D+00 EMaxC= 1.00D-01 BMatC= 5.13D-13 BMatP= 5.44D-12
 IDIUse=1 WtCom= 1.00D+00 WtEn= 0.00D+00
 Coeff-Com: -0.270D-05-0.446D-05 0.153D-04 0.158D-04-0.613D-05-0.769D-04
 Coeff-Com: -0.104D-04 0.196D-03-0.228D-04 0.820D-04-0.831D-03-0.136D-02
 Coeff-Com: -0.164D-02 0.264D-01 0.842D-02-0.715D-01-0.450D-01 0.412D-01
 Coeff-Com:  0.328D+00 0.716D+00
 Coeff:     -0.270D-05-0.446D-05 0.153D-04 0.158D-04-0.613D-05-0.769D-04
 Coeff:     -0.104D-04 0.196D-03-0.228D-04 0.820D-04-0.831D-03-0.136D-02
 Coeff:     -0.164D-02 0.264D-01 0.842D-02-0.715D-01-0.450D-01 0.412D-01
 Coeff:      0.328D+00 0.716D+00
 Gap=     0.222 Goal=   None    Shift=    0.000
 Gap=     0.097 Goal=   None    Shift=    0.000
 RMSDP=9.27D-09 MaxDP=1.09D-06 DE=-7.05D-12 OVMax= 2.46D-06

 Cycle  26  Pass 1  IDiag  1:
 RMSU=  1.97D-09    CP:  1.00D+00  6.58D-01  1.18D+00  1.52D+00  8.88D-01
 E= -770.392895532080     Delta-E=       -0.000000000002 Rises=F Damp=F
 DIIS: error= 1.13D-08 at cycle  26 NSaved=  20.
 NSaved=20 IEnMin=20 EnMin= -770.392895532080     IErMin=20 ErrMin= 1.13D-08
 ErrMax= 1.13D-08  0.00D+00 EMaxC= 1.00D-01 BMatC= 2.17D-13 BMatP= 5.13D-13
 IDIUse=1 WtCom= 1.00D+00 WtEn= 0.00D+00
 Coeff-Com: -0.109D-06 0.861D-05 0.182D-05-0.204D-04-0.125D-04 0.137D-04
 Coeff-Com:  0.576D-04-0.114D-04-0.502D-04-0.214D-03-0.191D-03 0.376D-03
 Coeff-Com:  0.707D-02 0.189D-02-0.168D-01-0.161D-01-0.128D-01 0.435D-01
 Coeff-Com:  0.258D+00 0.735D+00
 Coeff:     -0.109D-06 0.861D-05 0.182D-05-0.204D-04-0.125D-04 0.137D-04
 Coeff:      0.576D-04-0.114D-04-0.502D-04-0.214D-03-0.191D-03 0.376D-03
 Coeff:      0.707D-02 0.189D-02-0.168D-01-0.161D-01-0.128D-01 0.435D-01
 Coeff:      0.258D+00 0.735D+00
 Gap=     0.222 Goal=   None    Shift=    0.000
 Gap=     0.097 Goal=   None    Shift=    0.000
 RMSDP=2.76D-09 MaxDP=3.04D-07 DE=-2.27D-12 OVMax= 7.56D-07

 Error on total polarization charges =  0.00974
 SCF Done:  E(UB3LYP) =  -770.392895532     A.U. after   26 cycles
            NFock= 26  Conv=0.28D-08     -V/T= 2.0095
 <Sx>= 0.0000 <Sy>= 0.0000 <Sz>= 0.5000 <S**2>= 0.7561 S= 0.5031
 <L.S>=  0.00000000000    
 KE= 7.631323934294D+02 PE=-4.448929767308D+03 EE= 1.586044742856D+03
 Annihilation of the first spin contaminant:
 S**2 before annihilation     0.7561,   after     0.7500
 Leave Link  502 at Sat May 25 04:17:22 2019, MaxMem=   104857600 cpu:            2030.4 elap:              64.3
 (Enter /opt/software/gaussian/g16.b01/l801.exe)
 DoSCS=F DFT=T ScalE2(SS,OS)=  1.000000  1.000000
 ExpMin= 1.61D-01 ExpMax= 5.48D+03 ExpMxC= 8.25D+02 IAcc=3 IRadAn=         5 AccDes= 0.00D+00
 HarFok:  IExCor=  205 AccDes= 0.00D+00 IRadAn=         5 IDoV=-2 UseB2=F ITyADJ=14
 ICtDFT= 12500011 ScaDFX=  1.000000  1.000000  1.000000  1.000000
 Largest valence mixing into a core orbital is  5.95D-05
 Largest core mixing into a valence orbital is  1.20D-05
 Largest valence mixing into a core orbital is  6.29D-05
 Largest core mixing into a valence orbital is  1.21D-05
 Range of M.O.s used for correlation:    19   355
 NBasis=   355 NAE=    65 NBE=    64 NFC=    18 NFV=     0
 NROrb=    337 NOA=    47 NOB=    46 NVA=   290 NVB=   291

 **** Warning!!: The smallest beta delta epsilon is  0.97019332D-01

 Leave Link  801 at Sat May 25 04:17:22 2019, MaxMem=   104857600 cpu:               4.4 elap:               0.2
 (Enter /opt/software/gaussian/g16.b01/l914.exe)
 UHF ground state
 Ignoring spin specification with unrestricted ground state.
 Two-electron integrals replicated using symmetry.
 MDV=   104857600 DFT=T DoStab=F Mixed=T DoRPA=T DoScal=F NonHer=T
 NEqPCM:  Using non-equilibrium solvation (IEInf=1, Eps=  35.6880, EpsInf=   1.8069)
 Inv3:  Mode=1 IEnd=    17265603.
 Iteration    1 A*A^-1 deviation from unit magnitude is 3.55D-15 for    618.
 Iteration    1 A*A^-1 deviation from orthogonality  is 2.04D-15 for   1636    197.
 Iteration    1 A^-1*A deviation from unit magnitude is 3.77D-15 for    618.
 Iteration    1 A^-1*A deviation from orthogonality  is 1.67D-15 for   2250     78.
 Making orbital integer symmetry assigments:
 Orbital symmetries:
 Alpha Orbitals:
       Occupied  (A) (A) (A) (A) (A) (A) (A) (A) (A) (A) (A) (A)
                 (A) (A) (A) (A) (A) (A) (A) (A) (A) (A) (A) (A)
                 (A) (A) (A) (A) (A) (A) (A) (A) (A) (A) (A) (A)
                 (A) (A) (A) (A) (A) (A) (A) (A) (A) (A) (A) (A)
                 (A) (A) (A) (A) (A) (A) (A) (A) (A) (A) (A) (A)
                 (A) (A) (A) (A) (A)
       Virtual   (A) (A) (A) (A) (A) (A) (A) (A) (A) (A) (A) (A)
                 (A) (A) (A) (A) (A) (A) (A) (A) (A) (A) (A) (A)
                 (A) (A) (A) (A) (A) (A) (A) (A) (A) (A) (A) (A)
                 (A) (A) (A) (A) (A) (A) (A) (A) (A) (A) (A) (A)
                 (A) (A) (A) (A) (A) (A) (A) (A) (A) (A) (A) (A)
                 (A) (A) (A) (A) (A) (A) (A) (A) (A) (A) (A) (A)
                 (A) (A) (A) (A) (A) (A) (A) (A) (A) (A) (A) (A)
                 (A) (A) (A) (A) (A) (A) (A) (A) (A) (A) (A) (A)
                 (A) (A) (A) (A) (A) (A) (A) (A) (A) (A) (A) (A)
                 (A) (A) (A) (A) (A) (A) (A) (A) (A) (A) (A) (A)
                 (A) (A) (A) (A) (A) (A) (A) (A) (A) (A) (A) (A)
                 (A) (A) (A) (A) (A) (A) (A) (A) (A) (A) (A) (A)
                 (A) (A) (A) (A) (A) (A) (A) (A) (A) (A) (A) (A)
                 (A) (A) (A) (A) (A) (A) (A) (A) (A) (A) (A) (A)
                 (A) (A) (A) (A) (A) (A) (A) (A) (A) (A) (A) (A)
                 (A) (A) (A) (A) (A) (A) (A) (A) (A) (A) (A) (A)
                 (A) (A) (A) (A) (A) (A) (A) (A) (A) (A) (A) (A)
                 (A) (A) (A) (A) (A) (A) (A) (A) (A) (A) (A) (A)
                 (A) (A) (A) (A) (A) (A) (A) (A) (A) (A) (A) (A)
                 (A) (A) (A) (A) (A) (A) (A) (A) (A) (A) (A) (A)
                 (A) (A) (A) (A) (A) (A) (A) (A) (A) (A) (A) (A)
                 (A) (A) (A) (A) (A) (A) (A) (A) (A) (A) (A) (A)
                 (A) (A) (A) (A) (A) (A) (A) (A) (A) (A) (A) (A)
                 (A) (A) (A) (A) (A) (A) (A) (A) (A) (A) (A) (A)
                 (A) (A)
 Beta  Orbitals:
       Occupied  (A) (A) (A) (A) (A) (A) (A) (A) (A) (A) (A) (A)
                 (A) (A) (A) (A) (A) (A) (A) (A) (A) (A) (A) (A)
                 (A) (A) (A) (A) (A) (A) (A) (A) (A) (A) (A) (A)
                 (A) (A) (A) (A) (A) (A) (A) (A) (A) (A) (A) (A)
                 (A) (A) (A) (A) (A) (A) (A) (A) (A) (A) (A) (A)
                 (A) (A) (A) (A)
       Virtual   (A) (A) (A) (A) (A) (A) (A) (A) (A) (A) (A) (A)
                 (A) (A) (A) (A) (A) (A) (A) (A) (A) (A) (A) (A)
                 (A) (A) (A) (A) (A) (A) (A) (A) (A) (A) (A) (A)
                 (A) (A) (A) (A) (A) (A) (A) (A) (A) (A) (A) (A)
                 (A) (A) (A) (A) (A) (A) (A) (A) (A) (A) (A) (A)
                 (A) (A) (A) (A) (A) (A) (A) (A) (A) (A) (A) (A)
                 (A) (A) (A) (A) (A) (A) (A) (A) (A) (A) (A) (A)
                 (A) (A) (A) (A) (A) (A) (A) (A) (A) (A) (A) (A)
                 (A) (A) (A) (A) (A) (A) (A) (A) (A) (A) (A) (A)
                 (A) (A) (A) (A) (A) (A) (A) (A) (A) (A) (A) (A)
                 (A) (A) (A) (A) (A) (A) (A) (A) (A) (A) (A) (A)
                 (A) (A) (A) (A) (A) (A) (A) (A) (A) (A) (A) (A)
                 (A) (A) (A) (A) (A) (A) (A) (A) (A) (A) (A) (A)
                 (A) (A) (A) (A) (A) (A) (A) (A) (A) (A) (A) (A)
                 (A) (A) (A) (A) (A) (A) (A) (A) (A) (A) (A) (A)
                 (A) (A) (A) (A) (A) (A) (A) (A) (A) (A) (A) (A)
                 (A) (A) (A) (A) (A) (A) (A) (A) (A) (A) (A) (A)
                 (A) (A) (A) (A) (A) (A) (A) (A) (A) (A) (A) (A)
                 (A) (A) (A) (A) (A) (A) (A) (A) (A) (A) (A) (A)
                 (A) (A) (A) (A) (A) (A) (A) (A) (A) (A) (A) (A)
                 (A) (A) (A) (A) (A) (A) (A) (A) (A) (A) (A) (A)
                 (A) (A) (A) (A) (A) (A) (A) (A) (A) (A) (A) (A)
                 (A) (A) (A) (A) (A) (A) (A) (A) (A) (A) (A) (A)
                 (A) (A) (A) (A) (A) (A) (A) (A) (A) (A) (A) (A)
                 (A) (A) (A)
   144 initial guesses have been made.
 Convergence on wavefunction:    0.001000000000000
 Davidson Disk Diagonalization:  ConvIn= 1.00D-03 SkipCon=T Conv= 1.00D-03.
 Max sub-space:  2160 roots to seek:   144 dimension of matrix:        27016
 Iteration     1 Dimension   144 NMult     0 NNew    144
 CISAX will form     3 AO SS matrices at one time.
 NMat=     3 NSing=     3 JSym2X= 0.
 FoFJK:  IHMeth= 1 ICntrl=       0 DoSepK=F KAlg= 0 I1Cent=           0 FoldK=F
 IRaf= 840000000 NMat=       6 IRICut=       1 DoRegI=T DoRafI=F ISym2E= 0 IDoP0=0 IntGTp=1.
 NMat=     3 NSing=     3 JSym2X= 0.
 NMat=     3 NSing=     3 JSym2X= 0.
 NMat=     3 NSing=     3 JSym2X= 0.
 NMat=     3 NSing=     3 JSym2X= 0.
 NMat=     3 NSing=     3 JSym2X= 0.
 NMat=     3 NSing=     3 JSym2X= 0.
 NMat=     3 NSing=     3 JSym2X= 0.
 NMat=     3 NSing=     3 JSym2X= 0.
 NMat=     3 NSing=     3 JSym2X= 0.
 NMat=     3 NSing=     3 JSym2X= 0.
 NMat=     3 NSing=     3 JSym2X= 0.
 NMat=     3 NSing=     3 JSym2X= 0.
 NMat=     3 NSing=     3 JSym2X= 0.
 NMat=     3 NSing=     3 JSym2X= 0.
 NMat=     3 NSing=     3 JSym2X= 0.
 NMat=     3 NSing=     3 JSym2X= 0.
 NMat=     3 NSing=     3 JSym2X= 0.
 NMat=     3 NSing=     3 JSym2X= 0.
 NMat=     3 NSing=     3 JSym2X= 0.
 NMat=     3 NSing=     3 JSym2X= 0.
 NMat=     3 NSing=     3 JSym2X= 0.
 NMat=     3 NSing=     3 JSym2X= 0.
 NMat=     3 NSing=     3 JSym2X= 0.
 NMat=     3 NSing=     3 JSym2X= 0.
 NMat=     3 NSing=     3 JSym2X= 0.
 NMat=     3 NSing=     3 JSym2X= 0.
 NMat=     3 NSing=     3 JSym2X= 0.
 NMat=     3 NSing=     3 JSym2X= 0.
 NMat=     3 NSing=     3 JSym2X= 0.
 NMat=     3 NSing=     3 JSym2X= 0.
 NMat=     3 NSing=     3 JSym2X= 0.
 NMat=     3 NSing=     3 JSym2X= 0.
 NMat=     3 NSing=     3 JSym2X= 0.
 NMat=     3 NSing=     3 JSym2X= 0.
 NMat=     3 NSing=     3 JSym2X= 0.
 NMat=     3 NSing=     3 JSym2X= 0.
 NMat=     3 NSing=     3 JSym2X= 0.
 NMat=     3 NSing=     3 JSym2X= 0.
 NMat=     3 NSing=     3 JSym2X= 0.
 NMat=     3 NSing=     3 JSym2X= 0.
 NMat=     3 NSing=     3 JSym2X= 0.
 NMat=     3 NSing=     3 JSym2X= 0.
 NMat=     3 NSing=     3 JSym2X= 0.
 NMat=     3 NSing=     3 JSym2X= 0.
 NMat=     3 NSing=     3 JSym2X= 0.
 NMat=     3 NSing=     3 JSym2X= 0.
 NMat=     3 NSing=     3 JSym2X= 0.
 New state      1 was old state      3
 New state      2 was old state      1
 New state      3 was old state      2
 New state      8 was old state     10
 New state      9 was old state      8
 New state     10 was old state     41
 New state     11 was old state      9
 No map to state     12
 New state     13 was old state     20
 New state     14 was old state     23
 New state     15 was old state     40
 New state     16 was old state     36
 New state     17 was old state     11
 New state     18 was old state     15
 New state     19 was old state     27
 New state     20 was old state     12
 New state     21 was old state     16
 New state     22 was old state     13
 New state     23 was old state     24
 New state     24 was old state     19
 New state     25 was old state     38
 New state     27 was old state     14
 New state     28 was old state     17
 New state     29 was old state     43
 New state     30 was old state     22
 New state     31 was old state     21
 New state     32 was old state     33
 New state     33 was old state     31
 New state     34 was old state     39
 New state     35 was old state     25
 New state     36 was old state     42
 Excitation Energies [eV] at current iteration:
 Root      1 :     0.720501633464382
 Root      2 :     1.956281258202418
 Root      3 :     2.047135615825102
 Root      4 :     2.360423347089191
 Root      5 :     2.663288192313820
 Root      6 :     2.980270005317923
 Root      7 :     3.755607013341496
 Root      8 :     4.188234283715585
 Root      9 :     4.203222411215616
 Root     10 :     4.282496202029164
 Root     11 :     4.486347368286849
 Root     12 :     4.604401258940042
 Root     13 :     4.728671105613494
 Root     14 :     4.736134233615103
 Root     15 :     4.779955664387525
 Root     16 :     4.807329217837848
 Root     17 :     4.855111079698928
 Root     18 :     5.068132885255758
 Root     19 :     5.121886230031877
 Root     20 :     5.142139868010673
 Root     21 :     5.172553873888341
 Root     22 :     5.334134888691671
 Root     23 :     5.347398209966110
 Root     24 :     5.396043940924825
 Root     25 :     5.449325040902829
 Root     26 :     5.495956774755730
 Root     27 :     5.562622018366904
 Root     28 :     5.613369782296401
 Root     29 :     5.655269508369424
 Root     30 :     5.727898466179111
 Root     31 :     5.790293998068581
 Root     32 :     5.812217647557284
 Root     33 :     5.849554184081029
 Root     34 :     5.863158102330027
 Root     35 :     5.937179627387859
 Root     36 :     5.942036442664545
 Root     37 :     6.003720527152693
 Root     38 :     6.026483610444148
 Root     39 :     6.041278778156292
 Root     40 :     6.084328481429267
 Root     41 :     6.128266413973146
 Root     42 :     6.163727122649933
 Root     43 :     6.186635735618403
 Root     44 :     6.218262412557628
 Root     45 :     6.250573521173047
 Root     46 :     6.285613380471197
 Root     47 :     6.314940352003874
 Root     48 :     6.331342973691999
 Root     49 :     6.346375808195136
 Root     50 :     6.412123133552189
 Root     51 :     6.503564514593715
 Root     52 :     6.586961313028188
 Root     53 :     6.614898581805577
 Root     54 :     6.629153808040932
 Root     55 :     6.653913791262810
 Root     56 :     6.668076710910936
 Root     57 :     6.758646172494554
 Root     58 :     6.838299142146419
 Root     59 :     6.854468228782933
 Root     60 :     6.866539578670829
 Root     61 :     6.873480012634692
 Root     62 :     6.991548089094584
 Root     63 :     7.032653258804168
 Root     64 :     7.053471151154922
 Root     65 :     7.175853396323403
 Root     66 :     7.195271211430486
 Root     67 :     7.215237474326150
 Root     68 :     7.230883582880106
 Root     69 :     7.271870490759216
 Root     70 :     7.319067490759791
 Root     71 :     7.378281186002115
 Root     72 :     7.469130461591125
 Root     73 :     7.514867787092707
 Root     74 :     7.521587452794552
 Root     75 :     7.568169677307532
 Root     76 :     7.590581366282998
 Root     77 :     7.627211735148904
 Root     78 :     7.658029426583281
 Root     79 :     7.680634350432514
 Root     80 :     7.685653987685661
 Root     81 :     7.734256111747785
 Root     82 :     7.785309991210935
 Root     83 :     7.815366988491878
 Root     84 :     7.821822893448523
 Root     85 :     7.888258714545431
 Root     86 :     7.897209304317054
 Root     87 :     7.918428307244758
 Root     88 :     7.958617368067244
 Root     89 :     7.978499469833352
 Root     90 :     8.008851015468139
 Root     91 :     8.037015229752775
 Root     92 :     8.082162806426402
 Root     93 :     8.106639463451000
 Root     94 :     8.135329489466011
 Root     95 :     8.146695238885698
 Root     96 :     8.180538537166633
 Root     97 :     8.211183632416978
 Root     98 :     8.236833921448980
 Root     99 :     8.244690130461967
 Root    100 :     8.259966459894937
 Root    101 :     8.267559668505813
 Root    102 :     8.287979088212381
 Root    103 :     8.316057653200819
 Root    104 :     8.334871543200567
 Root    105 :     8.351100725587363
 Root    106 :     8.372989550048835
 Root    107 :     8.396798767059458
 Root    108 :     8.416019998765478
 Root    109 :     8.440494403831389
 Root    110 :     8.456810875168937
 Root    111 :     8.479486543459444
 Root    112 :     8.488635975342349
 Root    113 :     8.495295886045012
 Root    114 :     8.513548383062254
 Root    115 :     8.530298048013883
 Root    116 :     8.546086866657149
 Root    117 :     8.556343137215466
 Root    118 :     8.562944830877862
 Root    119 :     8.581793692182973
 Root    120 :     8.585601052235139
 Root    121 :     8.611400612916347
 Root    122 :     8.645383098795557
 Root    123 :     8.666836410504599
 Root    124 :     8.678008938072677
 Root    125 :     8.719215146487214
 Root    126 :     8.730282892934287
 Root    127 :     8.743421890300487
 Root    128 :     8.754576769961199
 Root    129 :     8.764656506553317
 Root    130 :     8.784102612322846
 Root    131 :     8.805643915042369
 Root    132 :     8.820704471070488
 Root    133 :     8.832723479513675
 Root    134 :     8.864840885194811
 Root    135 :     8.911592215632945
 Root    136 :     8.957946543718050
 Root    137 :     8.981635427803132
 Root    138 :     9.040134177181116
 Root    139 :     9.076284425064754
 Root    140 :     9.100001414803243
 Root    141 :     9.131781728997577
 Root    142 :     9.186442337337708
 Root    143 :     9.334917291537971
 Root    144 :     9.351400120319537
 Iteration     2 Dimension   216 NMult   144 NNew     72
 CISAX will form     3 AO SS matrices at one time.
 NMat=     3 NSing=     3 JSym2X= 0.
 NMat=     3 NSing=     3 JSym2X= 0.
 NMat=     3 NSing=     3 JSym2X= 0.
 NMat=     3 NSing=     3 JSym2X= 0.
 NMat=     3 NSing=     3 JSym2X= 0.
 NMat=     3 NSing=     3 JSym2X= 0.
 NMat=     3 NSing=     3 JSym2X= 0.
 NMat=     3 NSing=     3 JSym2X= 0.
 NMat=     3 NSing=     3 JSym2X= 0.
 NMat=     3 NSing=     3 JSym2X= 0.
 NMat=     3 NSing=     3 JSym2X= 0.
 NMat=     3 NSing=     3 JSym2X= 0.
 NMat=     3 NSing=     3 JSym2X= 0.
 NMat=     3 NSing=     3 JSym2X= 0.
 NMat=     3 NSing=     3 JSym2X= 0.
 NMat=     3 NSing=     3 JSym2X= 0.
 NMat=     3 NSing=     3 JSym2X= 0.
 NMat=     3 NSing=     3 JSym2X= 0.
 NMat=     3 NSing=     3 JSym2X= 0.
 NMat=     3 NSing=     3 JSym2X= 0.
 NMat=     3 NSing=     3 JSym2X= 0.
 NMat=     3 NSing=     3 JSym2X= 0.
 NMat=     3 NSing=     3 JSym2X= 0.
 NMat=     3 NSing=     3 JSym2X= 0.
 Root      1 not converged, maximum delta is    0.063857605664792
 Root      2 not converged, maximum delta is    0.460588968425408
 Root      3 not converged, maximum delta is    0.437549641445360
 Root      4 not converged, maximum delta is    0.254050769611915
 Root      5 not converged, maximum delta is    0.278959722707213
 Root      6 not converged, maximum delta is    0.159326851675692
 Root      7 not converged, maximum delta is    0.101391643015578
 New state      8 was old state      9
 Root      8 not converged, maximum delta is    0.434486646824871
 New state      9 was old state     10
 Root      9 not converged, maximum delta is    0.179185097603660
 New state     10 was old state      8
 Root     10 not converged, maximum delta is    0.285913875422793
 Root     11 not converged, maximum delta is    0.253352689992203
 Root     12 not converged, maximum delta is    0.065489891708121
 Root     13 not converged, maximum delta is    0.566015545755794
 Root     14 not converged, maximum delta is    0.164426197287342
 Root     15 not converged, maximum delta is    0.349267397997223
 New state     16 was old state     17
 Root     16 not converged, maximum delta is    0.385169897217289
 New state     17 was old state     16
 Root     17 not converged, maximum delta is    0.092260608975475
 New state     18 was old state     20
 Root     18 not converged, maximum delta is    0.603458829673962
 New state     19 was old state     18
 Root     19 not converged, maximum delta is    0.052102957151804
 New state     20 was old state     19
 Root     20 not converged, maximum delta is    0.069099500322307
 Root     21 not converged, maximum delta is    0.406078343914897
 Root     22 not converged, maximum delta is    0.399796568947128
 Root     23 not converged, maximum delta is    0.374367620093153
 Root     24 not converged, maximum delta is    0.053335900070461
 Root     25 not converged, maximum delta is    0.043352805930410
 Root     26 not converged, maximum delta is    0.119451423734914
 Root     27 not converged, maximum delta is    0.168038134196767
 Root     28 not converged, maximum delta is    0.140036575768520
 Root     29 not converged, maximum delta is    0.127661391095734
 Root     30 not converged, maximum delta is    0.084352212063365
 Root     31 not converged, maximum delta is    0.073866867800918
 Root     32 not converged, maximum delta is    0.091634145357816
 New state     33 was old state     34
 Root     33 not converged, maximum delta is    0.237355025865648
 New state     34 was old state     33
 Root     34 not converged, maximum delta is    0.294258324596804
 Root     35 not converged, maximum delta is    0.430399984244377
 Root     36 not converged, maximum delta is    0.249653586035938
 Excitation Energies [eV] at current iteration:
 Root      1 :     0.567787724048209   Change is   -0.152713909416173
 Root      2 :     1.832440310299772   Change is   -0.123840947902646
 Root      3 :     1.991721627487301   Change is   -0.055413988337801
 Root      4 :     2.304170508985903   Change is   -0.056252838103288
 Root      5 :     2.429717930269979   Change is   -0.233570262043841
 Root      6 :     2.819731513373320   Change is   -0.160538491944602
 Root      7 :     3.586530271364810   Change is   -0.169076741976686
 Root      8 :     3.771870013216231   Change is   -0.431352397999384
 Root      9 :     3.858465421539819   Change is   -0.424030780489345
 Root     10 :     4.097662409639006   Change is   -0.090571874076579
 Root     11 :     4.424360036870514   Change is   -0.061987331416335
 Root     12 :     4.586588827977335   Change is   -0.017812430962708
 Root     13 :     4.652857607212235   Change is   -0.075813498401259
 Root     14 :     4.670643157715219   Change is   -0.065491075899885
 Root     15 :     4.678823412528620   Change is   -0.101132251858904
 Root     16 :     4.732439368741162   Change is   -0.122671710957766
 Root     17 :     4.748767305319668   Change is   -0.058561912518179
 Root     18 :     5.020163747958988   Change is   -0.121976120051685
 Root     19 :     5.039813898083484   Change is   -0.028318987172274
 Root     20 :     5.092197401284314   Change is   -0.029688828747563
 Root     21 :     5.143986135475853   Change is   -0.028567738412489
 Root     22 :     5.287418730022958   Change is   -0.046716158668713
 Root     23 :     5.305925332537966   Change is   -0.041472877428144
 Root     24 :     5.335809411322706   Change is   -0.060234529602119
 Root     25 :     5.393734318275762   Change is   -0.055590722627066
 Root     26 :     5.469273332756506   Change is   -0.026683441999224
 Root     27 :     5.493226342341161   Change is   -0.069395676025743
 Root     28 :     5.558268927265527   Change is   -0.055100855030875
 Root     29 :     5.596220779023532   Change is   -0.059048729345893
 Root     30 :     5.666567992203438   Change is   -0.061330473975673
 Root     31 :     5.766695121381842   Change is   -0.023598876686739
 Root     32 :     5.788875334554410   Change is   -0.023342313002874
[...]
     7  H    0.000001  -0.000001  -0.000005  -0.000000  -0.000000  -0.000000
     8  C   -0.001666   0.000003  -0.000003   0.000035  -0.000124   0.000007
     9  H    0.000014  -0.000000   0.000000  -0.000003   0.000051  -0.000000
    10  H   -0.000026   0.000000  -0.000000   0.000001  -0.000007   0.000000
    11  H    0.000426   0.000001  -0.000001  -0.000000  -0.000009  -0.000003
    12  C    0.000038  -0.000003  -0.000000  -0.000008   0.000026  -0.000002
    13  C    0.000044  -0.000000  -0.000000  -0.000000  -0.000014  -0.000000
    14  C    0.000283  -0.000000   0.000000  -0.000023   0.000020  -0.000005
    15  C   -0.000002   0.000000  -0.000000   0.000000   0.000001   0.000000
    16  H    0.000001   0.000000  -0.000000   0.000000  -0.000001  -0.000000
    17  C   -0.000002  -0.000000   0.000000  -0.000000  -0.000002  -0.000000
    18  H    0.000031  -0.000003  -0.000000  -0.000028  -0.000001  -0.000004
    19  C   -0.000006   0.000000  -0.000000   0.000000  -0.000000   0.000000
    20  H   -0.000000   0.000000   0.000000   0.000000   0.000000   0.000000
    21  H   -0.000006   0.000000   0.000000   0.000001   0.000000   0.000000
    22  H    0.000000  -0.000000  -0.000000  -0.000000  -0.000000  -0.000000
    23  C    0.002584  -0.000368   0.000164  -0.000016  -0.000139  -0.000625
    24  C    0.000192  -0.000946   0.000159   0.000059  -0.000021  -0.001630
    25  C    0.040527   0.000022  -0.000003  -0.001705   0.000379  -0.001589
    26  C    0.000022  -0.022364   0.000116  -0.000065  -0.000003   0.000976
    27  H   -0.000003   0.000116  -0.002221  -0.000004   0.000000  -0.000002
    28  C   -0.001705  -0.000065  -0.000004  -0.021520   0.000133   0.001688
    29  H    0.000379  -0.000003   0.000000   0.000133  -0.002041  -0.000002
    30  C   -0.001589   0.000976  -0.000002   0.001688  -0.000002   0.049928
    31  H   -0.000007   0.000026   0.000012   0.000005  -0.000000  -0.000157
    32  H   -0.000094   0.000012  -0.000000   0.000103   0.000011  -0.000109
    33  H    0.000011  -0.000036   0.000001  -0.000004   0.000001   0.000292
    34  O    0.000051  -0.000002  -0.000033  -0.000001   0.000002  -0.000000
    35  H   -0.000009   0.000001  -0.000002   0.000000  -0.000000   0.000000
              31         32         33         34         35
     1  C    0.000000   0.000000  -0.000000   0.001787  -0.001538
     2  C    0.000001   0.000004  -0.000000  -0.015880  -0.001237
     3  O   -0.000000  -0.000000   0.000000   0.000987   0.000477
     4  C   -0.000001  -0.000000   0.000000   0.002201   0.001010
     5  H    0.000000   0.000000  -0.000000  -0.000064  -0.000040
     6  H    0.000006   0.000000  -0.000000  -0.000401  -0.000067
     7  H   -0.000000  -0.000000   0.000000   0.000197   0.000063
     8  C   -0.000000  -0.000002   0.000000  -0.000947   0.000827
     9  H    0.000000   0.000000  -0.000000  -0.000016  -0.000019
    10  H   -0.000000  -0.000000   0.000000  -0.000342   0.000099
    11  H    0.000000   0.000000  -0.000000   0.000648  -0.000129
    12  C   -0.000000  -0.000000   0.000000   0.000026  -0.000024
    13  C   -0.000000  -0.000000   0.000000   0.000005   0.000012
    14  C   -0.000000  -0.000003   0.000000  -0.000004   0.000001
    15  C    0.000000   0.000000  -0.000000   0.000000   0.000000
    16  H   -0.000000  -0.000000   0.000000   0.000001   0.000006
    17  C   -0.000000  -0.000000   0.000000  -0.000000  -0.000000
    18  H   -0.000000  -0.000000   0.000000   0.000001   0.000000
    19  C    0.000000   0.000000  -0.000000   0.000000  -0.000000
    20  H    0.000000   0.000000  -0.000000  -0.000000  -0.000000
    21  H    0.000000   0.000000  -0.000000  -0.000000  -0.000000
    22  H   -0.000000  -0.000000   0.000000   0.000000   0.000000
    23  C    0.000063   0.000013  -0.000021   0.002201   0.000139
    24  C   -0.000091  -0.000012   0.000013   0.000371   0.000008
    25  C   -0.000007  -0.000094   0.000011   0.000051  -0.000009
    26  C    0.000026   0.000012  -0.000036  -0.000002   0.000001
    27  H    0.000012  -0.000000   0.000001  -0.000033  -0.000002
    28  C    0.000005   0.000103  -0.000004  -0.000001   0.000000
    29  H   -0.000000   0.000011   0.000001   0.000002  -0.000000
    30  C   -0.000157  -0.000109   0.000292  -0.000000   0.000000
    31  H    0.001063   0.000000  -0.000007  -0.000000  -0.000000
    32  H    0.000000   0.000867  -0.000001   0.000000  -0.000000
    33  H   -0.000007  -0.000001  -0.002330   0.000000   0.000000
    34  O   -0.000000   0.000000   0.000000   0.035353  -0.000090
    35  H   -0.000000  -0.000000   0.000000  -0.000090   0.000179
 Mulliken charges and spin densities:
               1          2
     1  C    0.232576  -0.024917
     2  C    0.219499   0.148731
     3  O   -0.460977   0.693965
     4  C   -0.320893   0.064685
     5  H    0.124404   0.001027
     6  H    0.125048   0.002714
     7  H    0.122053  -0.002994
     8  C   -0.322215   0.013048
     9  H    0.124700  -0.000319
    10  H    0.118561  -0.001814
    11  H    0.122170   0.000879
    12  C    0.089521  -0.003936
    13  C   -0.125160   0.007392
    14  C   -0.124076   0.008665
    15  C   -0.103313  -0.002588
    16  H    0.102074  -0.001389
    17  C   -0.111282  -0.004846
    18  H    0.101683  -0.000323
    19  C   -0.097365   0.009095
    20  H    0.101007   0.000045
    21  H    0.102022   0.000191
    22  H    0.101536  -0.000353
    23  C    0.090420  -0.015556
    24  C   -0.109038   0.043083
    25  C   -0.111738   0.038765
    26  C   -0.104782  -0.022668
    27  H    0.114462  -0.001794
    28  C   -0.110251  -0.021458
    29  H    0.107600  -0.001524
    30  C   -0.090582   0.048855
    31  H    0.106531   0.000914
    32  H    0.107470   0.000790
    33  H    0.107529  -0.002081
    34  O   -0.558406   0.026049
    35  H    0.329213  -0.000333
 Sum of Mulliken charges =  -0.00000   1.00000
 Mulliken charges and spin densities with hydrogens summed into heavy atoms:
               1          2
     1  C    0.232576  -0.024917
     2  C    0.219499   0.148731
     3  O   -0.460977   0.693965
     4  C    0.050611   0.065432
     8  C    0.043217   0.011795
    12  C    0.089521  -0.003936
    13  C   -0.023087   0.006003
    14  C   -0.022393   0.008342
    15  C   -0.002306  -0.002543
    17  C   -0.009260  -0.004656
    19  C    0.004171   0.008742
    23  C    0.090420  -0.015556
    24  C    0.005423   0.041289
    25  C   -0.004138   0.037241
    26  C    0.001749  -0.021754
    28  C   -0.002781  -0.020669
    30  C    0.016947   0.046774
    34  O   -0.229193   0.025717
 Electronic spatial extent (au):  <R**2>=           4062.4642
 Charge=             -0.0000 electrons
 Dipole moment (field-independent basis, Debye):
    X=              0.6591    Y=              2.8113    Z=              0.0519  Tot=              2.8880
 Quadrupole moment (field-independent basis, Debye-Ang):
   XX=           -102.1640   YY=           -101.0881   ZZ=           -102.8024
   XY=              0.1580   XZ=             -6.7541   YZ=             -0.1674
 Traceless Quadrupole moment (field-independent basis, Debye-Ang):
   XX=             -0.1458   YY=              0.9301   ZZ=             -0.7843
   XY=              0.1580   XZ=             -6.7541   YZ=             -0.1674
 Octapole moment (field-independent basis, Debye-Ang**2):
  XXX=              2.3314  YYY=              7.2289  ZZZ=             -0.5630  XYY=              8.0437
  XXY=             24.3207  XXZ=             -2.0046  XZZ=              1.5494  YZZ=            -11.9717
  YYZ=              2.3763  XYZ=              4.0671
 Hexadecapole moment (field-independent basis, Debye-Ang**3):
 XXXX=          -2902.3669 YYYY=          -1574.5806 ZZZZ=           -690.6828 XXXY=             13.3913
 XXXZ=           -134.6846 YYYX=            -18.0654 YYYZ=             -5.9877 ZZZX=             -2.1843
 ZZZY=              3.4911 XXYY=           -747.9198 XXZZ=           -637.7059 YYZZ=           -387.6831
 XXYZ=              0.4520 YYXZ=             -5.2051 ZZXY=              2.5149
 N-N= 1.329359735490D+03 E-N=-4.448929769641D+03  KE= 7.631323934294D+02
 Leave Link  601 at Sat May 25 04:45:45 2019, MaxMem=   104857600 cpu:               3.4 elap:               0.2
 (Enter /opt/software/gaussian/g16.b01/l9999.exe)
 Electronic transition elements 
                 1             2             3             4             5 
      1  -0.770372D+03 -0.770326D+03 -0.770320D+03 -0.770308D+03 -0.770304D+03
      2  -0.233293D+00  0.634979D-01 -0.355371D+00  0.621578D+00  0.663765D+00
      3  -0.135849D+00 -0.357438D+00 -0.221502D+00  0.359163D+00  0.637226D+00
      4  -0.197872D+00 -0.911412D-01 -0.122665D+00  0.239771D-01  0.161232D+00
      5   0.471097D-02 -0.420332D-02  0.242406D-01 -0.516559D-01 -0.568795D-01
      6   0.265642D-02  0.239199D-01  0.163874D-01 -0.285399D-01 -0.548561D-01
      7   0.390230D-02  0.613310D-02  0.104649D-01 -0.560860D-03 -0.129083D-01
      8  -0.275317D+00  0.194803D+00  0.811196D-01  0.125490D+00 -0.654834D-01
      9  -0.670405D+00 -0.211962D-01  0.684399D-01 -0.134696D+00 -0.897688D-01
     10   0.186981D+00 -0.519254D-01  0.367502D+00 -0.307864D-01 -0.158108D+00
     11   0.112328D-01  0.119405D+00  0.567894D-01 -0.170512D+00 -0.156776D+00
     12   0.929020D-04 -0.767879D-01 -0.379362D-01  0.644608D-01  0.792158D-01
     13  -0.122571D-01  0.117396D-01  0.854459D-04  0.203477D-01 -0.190413D-02
     14   0.468342D-02 -0.143692D+00  0.513476D-01 -0.799635D-01 -0.285468D-01
     15   0.493309D-02 -0.205918D-01 -0.694909D-02  0.319916D-01  0.796694D-02
     16  -0.653861D-02 -0.314575D-01  0.474610D-02 -0.233993D-02  0.101619D-01
                 6             7             8             9            10 
      1  -0.770290D+03 -0.770261D+03 -0.770255D+03 -0.770251D+03 -0.770243D+03
      2   0.201161D+00  0.248766D+00  0.138005D+00 -0.230588D+00  0.646324D-01
      3  -0.301951D+00  0.972148D-01 -0.518379D-02 -0.189749D+00  0.163272D+00
      4   0.119325D+00  0.956425D-01  0.236242D-01 -0.265893D-01  0.509507D-01
      5  -0.206352D-01 -0.316289D-01 -0.183477D-01  0.317013D-01 -0.104287D-01
      6   0.311836D-01 -0.122104D-01  0.962016D-03  0.262614D-01 -0.245607D-01
      7  -0.916795D-02 -0.114435D-01 -0.295158D-02  0.378971D-02 -0.108925D-01
      8  -0.107418D+00 -0.408070D+00 -0.345076D-01 -0.523434D-01  0.465869D+00
      9  -0.132270D+00  0.380980D+00  0.505871D-01  0.519138D-01 -0.937621D-01
     10   0.262203D-01  0.247759D+00 -0.142418D-01  0.134257D+00 -0.772085D-01
     11   0.134096D+00 -0.547359D-01  0.217745D-02  0.120547D+00 -0.213173D-01
     12  -0.347426D-01  0.291795D-01 -0.360430D-02 -0.195936D-01  0.105020D+00
     13  -0.475483D-01 -0.154508D-01 -0.155499D-02 -0.231028D-01 -0.653752D-01
     14   0.144109D+00  0.174105D-01 -0.375513D-01  0.797097D-01  0.159763D+00
     15  -0.754809D-02 -0.358468D-01 -0.625975D-02 -0.156519D-01  0.467234D-01
     16   0.333537D-01  0.297953D-02 -0.610797D-02  0.384612D-02  0.100113D+00
                11            12            13            14            15 
      1  -0.770230D+03 -0.770224D+03 -0.770222D+03 -0.770221D+03 -0.770221D+03
      2   0.147623D+00  0.944536D-02 -0.152395D+00 -0.179556D+00 -0.323874D-01
      3   0.120753D+00  0.693473D-01 -0.147254D+00 -0.213719D-02 -0.964601D-02
      4  -0.423808D-01 -0.325854D-02 -0.199650D-01 -0.229308D-01  0.415158D-02
      5  -0.237746D-01 -0.201413D-02  0.252445D-01  0.302343D-01  0.579803D-02
      6  -0.188694D-01 -0.120730D-01  0.257012D-01 -0.111650D-03  0.103175D-02
      7   0.729993D-02 -0.733550D-03  0.276730D-02  0.387038D-02 -0.118944D-02
      8  -0.274734D+00  0.364888D-01 -0.635117D-01  0.262862D-01 -0.369623D-01
      9   0.171390D+00  0.609901D-01 -0.627821D-01  0.798922D-02 -0.402912D-02
     10  -0.522658D-01  0.598711D-01  0.137909D+00  0.589787D-01  0.135881D-01
     11  -0.141217D-01 -0.354290D-01 -0.363912D-01  0.677640D-01 -0.361503D-02
     12   0.107522D+00  0.343463D-01 -0.182485D+00  0.610700D-01 -0.104503D+00
     13  -0.131176D+00 -0.334707D-01  0.205281D+00 -0.906049D-01  0.102228D+00
     14   0.133899D-01 -0.155903D-01 -0.256919D-01  0.799645D-01 -0.262199D-01
     15   0.786049D-02  0.195748D-02 -0.250643D-02 -0.397430D-02 -0.181293D-01
     16  -0.199821D-01 -0.313682D-02 -0.248887D-03  0.104412D-01 -0.499333D-02
                16            17            18            19            20 
      1  -0.770219D+03 -0.770218D+03 -0.770209D+03 -0.770208D+03 -0.770206D+03
      2   0.162571D+00  0.427693D-01 -0.187532D+00  0.119622D-01  0.490989D-01
      3   0.105808D+00 -0.416445D-02 -0.157820D+00  0.241441D-01  0.382336D-01
      4   0.320091D-01 -0.313236D-01  0.367846D-01  0.157904D-01  0.111387D-01
      5  -0.282810D-01 -0.739723D-02  0.348147D-01 -0.170961D-02 -0.932200D-02
      6  -0.181904D-01  0.112368D-02  0.292461D-01 -0.541089D-02 -0.725535D-02
      7  -0.587166D-02  0.528723D-02 -0.353875D-02 -0.286616D-02 -0.165624D-02
      8  -0.240143D-01  0.610360D-01 -0.253174D+00 -0.384579D-01 -0.396484D-01
      9  -0.884892D-01 -0.789906D-01  0.197237D+00  0.604467D-01  0.360417D-01
     10  -0.990605D-01  0.734050D-01  0.326787D+00 -0.583547D-01 -0.723261D-01
     11  -0.176062D+00 -0.950693D-01 -0.123333D-01  0.308258D-01  0.858148D-02
     12  -0.899308D-01  0.262755D-01 -0.171677D+00 -0.382344D-01 -0.865597D-02
     13   0.186450D+00  0.271707D-01  0.149912D+00  0.629801D-02 -0.103159D-02
     14  -0.115527D+00  0.121854D-01 -0.294053D-01 -0.189604D-01 -0.240263D-01
     15   0.148035D-01  0.329464D-01 -0.767137D-01 -0.229106D-01 -0.834906D-02
     16  -0.159343D-01  0.180963D-01 -0.337856D-01 -0.817390D-02 -0.460835D-02
                21            22            23            24            25 
      1  -0.770204D+03 -0.770199D+03 -0.770198D+03 -0.770197D+03 -0.770195D+03
      2   0.666187D-01 -0.142694D+00  0.348653D-01  0.278076D-01  0.754017D-01
      3   0.256871D-01  0.590239D-01  0.901497D-01 -0.259889D-01 -0.879913D-02
      4   0.445619D-01 -0.720516D-01  0.426056D-01  0.243145D-01  0.349753D-01
      5  -0.127327D-01  0.269636D-01 -0.748108D-02 -0.586591D-02 -0.158826D-01
      6  -0.505038D-02 -0.130636D-01 -0.192151D-01  0.471585D-02  0.118022D-02
      7  -0.682154D-02  0.137204D-01 -0.771239D-02 -0.515981D-02 -0.618777D-02
      8  -0.210639D-01 -0.324947D+00  0.420074D-01 -0.340427D-01  0.414068D-01
      9   0.320551D-01  0.657373D-02 -0.874509D-01 -0.183916D-01 -0.181688D-01
     10  -0.603579D-01  0.976603D-01 -0.338122D-01 -0.203269D+00 -0.199123D+00
     11  -0.123458D-01 -0.493081D-01 -0.525129D-01  0.117658D-01  0.347470D-02
     12   0.613562D-01  0.540913D-01  0.111251D+00  0.197644D-01  0.917737D-02
     13  -0.744880D-01 -0.226609D-01  0.341632D-01 -0.254168D-02 -0.520127D-03
     14   0.381123D-01 -0.103114D+00  0.963170D-01 -0.406669D-01 -0.140137D-01
     15   0.974024D-02 -0.134067D-01  0.267100D-01  0.100791D-02  0.534410D-02
     16  -0.207314D-01 -0.679083D-01  0.717573D-03 -0.461488D-02  0.342414D-02
                26            27            28            29            30 
      1  -0.770192D+03 -0.770191D+03 -0.770189D+03 -0.770187D+03 -0.770185D+03
      2   0.492673D-01  0.786857D+00  0.119682D+00  0.637698D-01  0.444254D+00
      3   0.363353D-01  0.104852D+00 -0.214287D+00  0.921381D-01  0.348182D-01
      4  -0.837837D-01  0.612888D-01 -0.206777D-01 -0.529555D-01  0.118475D+00
      5  -0.883022D-02 -0.157314D+00 -0.245052D-01 -0.160547D-01 -0.919811D-01
      6  -0.689960D-02 -0.209220D-01  0.438245D-01 -0.170568D-01 -0.689547D-02
      7   0.161785D-01 -0.127592D-01  0.343602D-02  0.602518D-02 -0.260661D-01
      8  -0.162034D+00  0.298482D+00 -0.491362D-01 -0.178680D+00  0.183041D+00
      9   0.158904D+00 -0.790199D-01  0.201870D+00  0.582456D-01  0.142404D+00
     10  -0.186840D-02 -0.500807D+00 -0.518491D-01 -0.767321D-01 -0.389246D+00
     11  -0.670113D-01 -0.964301D-01  0.348083D+00 -0.822158D-01  0.128875D+00
     12  -0.379678D-01  0.170059D-01 -0.263877D-01  0.733981D-02 -0.833889D-01
     13   0.597564D-01  0.152950D-01 -0.104280D+00  0.221081D-01 -0.124264D-01
     14  -0.921262D-01 -0.408541D+00 -0.455511D-01  0.442896D-01 -0.225833D+00
     15   0.100920D-01  0.367950D-01 -0.503511D-01  0.439253D-01 -0.429549D-01
     16  -0.363403D-01 -0.122918D-01 -0.203928D-01 -0.103029D-01  0.386031D-01
                31            32            33            34            35 
      1  -0.770181D+03 -0.770180D+03 -0.770179D+03 -0.770178D+03 -0.770177D+03
      2   0.136448D+00  0.391286D+00 -0.251793D+00 -0.974840D-01 -0.124750D+00
      3   0.236486D+00 -0.775586D-01  0.164201D+00  0.530620D-01  0.699119D-01
      4   0.504352D-01 -0.731480D-01  0.265196D-01 -0.327392D-01  0.338820D-01
      5  -0.270176D-01 -0.815849D-01  0.504187D-01  0.191796D-01  0.225498D-01
      6  -0.505554D-01  0.160867D-01 -0.379218D-01 -0.117637D-01 -0.138050D-01
      7  -0.908274D-02  0.169543D-01 -0.538996D-02  0.471431D-02 -0.914216D-02
      8  -0.704946D-01  0.711883D-01 -0.164034D-01  0.423752D-01 -0.306218D-01
      9   0.119194D+00  0.285025D-01  0.139737D+00  0.510071D-01 -0.111102D+00
     10  -0.172834D-01  0.526974D-01 -0.351607D+00  0.889983D-01 -0.423331D+00
     11   0.129862D+00  0.211441D+00  0.214008D+00  0.883731D-01 -0.243055D+00
     12  -0.120579D+00 -0.569478D-01 -0.142306D+00 -0.512960D-01  0.373136D-01
     13  -0.201500D-01 -0.480238D-02 -0.297898D-01 -0.242004D-02  0.371258D-01
     14  -0.840265D-01 -0.241785D+00  0.132441D-01  0.113795D+00 -0.934285D-01
     15  -0.102567D+00 -0.263090D-01 -0.137577D+00 -0.381155D-01  0.591941D-01
     16  -0.995769D-02 -0.279992D-01 -0.540370D-01  0.257955D-01 -0.625991D-01
                36 
      1  -0.770175D+03
      2  -0.104028D+00
      3   0.106099D+00
      4   0.611269D-01
      5   0.243600D-01
      6  -0.231123D-01
      7  -0.124738D-01
      8  -0.786014D-01
      9  -0.864925D-01
     10  -0.151058D+00
     11  -0.274447D+00
     12   0.638416D-01
     13   0.572181D-01
     14  -0.173507D-01
     15   0.397916D-01
     16  -0.335263D-01
 1\1\GINC-GRA730\SP\UB3LYP TD-FC\6-31G(d,p)\C16H17O2(2)\RZK\25-May-2019
 \0\\#p td=(50-50,nstates=36) ub3lyp/6-31g(d,p) scrf=(iefpcm,solvent=ac
 etonitrile) guess=(mix,always) empiricaldispersion=gd3\\Title Card Req
 uired\\0,2\C,0,-0.601112,-1.320901,-0.576788\C,0,0.653645,-1.300739,0.
 570024\O,0,-1.159302,-2.518996,-0.333664\C,0,0.060585,-1.341291,-1.979
 454\H,0,-0.727257,-1.439264,-2.729669\H,0,0.623707,-0.427827,-2.170969
 \H,0,0.73439,-2.194394,-2.048091\C,0,0.023517,-1.375028,1.967569\H,0,-
 0.659811,-0.550007,2.168134\H,0,-0.537482,-2.307715,2.05839\H,0,0.8222
 61,-1.362772,2.713457\C,0,-1.55933,-0.145189,-0.379575\C,0,-2.740374,-
 0.343338,0.349667\C,0,-1.306773,1.129754,-0.906806\C,0,-3.640597,0.701
 651,0.555459\H,0,-2.945623,-1.330743,0.748075\C,0,-2.207081,2.177583,-
 0.704048\H,0,-0.40055,1.319379,-1.469763\C,0,-3.376304,1.968971,0.0294
 89\H,0,-4.549314,0.526181,1.124087\H,0,-1.991383,3.157395,-1.119981\H,
 0,-4.075598,2.784602,0.188012\C,0,1.541033,-0.096586,0.370271\C,0,2.69
 5951,-0.193189,-0.425336\C,0,1.239355,1.139786,0.965667\C,0,3.525822,0
 .910637,-0.614235\H,0,2.939732,-1.143261,-0.883961\C,0,2.068378,2.2438
 13,0.774196\H,0,0.349069,1.250091,1.57242\C,0,3.214494,2.134641,-0.017
 013\H,0,4.41626,0.814474,-1.228235\H,0,1.817183,3.190187,1.243287\H,0,
 3.859091,2.995614,-0.166279\O,0,1.41135,-2.46235,0.324566\H,0,0.761691
 ,-3.174622,0.199344\\Version=ES64L-G16RevB.01\State=2-A\HF=-770.392895
 5\S2=0.75613\S2-1=0.\S2A=0.750025\RMSD=2.759e-09\PG=C01 [X(C16H17O2)]\
 \@


 HERE WE GO......
 SLIDING DOWN THE RAZOR BLADE OF LIFE......
                                 TOM LEHRER
 Job cpu time:       0 days 15 hours 42 minutes 47.9 seconds.
 Elapsed time:       0 days  0 hours 29 minutes 30.4 seconds.
 File lengths (MBytes):  RWF=   2178 Int=      0 D2E=      0 Chk=    178 Scr=      1
 Normal termination of Gaussian 16 at Sat May 25 04:45:46 2019.
