 Entering Gaussian System, Link 0=g16
 Initial command:
 /opt/software/gaussian/g16.b01/l1.exe "/localscratch/rzk.15153354.0/Gau-28449.inp" -scrdir="/localscratch/rzk.15153354.0/"
 Entering Link 1 = /opt/software/gaussian/g16.b01/l1.exe PID=     28454.
  
 Copyright (c) 1988-2017, Gaussian, Inc.  All Rights Reserved.
  
 This is part of the Gaussian(R) 16 program.  It is based on
 the Gaussian(R) 09 system (copyright 2009, Gaussian, Inc.),
 the Gaussian(R) 03 system (copyright 2003, Gaussian, Inc.),
 the Gaussian(R) 98 system (copyright 1998, Gaussian, Inc.),
 the Gaussian(R) 94 system (copyright 1995, Gaussian, Inc.),
 the Gaussian 92(TM) system (copyright 1992, Gaussian, Inc.),
 the Gaussian 90(TM) system (copyright 1990, Gaussian, Inc.),
 the Gaussian 88(TM) system (copyright 1988, Gaussian, Inc.),
 the Gaussian 86(TM) system (copyright 1986, Carnegie Mellon
 University), and the Gaussian 82(TM) system (copyright 1983,
 Carnegie Mellon University). Gaussian is a federally registered
 trademark of Gaussian, Inc.
  
 This software contains proprietary and confidential information,
 including trade secrets, belonging to Gaussian, Inc.
  
 This software is provided under written license and may be
 used, copied, transmitted, or stored only in accord with that
 written license.
  
 The following legend is applicable only to US Government
 contracts under FAR:
  
                    RESTRICTED RIGHTS LEGEND
  
 Use, reproduction and disclosure by the US Government is
 subject to restrictions as set forth in subparagraphs (a)
 and (c) of the Commercial Computer Software - Restricted
 Rights clause in FAR 52.227-19.
  
 Gaussian, Inc.
 340 Quinnipiac St., Bldg. 40, Wallingford CT 06492
  
  
 ---------------------------------------------------------------
 Warning -- This program may not be used in any manner that
 competes with the business of Gaussian, Inc. or will provide
 assistance to any competitor of Gaussian, Inc.  The licensee
 of this program is prohibited from giving any competitor of
 Gaussian, Inc. access to this program.  By using this program,
 the user acknowledges that Gaussian, Inc. is engaged in the
 business of creating and licensing software in the field of
 computational chemistry and represents and warrants to the
 licensee that it is not a competitor of Gaussian, Inc. and that
 it will not use this program in any manner prohibited above.
 ---------------------------------------------------------------
  

 Cite this work as:
 Gaussian 16, Revision B.01,
 M. J. Frisch, G. W. Trucks, H. B. Schlegel, G. E. Scuseria, 
 M. A. Robb, J. R. Cheeseman, G. Scalmani, V. Barone, 
 G. A. Petersson, H. Nakatsuji, X. Li, M. Caricato, A. V. Marenich, 
 J. Bloino, B. G. Janesko, R. Gomperts, B. Mennucci, H. P. Hratchian, 
 J. V. Ortiz, A. F. Izmaylov, J. L. Sonnenberg, D. Williams-Young, 
 F. Ding, F. Lipparini, F. Egidi, J. Goings, B. Peng, A. Petrone, 
 T. Henderson, D. Ranasinghe, V. G. Zakrzewski, J. Gao, N. Rega, 
 G. Zheng, W. Liang, M. Hada, M. Ehara, K. Toyota, R. Fukuda, 
 J. Hasegawa, M. Ishida, T. Nakajima, Y. Honda, O. Kitao, H. Nakai, 
 T. Vreven, K. Throssell, J. A. Montgomery, Jr., J. E. Peralta, 
 F. Ogliaro, M. J. Bearpark, J. J. Heyd, E. N. Brothers, K. N. Kudin, 
 V. N. Staroverov, T. A. Keith, R. Kobayashi, J. Normand, 
 K. Raghavachari, A. P. Rendell, J. C. Burant, S. S. Iyengar, 
 J. Tomasi, M. Cossi, J. M. Millam, M. Klene, C. Adamo, R. Cammi, 
 J. W. Ochterski, R. L. Martin, K. Morokuma, O. Farkas, 
 J. B. Foresman, and D. J. Fox, Gaussian, Inc., Wallingford CT, 2016.
 
 ******************************************
 Gaussian 16:  ES64L-G16RevB.01 20-Dec-2017
                24-May-2019 
 ******************************************
 %NProcShared=32
 Will use up to   32 processors via shared memory.
 %chk=AH-A_11.chk
 ----------------------------------------------------------------------
 #p td=(50-50,nstates=18) ub3lyp/6-31g(d,p) scrf=(iefpcm,solvent=aceton
 itrile) guess=(mix,always) empiricaldispersion=gd3
 ----------------------------------------------------------------------
 1/38=1,172=1/1;
 2/12=2,17=6,18=5,40=1/2;
 3/5=1,6=6,7=101,11=2,25=1,30=1,70=2201,72=2,74=-5,116=2,124=31/1,2,3,8;
 4/13=-1/1;
 5/5=2,38=5,53=2/2;
 8/6=1,10=2,108=18/1;
 9/41=18,42=1,48=2,70=2/14;
 6/7=2,8=2,9=2,10=2/1;
 99/5=1,9=1/99;
 Leave Link    1 at Fri May 24 19:18:42 2019, MaxMem=           0 cpu:               4.1 elap:               0.1
 (Enter /opt/software/gaussian/g16.b01/l101.exe)
 -------------------
 Title Card Required
 -------------------
 Symbolic Z-matrix:
 Charge =  0 Multiplicity = 2
 C                    -0.80757  -1.36957  -0.79625 
 C                     0.70151  -1.24455   0.7997 
 O                    -1.22565  -2.50256  -0.42967 
 C                     0.12801  -1.32353  -1.99976 
 H                    -0.49815  -1.42431  -2.89386 
 H                     0.70616  -0.40538  -2.08991 
 H                     0.80978  -2.17287  -1.95639 
 C                    -0.2038   -1.20047   2.00657 
 H                    -0.73039  -0.2536    2.11115 
 H                    -0.94417  -1.99941   1.94029 
 H                     0.40864  -1.36211   2.90202 
 C                    -1.63483  -0.15193  -0.50164 
 C                    -2.83036  -0.3121    0.22028 
 C                    -1.27254   1.13725  -0.92596 
 C                    -3.63585   0.78324   0.51843 
 H                    -3.10925  -1.31127   0.53545 
 C                    -2.0791    2.23545  -0.62649 
 H                    -0.35328   1.29445  -1.47669 
 C                    -3.26092   2.06367   0.09766 
 H                    -4.55732   0.64166   1.07555 
 H                    -1.7816    3.22609  -0.95704 
 H                    -3.88709   2.91987   0.33033 
 C                     1.60326  -0.14189   0.50127 
 C                     2.76456  -0.3574   -0.27828 
 C                     1.33481   1.17294   0.94628 
 C                     3.61523   0.69518  -0.5949 
 H                     2.98276  -1.35995  -0.62533 
 C                     2.18876   2.22211   0.62186 
 H                     0.44991   1.37698   1.53617 
 C                     3.33229   1.99176  -0.14971 
 H                     4.5031    0.50722  -1.1912 
 H                     1.96125   3.22455   0.97145 
 H                     3.99611   2.81318  -0.40118 
 O                     1.21799  -2.47985   0.52994 
 H                     0.44407  -3.05689   0.35274 
 
 ITRead=  0  0  0  0  0  0  0  0  0  0  0  0  0  0  0  0  0  0  0  0
 ITRead=  0  0  0  0  0  0  0  0  0  0  0  0  0  0  0
 MicOpt= -1 -1 -1 -1 -1 -1 -1 -1 -1 -1 -1 -1 -1 -1 -1 -1 -1 -1 -1 -1
 MicOpt= -1 -1 -1 -1 -1 -1 -1 -1 -1 -1 -1 -1 -1 -1 -1
 NAtoms=     35 NQM=       35 NQMF=       0 NMMI=      0 NMMIF=      0
                NMic=       0 NMicF=      0.
                    Isotopes and Nuclear Properties:
 (Nuclear quadrupole moments (NQMom) in fm**2, nuclear magnetic moments (NMagM)
  in nuclear magnetons)

  Atom         1           2           3           4           5           6           7           8           9          10
 IAtWgt=          12          12          16          12           1           1           1          12           1           1
 AtmWgt=  12.0000000  12.0000000  15.9949146  12.0000000   1.0078250   1.0078250   1.0078250  12.0000000   1.0078250   1.0078250
 NucSpn=           0           0           0           0           1           1           1           0           1           1
 AtZEff=  -0.0000000  -0.0000000  -0.0000000  -0.0000000  -0.0000000  -0.0000000  -0.0000000  -0.0000000  -0.0000000  -0.0000000
 NQMom=    0.0000000   0.0000000   0.0000000   0.0000000   0.0000000   0.0000000   0.0000000   0.0000000   0.0000000   0.0000000
 NMagM=    0.0000000   0.0000000   0.0000000   0.0000000   2.7928460   2.7928460   2.7928460   0.0000000   2.7928460   2.7928460
 AtZNuc=   6.0000000   6.0000000   8.0000000   6.0000000   1.0000000   1.0000000   1.0000000   6.0000000   1.0000000   1.0000000

  Atom        11          12          13          14          15          16          17          18          19          20
 IAtWgt=           1          12          12          12          12           1          12           1          12           1
 AtmWgt=   1.0078250  12.0000000  12.0000000  12.0000000  12.0000000   1.0078250  12.0000000   1.0078250  12.0000000   1.0078250
 NucSpn=           1           0           0           0           0           1           0           1           0           1
 AtZEff=  -0.0000000  -0.0000000  -0.0000000  -0.0000000  -0.0000000  -0.0000000  -0.0000000  -0.0000000  -0.0000000  -0.0000000
 NQMom=    0.0000000   0.0000000   0.0000000   0.0000000   0.0000000   0.0000000   0.0000000   0.0000000   0.0000000   0.0000000
 NMagM=    2.7928460   0.0000000   0.0000000   0.0000000   0.0000000   2.7928460   0.0000000   2.7928460   0.0000000   2.7928460
 AtZNuc=   1.0000000   6.0000000   6.0000000   6.0000000   6.0000000   1.0000000   6.0000000   1.0000000   6.0000000   1.0000000

  Atom        21          22          23          24          25          26          27          28          29          30
 IAtWgt=           1           1          12          12          12          12           1          12           1          12
 AtmWgt=   1.0078250   1.0078250  12.0000000  12.0000000  12.0000000  12.0000000   1.0078250  12.0000000   1.0078250  12.0000000
 NucSpn=           1           1           0           0           0           0           1           0           1           0
 AtZEff=  -0.0000000  -0.0000000  -0.0000000  -0.0000000  -0.0000000  -0.0000000  -0.0000000  -0.0000000  -0.0000000  -0.0000000
 NQMom=    0.0000000   0.0000000   0.0000000   0.0000000   0.0000000   0.0000000   0.0000000   0.0000000   0.0000000   0.0000000
 NMagM=    2.7928460   2.7928460   0.0000000   0.0000000   0.0000000   0.0000000   2.7928460   0.0000000   2.7928460   0.0000000
 AtZNuc=   1.0000000   1.0000000   6.0000000   6.0000000   6.0000000   6.0000000   1.0000000   6.0000000   1.0000000   6.0000000

  Atom        31          32          33          34          35
 IAtWgt=           1           1           1          16           1
 AtmWgt=   1.0078250   1.0078250   1.0078250  15.9949146   1.0078250
 NucSpn=           1           1           1           0           1
 AtZEff=  -0.0000000  -0.0000000  -0.0000000  -0.0000000  -0.0000000
 NQMom=    0.0000000   0.0000000   0.0000000   0.0000000   0.0000000
 NMagM=    2.7928460   2.7928460   2.7928460   0.0000000   2.7928460
 AtZNuc=   1.0000000   1.0000000   1.0000000   8.0000000   1.0000000
 Leave Link  101 at Fri May 24 19:18:43 2019, MaxMem=   104857600 cpu:               4.3 elap:               0.2
 (Enter /opt/software/gaussian/g16.b01/l202.exe)
                          Input orientation:                          
 ---------------------------------------------------------------------
 Center     Atomic      Atomic             Coordinates (Angstroms)
 Number     Number       Type             X           Y           Z
 ---------------------------------------------------------------------
      1          6           0       -0.807570   -1.369565   -0.796248
      2          6           0        0.701514   -1.244545    0.799696
      3          8           0       -1.225654   -2.502560   -0.429672
      4          6           0        0.128009   -1.323527   -1.999759
      5          1           0       -0.498150   -1.424310   -2.893863
      6          1           0        0.706160   -0.405383   -2.089912
      7          1           0        0.809781   -2.172875   -1.956385
      8          6           0       -0.203796   -1.200468    2.006566
      9          1           0       -0.730387   -0.253597    2.111145
     10          1           0       -0.944166   -1.999409    1.940289
     11          1           0        0.408639   -1.362111    2.902017
     12          6           0       -1.634828   -0.151931   -0.501636
     13          6           0       -2.830361   -0.312100    0.220282
     14          6           0       -1.272542    1.137251   -0.925956
     15          6           0       -3.635849    0.783237    0.518426
     16          1           0       -3.109251   -1.311272    0.535449
     17          6           0       -2.079096    2.235452   -0.626490
     18          1           0       -0.353277    1.294448   -1.476692
     19          6           0       -3.260922    2.063675    0.097655
     20          1           0       -4.557323    0.641659    1.075554
     21          1           0       -1.781603    3.226092   -0.957042
     22          1           0       -3.887087    2.919873    0.330331
     23          6           0        1.603256   -0.141886    0.501271
     24          6           0        2.764558   -0.357403   -0.278277
     25          6           0        1.334810    1.172940    0.946282
     26          6           0        3.615230    0.695177   -0.594903
     27          1           0        2.982758   -1.359948   -0.625332
     28          6           0        2.188764    2.222111    0.621861
     29          1           0        0.449907    1.376983    1.536173
     30          6           0        3.332290    1.991757   -0.149714
     31          1           0        4.503095    0.507222   -1.191200
     32          1           0        1.961253    3.224551    0.971447
     33          1           0        3.996110    2.813182   -0.401179
     34          8           0        1.217989   -2.479850    0.529938
     35          1           0        0.444073   -3.056890    0.352739
 ---------------------------------------------------------------------
                    Distance matrix (angstroms):
                    1          2          3          4          5
     1  C    0.000000
     2  C    2.200000   0.000000
     3  O    1.262082   2.609200   0.000000
     4  C    1.525079   2.858688   2.384889   0.000000
     5  H    2.121020   3.887658   2.786417   1.096200   0.000000
     6  H    2.212372   3.008995   3.299463   1.088749   1.770568
     7  H    2.146404   2.910241   2.565646   1.089994   1.774795
     8  C    2.872090   1.509326   2.945317   4.021925   4.914362
     9  H    3.115169   2.179958   3.429122   4.333720   5.145348
    10  H    2.811405   2.139868   2.439080   4.138883   4.888629
    11  H    3.893120   2.125877   3.882227   4.909954   5.866716
    12  C    1.501261   2.888904   2.387061   2.593184   2.938322
    13  C    2.498649   3.698556   2.792067   3.834517   4.046495
    14  C    2.552871   3.542277   3.673788   3.028205   3.321737
    15  C    3.789734   4.796220   4.183825   4.994631   5.134407
    16  H    2.659803   3.820499   2.428696   4.111847   4.311706
    17  C    3.826453   4.677198   4.818284   4.407211   4.586309
    18  H    2.786817   3.569455   4.034174   2.712753   3.069366
    19  C    4.313367   5.209422   5.027016   5.230405   5.361728
    20  H    4.648582   5.593678   4.822016   5.939010   6.041638
    21  H    4.700496   5.407272   5.779676   5.043105   5.198535
    22  H    5.399248   6.214333   6.087989   6.289416   6.383749
    23  C    3.000472   1.455353   3.800285   3.134929   4.193740
    24  C    3.748715   2.491023   4.532815   3.293674   4.315651
    25  C    3.753736   2.503355   4.685992   4.045723   4.985194
    26  C    4.885167   3.767913   5.804049   4.267259   5.166947
    27  H    3.794192   2.692229   4.365155   3.168591   4.155370
    28  C    4.887657   3.776406   5.923385   4.867356   5.733778
    29  H    3.816407   2.734614   4.660784   4.460851   5.326469
    30  C    5.371679   4.277384   6.407192   4.968017   5.819977
    31  H    5.646369   4.635124   6.515925   4.811111   5.625151
    32  H    5.647745   4.646424   6.702187   5.733573   6.526959
    33  H    6.381755   5.362985   7.451493   5.884728   6.660945
    34  O    2.663530   1.365831   2.625406   2.987391   3.972620
    35  H    2.394545   1.884314   1.925471   2.939165   3.754135
                    6          7          8          9         10
     6  H    0.000000
     7  H    1.775555   0.000000
     8  C    4.270985   4.204509   0.000000
     9  H    4.442475   4.754003   1.088485   0.000000
    10  H    4.637566   4.276738   1.091259   1.767131   0.000000
    11  H    5.091483   4.941895   1.096831   1.775292   1.777963
    12  C    2.840261   3.489502   3.072191   2.766762   3.138979
    13  C    4.225243   4.631522   3.298310   2.826425   3.059929
    14  C    2.765823   4.044105   3.899594   3.384135   4.261670
    15  C    5.202815   5.884464   4.234222   3.471813   4.124315
    16  H    4.719165   4.723389   3.258547   3.043105   2.671086
    17  C    4.107708   5.435768   4.717550   3.938150   5.080400
    18  H    2.094725   3.688514   4.287195   3.925714   4.782719
    19  C    5.159403   6.223991   4.862570   3.978379   5.027058
    20  H    6.230628   6.776434   4.818030   4.064403   4.558279
    21  H    4.545324   6.071474   5.555797   4.756791   6.033381
    22  H    6.165454   7.295596   5.775258   4.817361   5.954165
    23  C    2.754713   3.285512   2.579137   2.837263   3.465620
    24  C    2.742504   3.151688   3.839582   4.234944   4.623078
    25  C    3.479192   4.460449   3.020691   2.767120   4.030581
    26  C    3.450938   4.236732   4.994604   5.206463   5.871634
    27  H    2.870381   2.674768   4.135994   4.743392   4.734137
    28  C    4.056544   5.278717   4.399523   4.107133   5.419846
    29  H    4.048578   4.992891   2.700343   2.093437   3.675156
    30  C    4.050581   5.193387   5.229125   5.163181   6.211730
    31  H    4.007149   4.626986   5.941106   6.234875   6.764767
    32  H    4.911578   6.247423   5.033856   4.543275   6.055565
    33  H    4.902525   6.118180   6.288548   6.169010   7.283532
    34  O    3.380680   2.538241   2.416345   3.354488   2.625800
    35  H    3.614654   2.499456   2.569276   3.511381   2.359192
                   11         12         13         14         15
    11  H    0.000000
    12  C    4.150319   0.000000
    13  C    4.334207   1.405745   0.000000
    14  C    4.870991   1.404738   2.416874   0.000000
    15  C    5.161580   2.432930   1.391928   2.792272   0.000000
    16  H    4.240139   2.143255   1.084184   3.391824   2.159760
    17  C    5.619755   2.431576   2.787731   1.395082   2.417280
    18  H    5.177926   2.164514   3.405387   1.083083   3.875192
    19  C    5.750316   2.812871   2.417587   2.420681   1.398978
    20  H    5.657901   3.414424   2.150243   3.878330   1.086071
    21  H    6.382876   3.411741   3.873601   2.150201   3.403348
    22  H    6.588036   3.898823   3.402121   3.404680   2.159563
    23  C    2.946123   3.389854   4.445772   3.455920   5.320185
    24  C    4.083389   4.409842   5.617271   4.353350   6.549886
    25  C    3.333043   3.559565   4.481191   3.210114   5.004236
    26  C    5.171374   5.318778   6.574555   4.918876   7.336580
    27  H    4.366725   4.774590   5.967026   4.943071   7.050346
    28  C    4.605931   4.638769   5.636941   3.943767   6.000598
    29  H    3.061024   3.291863   3.917235   3.014362   4.252264
    30  C    5.395297   5.421394   6.589607   4.747337   7.103653
    31  H    6.083864   6.211608   7.512865   5.815950   8.321143
    32  H    5.212982   5.148048   6.002642   4.291199   6.123136
    33  H    6.419823   6.364703   7.533545   5.553632   7.950670
    34  O    2.744293   3.823861   4.602626   4.626639   5.848727
    35  H    3.061429   3.672952   4.274732   4.708784   5.605336
                   16         17         18         19         20
    16  H    0.000000
    17  C    3.871766   0.000000
    18  H    4.293470   2.141678   0.000000
    19  C    3.406602   1.396641   3.394802   0.000000
    20  H    2.490495   3.402755   4.961260   2.158488   0.000000
    21  H    4.957605   1.085880   2.457926   2.156846   4.302948
    22  H    4.306935   2.157028   4.288957   1.085954   2.488942
    23  C    4.855549   4.525848   3.131040   5.356084   6.236704
    24  C    6.006134   5.505010   3.726353   6.504564   7.512718
    25  C    5.107815   3.906059   2.955538   4.757555   5.917449
    26  C    7.107895   5.899050   4.109224   7.045132   8.341697
    27  H    6.201803   6.208806   4.347386   7.157335   7.984502
    28  C    6.368770   4.446705   3.424391   5.477132   6.943584
    29  H    4.571189   3.436559   3.119178   4.038704   5.081852
    30  C    7.271375   5.437812   3.978758   6.598243   8.097533
    31  H    8.014739   6.828683   4.928040   8.022696   9.340633
    32  H    6.817169   4.456023   3.882748   5.420540   7.012418
    33  H    8.268890   6.106772   4.730798   7.312668   8.947484
    34  O    4.482255   5.868745   4.554203   6.394617   6.587545
    35  H    3.963165   5.944254   4.787142   6.325523   6.262243
                   21         22         23         24         25
    21  H    0.000000
    22  H    2.486798   0.000000
    23  C    4.992717   6.288677   0.000000
    24  C    5.828356   7.440116   1.415191   0.000000
    25  C    4.189285   5.540702   1.413812   2.426041   0.000000
    26  C    5.971807   7.879727   2.439326   1.389899   2.793533
    27  H    6.621248   8.150149   2.157762   1.083123   3.406057
    28  C    4.389160   6.122730   2.438410   2.792074   1.391131
    29  H    3.822952   4.758580   2.169838   3.414372   1.082893
    30  C    5.322336   7.294604   2.822370   2.420207   2.421073
    31  H    6.851607   8.861777   3.419776   2.145581   3.879438
    32  H    4.210468   5.891260   3.417912   3.877822   2.145267
    33  H    5.819059   7.917783   3.908017   3.403591   3.404198
    34  O    6.615621   7.433616   2.369668   2.747702   3.678296
    35  H    6.793013   7.381134   3.140544   3.615254   4.363160
                   26         27         28         29         30
    26  C    0.000000
    27  H    2.150462   0.000000
    28  C    2.418026   3.875186   0.000000
    29  H    3.876289   4.310247   2.138652   0.000000
    30  C    1.399774   3.403280   1.398586   3.395334   0.000000
    31  H    1.085910   2.473450   3.403551   4.962195   2.158546
    32  H    3.403943   4.960928   1.085752   2.452874   2.157898
    33  H    2.160681   4.300249   2.159277   4.288538   1.085648
    34  O    4.134347   2.388145   4.802009   4.059263   4.992741
    35  H    5.003226   3.206424   5.566348   4.589094   5.838073
                   31         32         33         34         35
    31  H    0.000000
    32  H    4.303705   0.000000
    33  H    2.489702   2.488769   0.000000
    34  O    4.762020   5.769537   6.049886   0.000000
    35  H    5.618034   6.491620   6.902398   0.981489   0.000000
 Stoichiometry    C16H17O2(2)
 Framework group  C1[X(C16H17O2)]
 Deg. of freedom    99
 Full point group                 C1      NOp   1
 Largest Abelian subgroup         C1      NOp   1
 Largest concise Abelian subgroup C1      NOp   1
                         Standard orientation:                         
 ---------------------------------------------------------------------
 Center     Atomic      Atomic             Coordinates (Angstroms)
 Number     Number       Type             X           Y           Z
 ---------------------------------------------------------------------
      1          6           0       -0.807570   -1.369565   -0.796248
      2          6           0        0.701514   -1.244545    0.799696
      3          8           0       -1.225654   -2.502560   -0.429672
      4          6           0        0.128009   -1.323527   -1.999759
      5          1           0       -0.498150   -1.424310   -2.893863
      6          1           0        0.706160   -0.405383   -2.089912
      7          1           0        0.809781   -2.172875   -1.956385
      8          6           0       -0.203796   -1.200468    2.006566
      9          1           0       -0.730387   -0.253597    2.111145
     10          1           0       -0.944166   -1.999409    1.940289
     11          1           0        0.408639   -1.362111    2.902017
     12          6           0       -1.634828   -0.151931   -0.501636
     13          6           0       -2.830361   -0.312099    0.220282
     14          6           0       -1.272542    1.137251   -0.925956
     15          6           0       -3.635849    0.783238    0.518426
     16          1           0       -3.109251   -1.311271    0.535449
     17          6           0       -2.079096    2.235452   -0.626490
     18          1           0       -0.353277    1.294448   -1.476692
     19          6           0       -3.260922    2.063676    0.097655
     20          1           0       -4.557323    0.641660    1.075554
     21          1           0       -1.781603    3.226092   -0.957042
     22          1           0       -3.887087    2.919874    0.330331
     23          6           0        1.603256   -0.141886    0.501271
     24          6           0        2.764558   -0.357403   -0.278277
     25          6           0        1.334810    1.172940    0.946282
     26          6           0        3.615230    0.695177   -0.594903
     27          1           0        2.982758   -1.359948   -0.625332
     28          6           0        2.188764    2.222111    0.621861
     29          1           0        0.449907    1.376983    1.536173
     30          6           0        3.332290    1.991757   -0.149714
     31          1           0        4.503095    0.507221   -1.191200
     32          1           0        1.961253    3.224551    0.971447
     33          1           0        3.996110    2.813182   -0.401179
     34          8           0        1.217989   -2.479850    0.529938
     35          1           0        0.444072   -3.056890    0.352739
 ---------------------------------------------------------------------
 Rotational constants (GHZ):           0.6161831           0.3743873           0.2881735
 Leave Link  202 at Fri May 24 19:18:43 2019, MaxMem=   104857600 cpu:               1.5 elap:               0.1
 (Enter /opt/software/gaussian/g16.b01/l301.exe)
 Standard basis: 6-31G(d,p) (6D, 7F)
 Ernie: Thresh=  0.10000D-02 Tol=  0.10000D-05 Strict=F.
 There are   355 symmetry adapted cartesian basis functions of A   symmetry.
 There are   355 symmetry adapted basis functions of A   symmetry.
   355 basis functions,   623 primitive gaussians,   355 cartesian basis functions
    65 alpha electrons       64 beta electrons
       nuclear repulsion energy      1320.4257935362 Hartrees.
 IExCor=  402 DFT=T Ex+Corr=B3LYP ExCW=0 ScaHFX=  0.200000
 ScaDFX=  0.800000  0.720000  1.000000  0.810000 ScalE2=  1.000000  1.000000
 IRadAn=      5 IRanWt=     -1 IRanGd=            0 ICorTp=0 IEmpDi=131
 NAtoms=   35 NActive=   35 NUniq=   35 SFac= 1.00D+00 NAtFMM=   60 NAOKFM=F Big=F
 Integral buffers will be    131072 words long.
 Raffenetti 2 integral format.
 Two-electron integral symmetry is turned on.
 R6Disp:  Grimme-D3 Dispersion energy=       -0.0425032621 Hartrees.
 Nuclear repulsion after empirical dispersion term =     1320.3832902741 Hartrees.
 ------------------------------------------------------------------------------
 Polarizable Continuum Model (PCM)
 =================================
 Model                : PCM.
 Atomic radii         : UFF (Universal Force Field).
 Polarization charges : Total charges.
 Charge compensation  : None.
 Solution method      : On-the-fly selection.
 Cavity type          : Scaled VdW (van der Waals Surface) (Alpha=1.100).
 Cavity algorithm     : GePol (No added spheres)
                        Default sphere list used, NSphG=   35.
                        Lebedev-Laikov grids with approx.  5.0 points / Ang**2.
                        Smoothing algorithm: York/Karplus (Gamma=1.0000).
                        Polarization charges: spherical gaussians, with
                                              point-specific exponents (IZeta= 3).
                        Self-potential: point-specific (ISelfS= 7).
                        Self-field    : sphere-specific E.n sum rule (ISelfD= 2).
 Solvent              : Acetonitrile, Eps=  35.688000 Eps(inf)=   1.806874
 ------------------------------------------------------------------------------
 GePol: Number of generator spheres                  =      35
 GePol: Total number of spheres                      =      35
 GePol: Number of exposed spheres                    =      35 (100.00%)
 GePol: Number of points                             =    2379
 GePol: Average weight of points                     =       0.13
 GePol: Minimum weight of points                     =   0.13D-10
 GePol: Maximum weight of points                     =    0.20577
 GePol: Number of points with low weight             =     173
 GePol: Fraction of low-weight points (<1% of avg)   =       7.27%
 GePol: Cavity surface area                          =    308.065 Ang**2
 GePol: Cavity volume                                =    351.885 Ang**3
 Leave Link  301 at Fri May 24 19:18:43 2019, MaxMem=   104857600 cpu:               4.9 elap:               0.2
 (Enter /opt/software/gaussian/g16.b01/l302.exe)
 NPDir=0 NMtPBC=     1 NCelOv=     1 NCel=       1 NClECP=     1 NCelD=      1
         NCelK=      1 NCelE2=     1 NClLst=     1 CellRange=     0.0.
 One-electron integrals computed using PRISM.
 One-electron integral symmetry used in STVInt
 PrsmSu:  requested number of processors reduced to:  28 ShMem   1 Linda.
 NBasis=   355 RedAO= T EigKep=  4.50D-04  NBF=   355
 NBsUse=   355 1.00D-06 EigRej= -1.00D+00 NBFU=   355
 Precomputing XC quadrature grid using
 IXCGrd= 4 IRadAn=           5 IRanWt=          -1 IRanGd=           0 AccXCQ= 0.00D+00.
 Generated NRdTot=       0 NPtTot=           0 NUsed=           0 NTot=          32
 NSgBfM=   354   354   354   354   354 MxSgAt=    35 MxSgA2=    35.
 Leave Link  302 at Fri May 24 19:18:44 2019, MaxMem=   104857600 cpu:              16.3 elap:               0.6
 (Enter /opt/software/gaussian/g16.b01/l303.exe)
 DipDrv:  MaxL=1.
 Leave Link  303 at Fri May 24 19:18:44 2019, MaxMem=   104857600 cpu:               2.6 elap:               0.1
 (Enter /opt/software/gaussian/g16.b01/l308.exe)
 Leave Link  308 at Fri May 24 19:18:45 2019, MaxMem=   104857600 cpu:               2.9 elap:               0.1
 (Enter /opt/software/gaussian/g16.b01/l401.exe)
 ExpMin= 1.61D-01 ExpMax= 5.48D+03 ExpMxC= 8.25D+02 IAcc=3 IRadAn=         5 AccDes= 0.00D+00
 Harris functional with IExCor=  402 and IRadAn=       5 diagonalized for initial guess.
 HarFok:  IExCor=  402 AccDes= 0.00D+00 IRadAn=         5 IDoV= 1 UseB2=F ITyADJ=14
 ICtDFT=  3500011 ScaDFX=  1.000000  1.000000  1.000000  1.000000
 FoFCou: FMM=F IPFlag=           0 FMFlag=      100000 FMFlg1=           0
         NFxFlg=           0 DoJE=T BraDBF=F KetDBF=T FulRan=T
         wScrn=  0.000000 ICntrl=       500 IOpCl=  0 I1Cent=   200000004 NGrid=           0
         NMat0=    1 NMatS0=      1 NMatT0=    0 NMatD0=    1 NMtDS0=    0 NMtDT0=    0
 Petite list used in FoFCou.
 Harris En= -770.457022136685    
 JPrj=0 DoOrth=F DoCkMO=T.
 Mixing orbitals, IMix= 1 IMixAn=  0 NRI=1 NE=   65 Coef=  7.07106781D-01  7.07106781D-01
 Mixing orbitals, IMix= 1 IMixAn=  0 NRI=1 NE=   64 Coef= -7.07106781D-01  7.07106781D-01
 Initial guess <Sx>= 0.0000 <Sy>= 0.0000 <Sz>= 0.5000 <S**2>= 1.0000 S= 0.6180
 Leave Link  401 at Fri May 24 19:18:46 2019, MaxMem=   104857600 cpu:              28.9 elap:               1.0
 (Enter /opt/software/gaussian/g16.b01/l502.exe)
 Integral symmetry usage will be decided dynamically.
 UHF open shell SCF:
 Using DIIS extrapolation, IDIIS=  1040.
 NGot=   104857600 LenX=   104590331 LenY=   104463865
 Requested convergence on RMS density matrix=1.00D-08 within 128 cycles.
 Requested convergence on MAX density matrix=1.00D-06.
 Requested convergence on             energy=1.00D-06.
 No special actions if energy rises.
 Fock matrices will be formed incrementally for  20 cycles.

 Cycle   1  Pass 1  IDiag  1:
 FoFJK:  IHMeth= 1 ICntrl=       0 DoSepK=F KAlg= 0 I1Cent=           0 FoldK=F
 IRaf= 840000000 NMat=       1 IRICut=       1 DoRegI=T DoRafI=F ISym2E= 0 IDoP0=0 IntGTp=1.
 FoFCou: FMM=F IPFlag=           0 FMFlag=      100000 FMFlg1=           0
         NFxFlg=           0 DoJE=F BraDBF=F KetDBF=F FulRan=T
         wScrn=  0.000000 ICntrl=         0 IOpCl=  1 I1Cent=           0 NGrid=           0
         NMat0=    1 NMatS0=      1 NMatT0=    0 NMatD0=    1 NMtDS0=    0 NMtDT0=    0
 Symmetry not used in FoFCou.
 Inv3:  Mode=1 IEnd=    16978923.
 Iteration    1 A*A^-1 deviation from unit magnitude is 2.89D-15 for    988.
 Iteration    1 A*A^-1 deviation from orthogonality  is 1.96D-15 for   1196   1028.
 Iteration    1 A^-1*A deviation from unit magnitude is 3.00D-15 for   1530.
 Iteration    1 A^-1*A deviation from orthogonality  is 1.46D-14 for   1937   1908.
 E= -769.856400471383    
 DIIS: error= 2.14D-02 at cycle   1 NSaved=   1.
 NSaved= 1 IEnMin= 1 EnMin= -769.856400471383     IErMin= 1 ErrMin= 2.14D-02
 ErrMax= 2.14D-02  0.00D+00 EMaxC= 1.00D-01 BMatC= 1.82D+00 BMatP= 1.82D+00
 IDIUse=3 WtCom= 7.86D-01 WtEn= 2.14D-01
 Coeff-Com:  0.100D+01
 Coeff-En:   0.100D+01
 Coeff:      0.100D+01
 Gap=     0.010 Goal=   None    Shift=    0.000
 Gap=     0.003 Goal=   None    Shift=    0.000
 GapD=    0.003 DampG=0.250 DampE=0.500 DampFc=0.2500 IDamp=-1.
 Damping current iteration by 2.50D-01
 RMSDP=4.54D-03 MaxDP=1.83D-01              OVMax= 5.81D-01

 Cycle   2  Pass 1  IDiag  1:
 RMSU=  1.11D-03    CP:  9.86D-01
 E= -770.037644488787     Delta-E=       -0.181244017405 Rises=F Damp=T
 DIIS: error= 1.29D-02 at cycle   2 NSaved=   2.
 NSaved= 2 IEnMin= 2 EnMin= -770.037644488787     IErMin= 2 ErrMin= 1.29D-02
 ErrMax= 1.29D-02  0.00D+00 EMaxC= 1.00D-01 BMatC= 4.80D-01 BMatP= 1.82D+00
 IDIUse=3 WtCom= 8.71D-01 WtEn= 1.29D-01
 Coeff-Com: -0.819D+00 0.182D+01
 Coeff-En:   0.000D+00 0.100D+01
 Coeff:     -0.714D+00 0.171D+01
 Gap=     0.130 Goal=   None    Shift=    0.000
 Gap=     0.105 Goal=   None    Shift=    0.000
 RMSDP=2.11D-03 MaxDP=4.95D-02 DE=-1.81D-01 OVMax= 1.96D-01

 Cycle   3  Pass 1  IDiag  1:
 RMSU=  1.53D-03    CP:  9.57D-01  2.23D+00
 E= -770.366478552663     Delta-E=       -0.328834063876 Rises=F Damp=F
 DIIS: error= 8.19D-03 at cycle   3 NSaved=   3.
 NSaved= 3 IEnMin= 3 EnMin= -770.366478552663     IErMin= 3 ErrMin= 8.19D-03
 ErrMax= 8.19D-03  0.00D+00 EMaxC= 1.00D-01 BMatC= 1.74D-01 BMatP= 4.80D-01
 IDIUse=3 WtCom= 9.18D-01 WtEn= 8.19D-02
 Coeff-Com: -0.482D+00 0.101D+01 0.471D+00
 Coeff-En:   0.000D+00 0.000D+00 0.100D+01
 Coeff:     -0.442D+00 0.928D+00 0.515D+00
 Gap=     0.135 Goal=   None    Shift=    0.000
 Gap=     0.116 Goal=   None    Shift=    0.000
 RMSDP=9.42D-04 MaxDP=5.11D-02 DE=-3.29D-01 OVMax= 9.69D-02

 Cycle   4  Pass 1  IDiag  1:
 RMSU=  8.10D-04    CP:  9.60D-01  2.32D+00  6.97D-01
 E= -770.399481529495     Delta-E=       -0.033002976832 Rises=F Damp=F
 DIIS: error= 3.83D-03 at cycle   4 NSaved=   4.
 NSaved= 4 IEnMin= 4 EnMin= -770.399481529495     IErMin= 4 ErrMin= 3.83D-03
 ErrMax= 3.83D-03  0.00D+00 EMaxC= 1.00D-01 BMatC= 4.28D-02 BMatP= 1.74D-01
 IDIUse=3 WtCom= 9.62D-01 WtEn= 3.83D-02
 Coeff-Com: -0.619D-01 0.139D+00 0.326D+00 0.597D+00
 Coeff-En:   0.000D+00 0.000D+00 0.209D+00 0.791D+00
 Coeff:     -0.595D-01 0.134D+00 0.321D+00 0.604D+00
 Gap=     0.139 Goal=   None    Shift=    0.000
 Gap=     0.131 Goal=   None    Shift=    0.000
 RMSDP=3.85D-04 MaxDP=2.17D-02 DE=-3.30D-02 OVMax= 4.60D-02

 Cycle   5  Pass 1  IDiag  1:
 RMSU=  2.47D-04    CP:  9.59D-01  2.30D+00  8.34D-01  7.47D-01
 E= -770.409502343392     Delta-E=       -0.010020813897 Rises=F Damp=F
 DIIS: error= 8.58D-04 at cycle   5 NSaved=   5.
 NSaved= 5 IEnMin= 5 EnMin= -770.409502343392     IErMin= 5 ErrMin= 8.58D-04
 ErrMax= 8.58D-04  0.00D+00 EMaxC= 1.00D-01 BMatC= 2.61D-03 BMatP= 4.28D-02
 IDIUse=3 WtCom= 9.91D-01 WtEn= 8.58D-03
 Coeff-Com:  0.201D-02-0.114D-03 0.119D+00 0.302D+00 0.577D+00
 Coeff-En:   0.000D+00 0.000D+00 0.000D+00 0.000D+00 0.100D+01
 Coeff:      0.200D-02-0.113D-03 0.118D+00 0.299D+00 0.581D+00
 Gap=     0.142 Goal=   None    Shift=    0.000
 Gap=     0.133 Goal=   None    Shift=    0.000
 RMSDP=1.12D-04 MaxDP=6.83D-03 DE=-1.00D-02 OVMax= 1.55D-02

 Cycle   6  Pass 1  IDiag  1:
 RMSU=  9.96D-05    CP:  9.58D-01  2.32D+00  8.43D-01  7.98D-01  9.10D-01
 E= -770.410265865650     Delta-E=       -0.000763522258 Rises=F Damp=F
 DIIS: error= 3.31D-04 at cycle   6 NSaved=   6.
 NSaved= 6 IEnMin= 6 EnMin= -770.410265865650     IErMin= 6 ErrMin= 3.31D-04
 ErrMax= 3.31D-04  0.00D+00 EMaxC= 1.00D-01 BMatC= 4.61D-04 BMatP= 2.61D-03
 IDIUse=3 WtCom= 9.97D-01 WtEn= 3.31D-03
 Coeff-Com:  0.115D-01-0.233D-01-0.141D-01 0.472D-02 0.284D+00 0.737D+00
 Coeff-En:   0.000D+00 0.000D+00 0.000D+00 0.000D+00 0.000D+00 0.100D+01
 Coeff:      0.115D-01-0.233D-01-0.140D-01 0.471D-02 0.283D+00 0.738D+00
 Gap=     0.144 Goal=   None    Shift=    0.000
 Gap=     0.133 Goal=   None    Shift=    0.000
 RMSDP=6.55D-05 MaxDP=3.66D-03 DE=-7.64D-04 OVMax= 1.04D-02

 Cycle   7  Pass 1  IDiag  1:
 RMSU=  3.90D-05    CP:  9.58D-01  2.32D+00  8.49D-01  8.28D-01  1.10D+00
                    CP:  9.84D-01
 E= -770.410476790375     Delta-E=       -0.000210924725 Rises=F Damp=F
 DIIS: error= 1.69D-04 at cycle   7 NSaved=   7.
 NSaved= 7 IEnMin= 7 EnMin= -770.410476790375     IErMin= 7 ErrMin= 1.69D-04
 ErrMax= 1.69D-04  0.00D+00 EMaxC= 1.00D-01 BMatC= 6.45D-05 BMatP= 4.61D-04
 IDIUse=3 WtCom= 9.98D-01 WtEn= 1.69D-03
 Coeff-Com:  0.117D-02-0.234D-02-0.221D-01-0.551D-01-0.118D-01 0.241D+00
 Coeff-Com:  0.849D+00
 Coeff-En:   0.000D+00 0.000D+00 0.000D+00 0.000D+00 0.000D+00 0.000D+00
 Coeff-En:   0.100D+01
 Coeff:      0.116D-02-0.234D-02-0.221D-01-0.550D-01-0.118D-01 0.241D+00
 Coeff:      0.849D+00
 Gap=     0.144 Goal=   None    Shift=    0.000
 Gap=     0.134 Goal=   None    Shift=    0.000
 RMSDP=3.03D-05 MaxDP=2.16D-03 DE=-2.11D-04 OVMax= 4.77D-03

 Cycle   8  Pass 1  IDiag  1:
 RMSU=  1.92D-05    CP:  9.58D-01  2.32D+00  8.54D-01  8.32D-01  1.16D+00
                    CP:  1.14D+00  1.09D+00
 E= -770.410519637914     Delta-E=       -0.000042847538 Rises=F Damp=F
 DIIS: error= 8.96D-05 at cycle   8 NSaved=   8.
 NSaved= 8 IEnMin= 8 EnMin= -770.410519637914     IErMin= 8 ErrMin= 8.96D-05
 ErrMax= 8.96D-05  0.00D+00 EMaxC= 1.00D-01 BMatC= 3.10D-05 BMatP= 6.45D-05
 IDIUse=1 WtCom= 1.00D+00 WtEn= 0.00D+00
 Coeff-Com: -0.110D-02 0.230D-02-0.101D-01-0.350D-01-0.621D-01-0.204D-01
 Coeff-Com:  0.492D+00 0.634D+00
 Coeff:     -0.110D-02 0.230D-02-0.101D-01-0.350D-01-0.621D-01-0.204D-01
 Coeff:      0.492D+00 0.634D+00
 Gap=     0.144 Goal=   None    Shift=    0.000
 Gap=     0.134 Goal=   None    Shift=    0.000
 RMSDP=1.42D-05 MaxDP=9.12D-04 DE=-4.28D-05 OVMax= 2.03D-03

 Cycle   9  Pass 1  IDiag  1:
 RMSU=  9.34D-06    CP:  9.58D-01  2.32D+00  8.55D-01  8.35D-01  1.18D+00
                    CP:  1.18D+00  1.29D+00  9.91D-01
 E= -770.410533062383     Delta-E=       -0.000013424469 Rises=F Damp=F
 DIIS: error= 5.37D-05 at cycle   9 NSaved=   9.
 NSaved= 9 IEnMin= 9 EnMin= -770.410533062383     IErMin= 9 ErrMin= 5.37D-05
 ErrMax= 5.37D-05  0.00D+00 EMaxC= 1.00D-01 BMatC= 4.33D-06 BMatP= 3.10D-05
 IDIUse=1 WtCom= 1.00D+00 WtEn= 0.00D+00
 Coeff-Com: -0.262D-03 0.757D-03 0.188D-02-0.792D-03-0.149D-01-0.620D-01
 Coeff-Com:  0.951D-02 0.231D+00 0.834D+00
 Coeff:     -0.262D-03 0.757D-03 0.188D-02-0.792D-03-0.149D-01-0.620D-01
 Coeff:      0.951D-02 0.231D+00 0.834D+00
 Gap=     0.145 Goal=   None    Shift=    0.000
 Gap=     0.134 Goal=   None    Shift=    0.000
 RMSDP=7.67D-06 MaxDP=5.41D-04 DE=-1.34D-05 OVMax= 1.01D-03

 Cycle  10  Pass 1  IDiag  1:
 RMSU=  5.23D-06    CP:  9.58D-01  2.32D+00  8.55D-01  8.33D-01  1.18D+00
                    CP:  1.20D+00  1.35D+00  1.19D+00  1.17D+00
 E= -770.410536140090     Delta-E=       -0.000003077708 Rises=F Damp=F
 DIIS: error= 3.73D-05 at cycle  10 NSaved=  10.
 NSaved=10 IEnMin=10 EnMin= -770.410536140090     IErMin=10 ErrMin= 3.73D-05
 ErrMax= 3.73D-05  0.00D+00 EMaxC= 1.00D-01 BMatC= 2.33D-06 BMatP= 4.33D-06
 IDIUse=1 WtCom= 1.00D+00 WtEn= 0.00D+00
 Coeff-Com:  0.171D-03-0.148D-03 0.498D-02 0.113D-01 0.115D-01-0.363D-01
 Coeff-Com: -0.161D+00-0.687D-01 0.548D+00 0.690D+00
 Coeff:      0.171D-03-0.148D-03 0.498D-02 0.113D-01 0.115D-01-0.363D-01
 Coeff:     -0.161D+00-0.687D-01 0.548D+00 0.690D+00
 Gap=     0.145 Goal=   None    Shift=    0.000
 Gap=     0.134 Goal=   None    Shift=    0.000
 RMSDP=4.93D-06 MaxDP=2.92D-04 DE=-3.08D-06 OVMax= 7.50D-04

 Cycle  11  Pass 1  IDiag  1:
 RMSU=  2.23D-06    CP:  9.58D-01  2.32D+00  8.55D-01  8.33D-01  1.18D+00
                    CP:  1.20D+00  1.40D+00  1.32D+00  1.49D+00  9.47D-01
 E= -770.410537513276     Delta-E=       -0.000001373185 Rises=F Damp=F
 DIIS: error= 1.61D-05 at cycle  11 NSaved=  11.
 NSaved=11 IEnMin=11 EnMin= -770.410537513276     IErMin=11 ErrMin= 1.61D-05
 ErrMax= 1.61D-05  0.00D+00 EMaxC= 1.00D-01 BMatC= 2.50D-07 BMatP= 2.33D-06
 IDIUse=1 WtCom= 1.00D+00 WtEn= 0.00D+00
 Coeff-Com:  0.156D-03-0.281D-03 0.132D-02 0.367D-02 0.604D-02-0.180D-02
 Coeff-Com: -0.567D-01-0.629D-01 0.409D-01 0.239D+00 0.831D+00
 Coeff:      0.156D-03-0.281D-03 0.132D-02 0.367D-02 0.604D-02-0.180D-02
 Coeff:     -0.567D-01-0.629D-01 0.409D-01 0.239D+00 0.831D+00
 Gap=     0.145 Goal=   None    Shift=    0.000
 Gap=     0.134 Goal=   None    Shift=    0.000
 RMSDP=2.22D-06 MaxDP=1.42D-04 DE=-1.37D-06 OVMax= 3.60D-04

 Cycle  12  Pass 1  IDiag  1:
 RMSU=  1.21D-06    CP:  9.58D-01  2.32D+00  8.55D-01  8.33D-01  1.18D+00
                    CP:  1.20D+00  1.41D+00  1.37D+00  1.61D+00  1.15D+00
                    CP:  1.14D+00
 E= -770.410537771238     Delta-E=       -0.000000257962 Rises=F Damp=F
 DIIS: error= 1.02D-05 at cycle  12 NSaved=  12.
 NSaved=12 IEnMin=12 EnMin= -770.410537771238     IErMin=12 ErrMin= 1.02D-05
 ErrMax= 1.02D-05  0.00D+00 EMaxC= 1.00D-01 BMatC= 1.14D-07 BMatP= 2.50D-07
 IDIUse=1 WtCom= 1.00D+00 WtEn= 0.00D+00
 Coeff-Com:  0.541D-04-0.141D-03-0.697D-03-0.125D-02-0.137D-03 0.923D-02
 Coeff-Com:  0.139D-01-0.139D-01-0.136D+00-0.710D-01 0.458D+00 0.742D+00
 Coeff:      0.541D-04-0.141D-03-0.697D-03-0.125D-02-0.137D-03 0.923D-02
 Coeff:      0.139D-01-0.139D-01-0.136D+00-0.710D-01 0.458D+00 0.742D+00
 Gap=     0.145 Goal=   None    Shift=    0.000
 Gap=     0.134 Goal=   None    Shift=    0.000
 RMSDP=1.29D-06 MaxDP=7.80D-05 DE=-2.58D-07 OVMax= 2.31D-04

 Cycle  13  Pass 1  IDiag  1:
 RMSU=  5.92D-07    CP:  9.58D-01  2.32D+00  8.55D-01  8.33D-01  1.18D+00
                    CP:  1.20D+00  1.42D+00  1.39D+00  1.67D+00  1.24D+00
                    CP:  1.48D+00  1.07D+00
 E= -770.410537870318     Delta-E=       -0.000000099080 Rises=F Damp=F
 DIIS: error= 5.43D-06 at cycle  13 NSaved=  13.
 NSaved=13 IEnMin=13 EnMin= -770.410537870318     IErMin=13 ErrMin= 5.43D-06
 ErrMax= 5.43D-06  0.00D+00 EMaxC= 1.00D-01 BMatC= 2.25D-08 BMatP= 1.14D-07
 IDIUse=1 WtCom= 1.00D+00 WtEn= 0.00D+00
 Coeff-Com: -0.392D-04 0.540D-04-0.649D-03-0.160D-02-0.203D-02 0.391D-02
 Coeff-Com:  0.228D-01 0.167D-01-0.649D-01-0.979D-01-0.810D-01 0.263D+00
 Coeff-Com:  0.941D+00
 Coeff:     -0.392D-04 0.540D-04-0.649D-03-0.160D-02-0.203D-02 0.391D-02
 Coeff:      0.228D-01 0.167D-01-0.649D-01-0.979D-01-0.810D-01 0.263D+00
 Coeff:      0.941D+00
 Gap=     0.145 Goal=   None    Shift=    0.000
 Gap=     0.134 Goal=   None    Shift=    0.000
 RMSDP=7.90D-07 MaxDP=5.11D-05 DE=-9.91D-08 OVMax= 1.39D-04

 Cycle  14  Pass 1  IDiag  1:
 RMSU=  3.32D-07    CP:  9.58D-01  2.32D+00  8.55D-01  8.33D-01  1.18D+00
                    CP:  1.20D+00  1.42D+00  1.39D+00  1.69D+00  1.30D+00
                    CP:  1.66D+00  1.42D+00  1.19D+00
 E= -770.410537899088     Delta-E=       -0.000000028769 Rises=F Damp=F
 DIIS: error= 3.18D-06 at cycle  14 NSaved=  14.
 NSaved=14 IEnMin=14 EnMin= -770.410537899088     IErMin=14 ErrMin= 3.18D-06
 ErrMax= 3.18D-06  0.00D+00 EMaxC= 1.00D-01 BMatC= 8.82D-09 BMatP= 2.25D-08
 IDIUse=1 WtCom= 1.00D+00 WtEn= 0.00D+00
 Coeff-Com: -0.467D-04 0.856D-04-0.182D-03-0.549D-03-0.117D-02-0.284D-03
 Coeff-Com:  0.879D-02 0.132D-01-0.169D-02-0.341D-01-0.164D+00-0.512D-01
 Coeff-Com:  0.514D+00 0.717D+00
 Coeff:     -0.467D-04 0.856D-04-0.182D-03-0.549D-03-0.117D-02-0.284D-03
 Coeff:      0.879D-02 0.132D-01-0.169D-02-0.341D-01-0.164D+00-0.512D-01
 Coeff:      0.514D+00 0.717D+00
 Gap=     0.145 Goal=   None    Shift=    0.000
 Gap=     0.134 Goal=   None    Shift=    0.000
 RMSDP=3.75D-07 MaxDP=2.37D-05 DE=-2.88D-08 OVMax= 7.24D-05

 Cycle  15  Pass 1  IDiag  1:
 RMSU=  1.58D-07    CP:  9.58D-01  2.32D+00  8.55D-01  8.33D-01  1.18D+00
                    CP:  1.20D+00  1.42D+00  1.40D+00  1.70D+00  1.32D+00
                    CP:  1.73D+00  1.54D+00  1.53D+00  1.01D+00
 E= -770.410537905968     Delta-E=       -0.000000006880 Rises=F Damp=F
 DIIS: error= 1.34D-06 at cycle  15 NSaved=  15.
 NSaved=15 IEnMin=15 EnMin= -770.410537905968     IErMin=15 ErrMin= 1.34D-06
 ErrMax= 1.34D-06  0.00D+00 EMaxC= 1.00D-01 BMatC= 2.03D-09 BMatP= 8.82D-09
 IDIUse=1 WtCom= 1.00D+00 WtEn= 0.00D+00
 Coeff-Com: -0.138D-04 0.288D-04 0.933D-04 0.204D-03-0.916D-05-0.130D-02
 Coeff-Com: -0.238D-02 0.201D-02 0.186D-01 0.128D-01-0.604D-01-0.103D+00
 Coeff-Com: -0.162D-01 0.366D+00 0.783D+00
 Coeff:     -0.138D-04 0.288D-04 0.933D-04 0.204D-03-0.916D-05-0.130D-02
 Coeff:     -0.238D-02 0.201D-02 0.186D-01 0.128D-01-0.604D-01-0.103D+00
 Coeff:     -0.162D-01 0.366D+00 0.783D+00
 Gap=     0.145 Goal=   None    Shift=    0.000
 Gap=     0.134 Goal=   None    Shift=    0.000
 RMSDP=1.76D-07 MaxDP=1.00D-05 DE=-6.88D-09 OVMax= 2.77D-05

 Cycle  16  Pass 1  IDiag  1:
 RMSU=  7.27D-08    CP:  9.58D-01  2.32D+00  8.55D-01  8.33D-01  1.18D+00
                    CP:  1.20D+00  1.42D+00  1.40D+00  1.70D+00  1.32D+00
                    CP:  1.76D+00  1.61D+00  1.64D+00  1.25D+00  9.37D-01
 E= -770.410537907411     Delta-E=       -0.000000001443 Rises=F Damp=F
 DIIS: error= 3.91D-07 at cycle  16 NSaved=  16.
 NSaved=16 IEnMin=16 EnMin= -770.410537907411     IErMin=16 ErrMin= 3.91D-07
 ErrMax= 3.91D-07  0.00D+00 EMaxC= 1.00D-01 BMatC= 2.57D-10 BMatP= 2.03D-09
 IDIUse=1 WtCom= 1.00D+00 WtEn= 0.00D+00
 Coeff-Com:  0.171D-05-0.343D-05 0.558D-04 0.159D-03 0.180D-03-0.391D-03
 Coeff-Com: -0.231D-02-0.155D-02 0.636D-02 0.104D-01 0.840D-02-0.234D-01
 Coeff-Com: -0.103D+00-0.586D-02 0.270D+00 0.841D+00
 Coeff:      0.171D-05-0.343D-05 0.558D-04 0.159D-03 0.180D-03-0.391D-03
 Coeff:     -0.231D-02-0.155D-02 0.636D-02 0.104D-01 0.840D-02-0.234D-01
 Coeff:     -0.103D+00-0.586D-02 0.270D+00 0.841D+00
 Gap=     0.145 Goal=   None    Shift=    0.000
 Gap=     0.134 Goal=   None    Shift=    0.000
 RMSDP=6.44D-08 MaxDP=3.35D-06 DE=-1.44D-09 OVMax= 8.23D-06

 Cycle  17  Pass 1  IDiag  1:
 RMSU=  3.17D-08    CP:  9.58D-01  2.32D+00  8.55D-01  8.33D-01  1.18D+00
                    CP:  1.20D+00  1.42D+00  1.40D+00  1.70D+00  1.33D+00
                    CP:  1.77D+00  1.63D+00  1.68D+00  1.33D+00  1.11D+00
                    CP:  1.04D+00
 E= -770.410537907597     Delta-E=       -0.000000000186 Rises=F Damp=F
 DIIS: error= 2.12D-07 at cycle  17 NSaved=  17.
 NSaved=17 IEnMin=17 EnMin= -770.410537907597     IErMin=17 ErrMin= 2.12D-07
 ErrMax= 2.12D-07  0.00D+00 EMaxC= 1.00D-01 BMatC= 8.33D-11 BMatP= 2.57D-10
 IDIUse=1 WtCom= 1.00D+00 WtEn= 0.00D+00
 Coeff-Com:  0.196D-05-0.421D-05 0.138D-04 0.517D-04 0.103D-03 0.326D-04
 Coeff-Com: -0.798D-03-0.118D-02-0.780D-04 0.311D-02 0.155D-01 0.662D-02
 Coeff-Com: -0.516D-01-0.679D-01 0.325D-02 0.439D+00 0.654D+00
 Coeff:      0.196D-05-0.421D-05 0.138D-04 0.517D-04 0.103D-03 0.326D-04
 Coeff:     -0.798D-03-0.118D-02-0.780D-04 0.311D-02 0.155D-01 0.662D-02
 Coeff:     -0.516D-01-0.679D-01 0.325D-02 0.439D+00 0.654D+00
 Gap=     0.145 Goal=   None    Shift=    0.000
 Gap=     0.134 Goal=   None    Shift=    0.000
 RMSDP=2.33D-08 MaxDP=1.22D-06 DE=-1.86D-10 OVMax= 3.15D-06

 Cycle  18  Pass 1  IDiag  1:
 RMSU=  1.50D-08    CP:  9.58D-01  2.32D+00  8.55D-01  8.33D-01  1.18D+00
                    CP:  1.20D+00  1.42D+00  1.40D+00  1.70D+00  1.33D+00
                    CP:  1.77D+00  1.63D+00  1.69D+00  1.35D+00  1.15D+00
                    CP:  1.20D+00  9.53D-01
 E= -770.410537907629     Delta-E=       -0.000000000031 Rises=F Damp=F
 DIIS: error= 9.86D-08 at cycle  18 NSaved=  18.
 NSaved=18 IEnMin=18 EnMin= -770.410537907629     IErMin=18 ErrMin= 9.86D-08
 ErrMax= 9.86D-08  0.00D+00 EMaxC= 1.00D-01 BMatC= 1.36D-11 BMatP= 8.33D-11
 IDIUse=1 WtCom= 1.00D+00 WtEn= 0.00D+00
 Coeff-Com:  0.988D-07-0.629D-06-0.873D-05-0.188D-04-0.174D-05 0.110D-03
 Coeff-Com:  0.246D-03-0.777D-04-0.167D-02-0.139D-02 0.454D-02 0.854D-02
 Coeff-Com:  0.394D-02-0.263D-01-0.667D-01-0.326D-01 0.288D+00 0.823D+00
 Coeff:      0.988D-07-0.629D-06-0.873D-05-0.188D-04-0.174D-05 0.110D-03
 Coeff:      0.246D-03-0.777D-04-0.167D-02-0.139D-02 0.454D-02 0.854D-02
 Coeff:      0.394D-02-0.263D-01-0.667D-01-0.326D-01 0.288D+00 0.823D+00
 Gap=     0.145 Goal=   None    Shift=    0.000
 Gap=     0.134 Goal=   None    Shift=    0.000
 RMSDP=1.23D-08 MaxDP=8.11D-07 DE=-3.14D-11 OVMax= 1.96D-06

 Cycle  19  Pass 1  IDiag  1:
 RMSU=  7.04D-09    CP:  9.58D-01  2.32D+00  8.55D-01  8.33D-01  1.18D+00
                    CP:  1.20D+00  1.42D+00  1.40D+00  1.70D+00  1.33D+00
                    CP:  1.77D+00  1.63D+00  1.70D+00  1.36D+00  1.17D+00
                    CP:  1.27D+00  1.17D+00  1.05D+00
 E= -770.410537907639     Delta-E=       -0.000000000010 Rises=F Damp=F
 DIIS: error= 4.30D-08 at cycle  19 NSaved=  19.
 NSaved=19 IEnMin=19 EnMin= -770.410537907639     IErMin=19 ErrMin= 4.30D-08
 ErrMax= 4.30D-08  0.00D+00 EMaxC= 1.00D-01 BMatC= 2.51D-12 BMatP= 1.36D-11
 IDIUse=1 WtCom= 1.00D+00 WtEn= 0.00D+00
 Coeff-Com: -0.916D-07 0.343D-07-0.535D-05-0.140D-04-0.124D-04 0.446D-04
 Coeff-Com:  0.196D-03 0.123D-03-0.690D-03-0.981D-03-0.662D-04 0.264D-02
 Coeff-Com:  0.844D-02-0.209D-02-0.284D-01-0.735D-01 0.412D-01 0.348D+00
 Coeff-Com:  0.705D+00
 Coeff:     -0.916D-07 0.343D-07-0.535D-05-0.140D-04-0.124D-04 0.446D-04
 Coeff:      0.196D-03 0.123D-03-0.690D-03-0.981D-03-0.662D-04 0.264D-02
 Coeff:      0.844D-02-0.209D-02-0.284D-01-0.735D-01 0.412D-01 0.348D+00
 Coeff:      0.705D+00
 Gap=     0.145 Goal=   None    Shift=    0.000
 Gap=     0.134 Goal=   None    Shift=    0.000
 RMSDP=5.08D-09 MaxDP=3.32D-07 DE=-1.05D-11 OVMax= 7.94D-07

 Error on total polarization charges =  0.00973
 SCF Done:  E(UB3LYP) =  -770.410537908     A.U. after   19 cycles
            NFock= 19  Conv=0.51D-08     -V/T= 2.0095
 <Sx>= 0.0000 <Sy>= 0.0000 <Sz>= 0.5000 <S**2>= 0.7646 S= 0.5073
 <L.S>=  0.00000000000    
 KE= 7.631925852904D+02 PE=-4.430975994789D+03 EE= 1.576989581317D+03
 Annihilation of the first spin contaminant:
 S**2 before annihilation     0.7646,   after     0.7502
 Leave Link  502 at Fri May 24 19:19:33 2019, MaxMem=   104857600 cpu:            1482.9 elap:              47.2
 (Enter /opt/software/gaussian/g16.b01/l801.exe)
 DoSCS=F DFT=T ScalE2(SS,OS)=  1.000000  1.000000
 ExpMin= 1.61D-01 ExpMax= 5.48D+03 ExpMxC= 8.25D+02 IAcc=3 IRadAn=         5 AccDes= 0.00D+00
 HarFok:  IExCor=  205 AccDes= 0.00D+00 IRadAn=         5 IDoV=-2 UseB2=F ITyADJ=14
 ICtDFT= 12500011 ScaDFX=  1.000000  1.000000  1.000000  1.000000
 Largest valence mixing into a core orbital is  5.89D-05
 Largest core mixing into a valence orbital is  1.20D-05
 Largest valence mixing into a core orbital is  6.42D-05
 Largest core mixing into a valence orbital is  1.21D-05
 Range of M.O.s used for correlation:    19   355
 NBasis=   355 NAE=    65 NBE=    64 NFC=    18 NFV=     0
 NROrb=    337 NOA=    47 NOB=    46 NVA=   290 NVB=   291
 Leave Link  801 at Fri May 24 19:19:33 2019, MaxMem=   104857600 cpu:               5.7 elap:               0.2
 (Enter /opt/software/gaussian/g16.b01/l914.exe)
 UHF ground state
 Ignoring spin specification with unrestricted ground state.
 Two-electron integrals replicated using symmetry.
 MDV=   104857600 DFT=T DoStab=F Mixed=T DoRPA=T DoScal=F NonHer=T
 NEqPCM:  Using non-equilibrium solvation (IEInf=1, Eps=  35.6880, EpsInf=   1.8069)
 Inv3:  Mode=1 IEnd=    16978923.
 Iteration    1 A*A^-1 deviation from unit magnitude is 3.33D-15 for   1245.
 Iteration    1 A*A^-1 deviation from orthogonality  is 2.42D-15 for   1888   1770.
 Iteration    1 A^-1*A deviation from unit magnitude is 3.11D-15 for   1245.
 Iteration    1 A^-1*A deviation from orthogonality  is 1.54D-15 for   1480    409.
 Making orbital integer symmetry assigments:
 Orbital symmetries:
 Alpha Orbitals:
       Occupied  (A) (A) (A) (A) (A) (A) (A) (A) (A) (A) (A) (A)
                 (A) (A) (A) (A) (A) (A) (A) (A) (A) (A) (A) (A)
                 (A) (A) (A) (A) (A) (A) (A) (A) (A) (A) (A) (A)
                 (A) (A) (A) (A) (A) (A) (A) (A) (A) (A) (A) (A)
                 (A) (A) (A) (A) (A) (A) (A) (A) (A) (A) (A) (A)
                 (A) (A) (A) (A) (A)
       Virtual   (A) (A) (A) (A) (A) (A) (A) (A) (A) (A) (A) (A)
                 (A) (A) (A) (A) (A) (A) (A) (A) (A) (A) (A) (A)
                 (A) (A) (A) (A) (A) (A) (A) (A) (A) (A) (A) (A)
                 (A) (A) (A) (A) (A) (A) (A) (A) (A) (A) (A) (A)
                 (A) (A) (A) (A) (A) (A) (A) (A) (A) (A) (A) (A)
                 (A) (A) (A) (A) (A) (A) (A) (A) (A) (A) (A) (A)
                 (A) (A) (A) (A) (A) (A) (A) (A) (A) (A) (A) (A)
                 (A) (A) (A) (A) (A) (A) (A) (A) (A) (A) (A) (A)
                 (A) (A) (A) (A) (A) (A) (A) (A) (A) (A) (A) (A)
                 (A) (A) (A) (A) (A) (A) (A) (A) (A) (A) (A) (A)
                 (A) (A) (A) (A) (A) (A) (A) (A) (A) (A) (A) (A)
                 (A) (A) (A) (A) (A) (A) (A) (A) (A) (A) (A) (A)
                 (A) (A) (A) (A) (A) (A) (A) (A) (A) (A) (A) (A)
                 (A) (A) (A) (A) (A) (A) (A) (A) (A) (A) (A) (A)
                 (A) (A) (A) (A) (A) (A) (A) (A) (A) (A) (A) (A)
                 (A) (A) (A) (A) (A) (A) (A) (A) (A) (A) (A) (A)
                 (A) (A) (A) (A) (A) (A) (A) (A) (A) (A) (A) (A)
                 (A) (A) (A) (A) (A) (A) (A) (A) (A) (A) (A) (A)
                 (A) (A) (A) (A) (A) (A) (A) (A) (A) (A) (A) (A)
                 (A) (A) (A) (A) (A) (A) (A) (A) (A) (A) (A) (A)
                 (A) (A) (A) (A) (A) (A) (A) (A) (A) (A) (A) (A)
                 (A) (A) (A) (A) (A) (A) (A) (A) (A) (A) (A) (A)
                 (A) (A) (A) (A) (A) (A) (A) (A) (A) (A) (A) (A)
                 (A) (A) (A) (A) (A) (A) (A) (A) (A) (A) (A) (A)
                 (A) (A)
 Beta  Orbitals:
       Occupied  (A) (A) (A) (A) (A) (A) (A) (A) (A) (A) (A) (A)
                 (A) (A) (A) (A) (A) (A) (A) (A) (A) (A) (A) (A)
                 (A) (A) (A) (A) (A) (A) (A) (A) (A) (A) (A) (A)
                 (A) (A) (A) (A) (A) (A) (A) (A) (A) (A) (A) (A)
                 (A) (A) (A) (A) (A) (A) (A) (A) (A) (A) (A) (A)
                 (A) (A) (A) (A)
       Virtual   (A) (A) (A) (A) (A) (A) (A) (A) (A) (A) (A) (A)
                 (A) (A) (A) (A) (A) (A) (A) (A) (A) (A) (A) (A)
                 (A) (A) (A) (A) (A) (A) (A) (A) (A) (A) (A) (A)
                 (A) (A) (A) (A) (A) (A) (A) (A) (A) (A) (A) (A)
                 (A) (A) (A) (A) (A) (A) (A) (A) (A) (A) (A) (A)
                 (A) (A) (A) (A) (A) (A) (A) (A) (A) (A) (A) (A)
                 (A) (A) (A) (A) (A) (A) (A) (A) (A) (A) (A) (A)
                 (A) (A) (A) (A) (A) (A) (A) (A) (A) (A) (A) (A)
                 (A) (A) (A) (A) (A) (A) (A) (A) (A) (A) (A) (A)
                 (A) (A) (A) (A) (A) (A) (A) (A) (A) (A) (A) (A)
                 (A) (A) (A) (A) (A) (A) (A) (A) (A) (A) (A) (A)
                 (A) (A) (A) (A) (A) (A) (A) (A) (A) (A) (A) (A)
                 (A) (A) (A) (A) (A) (A) (A) (A) (A) (A) (A) (A)
                 (A) (A) (A) (A) (A) (A) (A) (A) (A) (A) (A) (A)
                 (A) (A) (A) (A) (A) (A) (A) (A) (A) (A) (A) (A)
                 (A) (A) (A) (A) (A) (A) (A) (A) (A) (A) (A) (A)
                 (A) (A) (A) (A) (A) (A) (A) (A) (A) (A) (A) (A)
                 (A) (A) (A) (A) (A) (A) (A) (A) (A) (A) (A) (A)
                 (A) (A) (A) (A) (A) (A) (A) (A) (A) (A) (A) (A)
                 (A) (A) (A) (A) (A) (A) (A) (A) (A) (A) (A) (A)
                 (A) (A) (A) (A) (A) (A) (A) (A) (A) (A) (A) (A)
                 (A) (A) (A) (A) (A) (A) (A) (A) (A) (A) (A) (A)
                 (A) (A) (A) (A) (A) (A) (A) (A) (A) (A) (A) (A)
                 (A) (A) (A) (A) (A) (A) (A) (A) (A) (A) (A) (A)
                 (A) (A) (A)
    72 initial guesses have been made.
 Convergence on wavefunction:    0.001000000000000
 Davidson Disk Diagonalization:  ConvIn= 1.00D-03 SkipCon=T Conv= 1.00D-03.
 Max sub-space:  2000 roots to seek:    72 dimension of matrix:        27016
 Iteration     1 Dimension    72 NMult     0 NNew     72
 CISAX will form     3 AO SS matrices at one time.
 NMat=     3 NSing=     3 JSym2X= 0.
 FoFJK:  IHMeth= 1 ICntrl=       0 DoSepK=F KAlg= 0 I1Cent=           0 FoldK=F
 IRaf= 840000000 NMat=       6 IRICut=       1 DoRegI=T DoRafI=F ISym2E= 0 IDoP0=0 IntGTp=1.
 NMat=     3 NSing=     3 JSym2X= 0.
 NMat=     3 NSing=     3 JSym2X= 0.
 NMat=     3 NSing=     3 JSym2X= 0.
 NMat=     3 NSing=     3 JSym2X= 0.
 NMat=     3 NSing=     3 JSym2X= 0.
 NMat=     3 NSing=     3 JSym2X= 0.
 NMat=     3 NSing=     3 JSym2X= 0.
 NMat=     3 NSing=     3 JSym2X= 0.
 NMat=     3 NSing=     3 JSym2X= 0.
 NMat=     3 NSing=     3 JSym2X= 0.
 NMat=     3 NSing=     3 JSym2X= 0.
 NMat=     3 NSing=     3 JSym2X= 0.
 NMat=     3 NSing=     3 JSym2X= 0.
 NMat=     3 NSing=     3 JSym2X= 0.
 NMat=     3 NSing=     3 JSym2X= 0.
 NMat=     3 NSing=     3 JSym2X= 0.
 NMat=     3 NSing=     3 JSym2X= 0.
 NMat=     3 NSing=     3 JSym2X= 0.
 NMat=     3 NSing=     3 JSym2X= 0.
 NMat=     3 NSing=     3 JSym2X= 0.
 NMat=     3 NSing=     3 JSym2X= 0.
 NMat=     3 NSing=     3 JSym2X= 0.
 NMat=     3 NSing=     3 JSym2X= 0.
 New state      4 was old state      5
 New state      5 was old state      4
 New state      9 was old state     10
 New state     10 was old state     11
 New state     11 was old state     13
 New state     12 was old state     37
 New state     13 was old state     12
 New state     14 was old state      9
 New state     15 was old state     39
 New state     16 was old state     14
 New state     17 was old state     15
 New state     18 was old state     17
 Excitation Energies [eV] at current iteration:
 Root      1 :     2.238868055021261
 Root      2 :     2.976783510938560
 Root      3 :     3.084308734547643
 Root      4 :     3.168498595081678
 Root      5 :     3.339162477175057
 Root      6 :     3.535707892084433
 Root      7 :     3.918881991287503
 Root      8 :     4.253268769373669
 Root      9 :     4.321894394246963
 Root     10 :     4.377012010773485
 Root     11 :     4.400931269772961
 Root     12 :     4.530551448961499
 Root     13 :     4.607070302222828
 Root     14 :     4.656252926232720
 Root     15 :     4.734481831360429
 Root     16 :     4.900160502960182
 Root     17 :     4.967537651203674
 Root     18 :     4.998809881091257
 Root     19 :     5.146779977908683
 Root     20 :     5.213800073000884
 Root     21 :     5.270069516572815
 Root     22 :     5.470047054526558
 Root     23 :     5.479062812283430
 Root     24 :     5.484178565425805
 Root     25 :     5.547036301387178
 Root     26 :     5.582285512395972
 Root     27 :     5.673389287044301
 Root     28 :     5.673754463082830
 Root     29 :     5.751803855905830
 Root     30 :     5.834367381666437
 Root     31 :     5.947104067140574
 Root     32 :     5.962959059569349
 Root     33 :     5.999394558451820
 Root     34 :     6.006322382800404
 Root     35 :     6.049126309163933
 Root     36 :     6.095092636244157
 Root     37 :     6.122432450583766
 Root     38 :     6.125856937193825
 Root     39 :     6.161487645494576
 Root     40 :     6.178154014397288
 Root     41 :     6.212415578004813
 Root     42 :     6.232204079516089
 Root     43 :     6.254436304297111
 Root     44 :     6.277246789332555
 Root     45 :     6.296281786678916
 Root     46 :     6.332198114161072
 Root     47 :     6.366693470519058
 Root     48 :     6.375449157711034
 Root     49 :     6.441186983639403
 Root     50 :     6.463477488853827
 Root     51 :     6.504779868342476
 Root     52 :     6.530757475085163
 Root     53 :     6.555167548720294
 Root     54 :     6.572555688653411
 Root     55 :     6.578711862992773
 Root     56 :     6.649328253225152
 Root     57 :     6.779388652845753
 Root     58 :     6.820781832584517
 Root     59 :     6.960835488989296
 Root     60 :     6.968999668375405
 Root     61 :     6.990434758948960
 Root     62 :     7.046335523071657
 Root     63 :     7.136419146836051
 Root     64 :     7.169868191310763
 Root     65 :     7.180049023398801
 Root     66 :     7.327838951764030
 Root     67 :     7.361732117659473
 Root     68 :     7.760841853784444
 Root     69 :     8.101570484420106
 Root     70 :     8.312818774996778
 Root     71 :     8.409796488166522
 Root     72 :     8.808568229596309
 Iteration     2 Dimension   108 NMult    72 NNew     36
 CISAX will form     3 AO SS matrices at one time.
 NMat=     3 NSing=     3 JSym2X= 0.
 NMat=     3 NSing=     3 JSym2X= 0.
 NMat=     3 NSing=     3 JSym2X= 0.
 NMat=     3 NSing=     3 JSym2X= 0.
 NMat=     3 NSing=     3 JSym2X= 0.
 NMat=     3 NSing=     3 JSym2X= 0.
 NMat=     3 NSing=     3 JSym2X= 0.
 NMat=     3 NSing=     3 JSym2X= 0.
 NMat=     3 NSing=     3 JSym2X= 0.
 NMat=     3 NSing=     3 JSym2X= 0.
 NMat=     3 NSing=     3 JSym2X= 0.
 NMat=     3 NSing=     3 JSym2X= 0.
 Root      1 not converged, maximum delta is    0.070236214878878
 Root      2 not converged, maximum delta is    0.400770845967801
 Root      3 not converged, maximum delta is    0.370551890830049
 Root      4 not converged, maximum delta is    0.245574214789926
 Root      5 not converged, maximum delta is    0.507969950216784
 Root      6 not converged, maximum delta is    0.309645280099813
 Root      7 not converged, maximum delta is    0.087075159853785
 New state      8 was old state      9
 Root      8 not converged, maximum delta is    0.400222266479647
 New state      9 was old state     10
 Root      9 not converged, maximum delta is    0.625789778128152
 New state     10 was old state      8
 Root     10 not converged, maximum delta is    0.094923002839028
 New state     11 was old state     12
 Root     11 not converged, maximum delta is    0.188144887538231
 New state     12 was old state     11
 Root     12 not converged, maximum delta is    0.418850228937537
 New state     13 was old state     14
 Root     13 not converged, maximum delta is    0.461255733103879
 New state     14 was old state     13
 Root     14 not converged, maximum delta is    0.420327040196183
 Root     15 not converged, maximum delta is    0.289851937975075
 New state     16 was old state     17
 Root     16 not converged, maximum delta is    0.329001876986699
 New state     17 was old state     16
 Root     17 not converged, maximum delta is    0.187782921528634
 Root     18 not converged, maximum delta is    0.440100461447422
 Excitation Energies [eV] at current iteration:
 Root      1 :     2.149180853533998   Change is   -0.089687201487263
 Root      2 :     2.831916537093185   Change is   -0.144866973845375
 Root      3 :     2.986132922508027   Change is   -0.098175812039616
 Root      4 :     3.008618888017725   Change is   -0.159879707063953
 Root      5 :     3.187858815667551   Change is   -0.151303661507506
 Root      6 :     3.352980067966559   Change is   -0.182727824117874
 Root      7 :     3.841230212219334   Change is   -0.077651779068169
 Root      8 :     3.981339249277005   Change is   -0.340555144969958
 Root      9 :     4.141262885970526   Change is   -0.235749124802958
 Root     10 :     4.211318525921250   Change is   -0.041950243452419
 Root     11 :     4.220371382766046   Change is   -0.310180066195453
 Root     12 :     4.321738390929366   Change is   -0.079192878843595
 Root     13 :     4.451607633389028   Change is   -0.204645292843692
 Root     14 :     4.556057867078507   Change is   -0.051012435144322
 Root     15 :     4.646769869551727   Change is   -0.087711961808702
 Root     16 :     4.667524819172284   Change is   -0.300012832031390
 Root     17 :     4.831195223039419   Change is   -0.068965279920764
 Root     18 :     4.938270943575227   Change is   -0.060538937516031
 Iteration     3 Dimension   144 NMult   108 NNew     36
 CISAX will form     3 AO SS matrices at one time.
 NMat=     3 NSing=     3 JSym2X= 0.
 NMat=     3 NSing=     3 JSym2X= 0.
 NMat=     3 NSing=     3 JSym2X= 0.
 NMat=     3 NSing=     3 JSym2X= 0.
 NMat=     3 NSing=     3 JSym2X= 0.
 NMat=     3 NSing=     3 JSym2X= 0.
 NMat=     3 NSing=     3 JSym2X= 0.
 NMat=     3 NSing=     3 JSym2X= 0.
 NMat=     3 NSing=     3 JSym2X= 0.
 NMat=     3 NSing=     3 JSym2X= 0.
 NMat=     3 NSing=     3 JSym2X= 0.
 NMat=     3 NSing=     3 JSym2X= 0.
 Root      1 not converged, maximum delta is    0.003673180556990
 Root      2 not converged, maximum delta is    0.019612069060213
 Root      3 not converged, maximum delta is    0.127691179262510
 Root      4 not converged, maximum delta is    0.159290748903812
 Root      5 not converged, maximum delta is    0.028789862367883
 Root      6 not converged, maximum delta is    0.015549448896678
 Root      7 not converged, maximum delta is    0.006249076264810
 Root      8 not converged, maximum delta is    0.022573281539136
 Root      9 not converged, maximum delta is    0.026095553484907
 New state     10 was old state     11
 Root     10 not converged, maximum delta is    0.389377777239146
 New state     11 was old state     10
 Root     11 not converged, maximum delta is    0.157206999208054
 Root     12 not converged, maximum delta is    0.011173534774468
 Root     13 not converged, maximum delta is    0.030382955286869
 Root     14 not converged, maximum delta is    0.137722979045978
 New state     15 was old state     16
 Root     15 not converged, maximum delta is    0.273307346908220
 New state     16 was old state     15
 Root     16 not converged, maximum delta is    0.601996578183042
 Root     17 not converged, maximum delta is    0.007723427183916
 Root     18 not converged, maximum delta is    0.009429717543455
 Excitation Energies [eV] at current iteration:
 Root      1 :     2.143453278429264   Change is   -0.005727575104734
 Root      2 :     2.818900579273867   Change is   -0.013015957819318
 Root      3 :     2.976661301371974   Change is   -0.009471621136053
 Root      4 :     2.994044833265174   Change is   -0.014574054752551
 Root      5 :     3.175454528594745   Change is   -0.012404287072806
 Root      6 :     3.342795539794953   Change is   -0.010184528171606
 Root      7 :     3.835241040159478   Change is   -0.005989172059856
 Root      8 :     3.967195895001792   Change is   -0.014143354275213
 Root      9 :     4.118424672787250   Change is   -0.022838213183276
 Root     10 :     4.200121916311048   Change is   -0.020249466454998
 Root     11 :     4.208181833698632   Change is   -0.003136692222619
 Root     12 :     4.318439464400779   Change is   -0.003298926528588
 Root     13 :     4.435938503803140   Change is   -0.015669129585889
 Root     14 :     4.548747969840255   Change is   -0.007309897238252
 Root     15 :     4.613509897925807   Change is   -0.054014921246477
 Root     16 :     4.648938770585228   Change is    0.002168901033501
 Root     17 :     4.828983351702798   Change is   -0.002211871336620
 Root     18 :     4.935404274262571   Change is   -0.002866669312656
 Iteration     4 Dimension   180 NMult   144 NNew     36
 CISAX will form     3 AO SS matrices at one time.
 NMat=     3 NSing=     3 JSym2X= 0.
 NMat=     3 NSing=     3 JSym2X= 0.
 NMat=     3 NSing=     3 JSym2X= 0.
 NMat=     3 NSing=     3 JSym2X= 0.
 NMat=     3 NSing=     3 JSym2X= 0.
 NMat=     3 NSing=     3 JSym2X= 0.
 NMat=     3 NSing=     3 JSym2X= 0.
 NMat=     3 NSing=     3 JSym2X= 0.
 NMat=     3 NSing=     3 JSym2X= 0.
 NMat=     3 NSing=     3 JSym2X= 0.
 NMat=     3 NSing=     3 JSym2X= 0.
 NMat=     3 NSing=     3 JSym2X= 0.
 Root      1 has converged.
 Root      2 not converged, maximum delta is    0.001973685238341
 Root      3 not converged, maximum delta is    0.017457241019213
 Root      4 not converged, maximum delta is    0.022299993137578
 Root      5 not converged, maximum delta is    0.002178255797882
 Root      6 not converged, maximum delta is    0.001361956581402
 Root      7 has converged.
 Root      8 not converged, maximum delta is    0.002396636544642
 Root      9 not converged, maximum delta is    0.002418102757082
 Root     10 not converged, maximum delta is    0.029869802536727
 Root     11 not converged, maximum delta is    0.011424577877675
 Root     12 not converged, maximum delta is    0.001716695279374
 Root     13 not converged, maximum delta is    0.004302746152193
 Root     14 not converged, maximum delta is    0.021434467519237
 Root     15 not converged, maximum delta is    0.016086646667684
 Root     16 not converged, maximum delta is    0.015572670774102
 Root     17 has converged.
 Root     18 has converged.
 Excitation Energies [eV] at current iteration:
 Root      1 :     2.143190617236052   Change is   -0.000262661193212
 Root      2 :     2.817899452125125   Change is   -0.001001127148741
 Root      3 :     2.975971267887122   Change is   -0.000690033484852
 Root      4 :     2.992818128224149   Change is   -0.001226705041025
 Root      5 :     3.174621660940883   Change is   -0.000832867653862
 Root      6 :     3.342037835588989   Change is   -0.000757704205963
 Root      7 :     3.835010142028076   Change is   -0.000230898131402
 Root      8 :     3.966342487593276   Change is   -0.000853407408516
 Root      9 :     4.116619086703536   Change is   -0.001805586083714
 Root     10 :     4.198068019164840   Change is   -0.002053897146208
 Root     11 :     4.207957238686429   Change is   -0.000224595012202
 Root     12 :     4.318101938316986   Change is   -0.000337526083793
 Root     13 :     4.434798149391439   Change is   -0.001140354411701
 Root     14 :     4.547748441831110   Change is   -0.000999528009145
 Root     15 :     4.609318497615470   Change is   -0.004191400310338
 Root     16 :     4.648369491487871   Change is   -0.000569279097356
 Root     17 :     4.828833482753979   Change is   -0.000149868948820
 Root     18 :     4.935161713128039   Change is   -0.000242561134532
 Iteration     5 Dimension   208 NMult   180 NNew     28
 CISAX will form     3 AO SS matrices at one time.
 NMat=     3 NSing=     3 JSym2X= 0.
 NMat=     3 NSing=     3 JSym2X= 0.
 NMat=     3 NSing=     3 JSym2X= 0.
 NMat=     3 NSing=     3 JSym2X= 0.
 NMat=     3 NSing=     3 JSym2X= 0.
 NMat=     3 NSing=     3 JSym2X= 0.
 NMat=     3 NSing=     3 JSym2X= 0.
 NMat=     3 NSing=     3 JSym2X= 0.
 NMat=     3 NSing=     3 JSym2X= 0.
 NMat=     1 NSing=     1 JSym2X= 0.
 Root      1 has converged.
 Root      2 has converged.
 Root      3 has converged.
 Root      4 not converged, maximum delta is    0.001072959366564
 Root      5 has converged.
 Root      6 has converged.
 Root      7 has converged.
 Root      8 has converged.
 Root      9 has converged.
 Root     10 not converged, maximum delta is    0.001350407232847
 Root     11 has converged.
 Root     12 has converged.
 Root     13 has converged.
 Root     14 not converged, maximum delta is    0.001626931785666
 Root     15 not converged, maximum delta is    0.001657963982352
 Root     16 not converged, maximum delta is    0.001247856379234
 Root     17 has converged.
 Root     18 has converged.
 Excitation Energies [eV] at current iteration:
 Root      1 :     2.143186561691319   Change is   -0.000004055544733
 Root      2 :     2.817843320830386   Change is   -0.000056131294740
 Root      3 :     2.975939958025649   Change is   -0.000031309861473
 Root      4 :     2.992758227883808   Change is   -0.000059900340341
 Root      5 :     3.174575686829825   Change is   -0.000045974111058
 Root      6 :     3.341989522309395   Change is   -0.000048313279595
 Root      7 :     3.835002604849679   Change is   -0.000007537178398
 Root      8 :     3.966297924235308   Change is   -0.000044563357967
 Root      9 :     4.116477981827628   Change is   -0.000141104875908
 Root     10 :     4.197957935920769   Change is   -0.000110083244070
 Root     11 :     4.207944206822743   Change is   -0.000013031863687
 Root     12 :     4.318080540141581   Change is   -0.000021398175405
 Root     13 :     4.434725658245578   Change is   -0.000072491145861
 Root     14 :     4.547670292469467   Change is   -0.000078149361643
 Root     15 :     4.609018186981945   Change is   -0.000300310633524
 Root     16 :     4.648331491999136   Change is   -0.000037999488735
 Root     17 :     4.828831298455197   Change is   -0.000002184298782
 Root     18 :     4.935157152791305   Change is   -0.000004560336735
 Iteration     6 Dimension   218 NMult   208 NNew     10
 CISAX will form     3 AO SS matrices at one time.
 NMat=     3 NSing=     3 JSym2X= 0.
 NMat=     3 NSing=     3 JSym2X= 0.
 NMat=     3 NSing=     3 JSym2X= 0.
 NMat=     1 NSing=     1 JSym2X= 0.
 Root      1 has converged.
 Root      2 has converged.
 Root      3 has converged.
 Root      4 has converged.
 Root      5 has converged.
 Root      6 has converged.
 Root      7 has converged.
 Root      8 has converged.
 Root      9 has converged.
 Root     10 has converged.
 Root     11 has converged.
 Root     12 has converged.
 Root     13 has converged.
 Root     14 has converged.
 Root     15 has converged.
 Root     16 has converged.
 Root     17 has converged.
 Root     18 has converged.
 Excitation Energies [eV] at current iteration:
 Root      1 :     2.143186095685615   Change is   -0.000000466005704
 Root      2 :     2.817841488734224   Change is   -0.000001832096162
 Root      3 :     2.975939249324609   Change is   -0.000000708701040
 Root      4 :     2.992754939155412   Change is   -0.000003288728396
 Root      5 :     3.174575193870815   Change is   -0.000000492959010
 Root      6 :     3.341988817826238   Change is   -0.000000704483156
 Root      7 :     3.835002429416640   Change is   -0.000000175433038
 Root      8 :     3.966297036391853   Change is   -0.000000887843455
 Root      9 :     4.116475166697915   Change is   -0.000002815129713
 Root     10 :     4.197951064660055   Change is   -0.000006871260714
 Root     11 :     4.207944002264635   Change is   -0.000000204558108
 Root     12 :     4.318080020914591   Change is   -0.000000519226991
 Root     13 :     4.434724630994705   Change is   -0.000001027250874
 Root     14 :     4.547664767448816   Change is   -0.000005525020651
 Root     15 :     4.608996693453960   Change is   -0.000021493527986
 Root     16 :     4.648328911406938   Change is   -0.000002580592199
 Root     17 :     4.828830978435137   Change is   -0.000000320020059
 Root     18 :     4.935156793655500   Change is   -0.000000359135805
 Convergence achieved on expansion vectors.
 ***********************************************************************
 Excited states from <AA,BB:AA,BB> singles matrix:
 ***********************************************************************
 
 ExtSpn:  IState=     1 X2= 1.002 Y2= 0.002 X2-Y2-1=-9.99D-16
          S2Grnd=  0.765 Ra=  0.004 Rb=  0.077 T=  0.035 S2Ext=  0.116 S2=  0.881
 ExtSpn:  IState=     2 X2= 1.011 Y2= 0.011 X2-Y2-1= 0.00D+00
          S2Grnd=  0.765 Ra=  0.051 Rb=  0.077 T=  0.112 S2Ext=  0.239 S2=  1.004
 ExtSpn:  IState=     3 X2= 1.005 Y2= 0.005 X2-Y2-1=-1.44D-15
          S2Grnd=  0.765 Ra=  0.027 Rb=  0.049 T=  0.054 S2Ext=  0.130 S2=  0.895
 ExtSpn:  IState=     4 X2= 1.010 Y2= 0.010 X2-Y2-1=-8.88D-16
          S2Grnd=  0.765 Ra=  0.049 Rb=  0.039 T=  0.059 S2Ext=  0.147 S2=  0.912
 ExtSpn:  IState=     5 X2= 1.006 Y2= 0.006 X2-Y2-1= 0.00D+00
          S2Grnd=  0.765 Ra=  0.040 Rb=  0.039 T=  0.052 S2Ext=  0.131 S2=  0.895
 ExtSpn:  IState=     6 X2= 1.010 Y2= 0.010 X2-Y2-1= 2.22D-16
          S2Grnd=  0.765 Ra=  0.085 Rb=  0.082 T=  0.145 S2Ext=  0.312 S2=  1.076
 ExtSpn:  IState=     7 X2= 1.004 Y2= 0.004 X2-Y2-1= 1.11D-15
          S2Grnd=  0.765 Ra=  0.054 Rb=  0.035 T=  0.054 S2Ext=  0.143 S2=  0.907
 ExtSpn:  IState=     8 X2= 1.027 Y2= 0.027 X2-Y2-1= 0.00D+00
          S2Grnd=  0.765 Ra=  0.376 Rb=  0.355 T=  0.720 S2Ext=  1.451 S2=  2.216
 ExtSpn:  IState=     9 X2= 1.005 Y2= 0.005 X2-Y2-1=-7.77D-16
          S2Grnd=  0.765 Ra=  0.032 Rb=  0.040 T=  0.051 S2Ext=  0.123 S2=  0.887
 ExtSpn:  IState=    10 X2= 1.020 Y2= 0.020 X2-Y2-1=-6.66D-16
          S2Grnd=  0.765 Ra=  0.353 Rb=  0.329 T=  0.651 S2Ext=  1.334 S2=  2.098
 ExtSpn:  IState=    11 X2= 1.002 Y2= 0.002 X2-Y2-1= 1.33D-15
          S2Grnd=  0.765 Ra=  0.063 Rb=  0.057 T=  0.095 S2Ext=  0.215 S2=  0.979
 ExtSpn:  IState=    12 X2= 1.001 Y2= 0.001 X2-Y2-1= 2.22D-16
          S2Grnd=  0.765 Ra=  0.885 Rb=  0.028 T=  0.285 S2Ext=  1.198 S2=  1.963
 ExtSpn:  IState=    13 X2= 1.007 Y2= 0.007 X2-Y2-1=-2.22D-16
          S2Grnd=  0.765 Ra=  0.224 Rb=  0.144 T=  0.236 S2Ext=  0.604 S2=  1.368
 ExtSpn:  IState=    14 X2= 1.003 Y2= 0.003 X2-Y2-1=-4.44D-16
          S2Grnd=  0.765 Ra=  0.583 Rb=  0.229 T=  0.655 S2Ext=  1.467 S2=  2.232
 ExtSpn:  IState=    15 X2= 1.005 Y2= 0.005 X2-Y2-1=-1.11D-16
          S2Grnd=  0.765 Ra=  0.162 Rb=  0.124 T=  0.245 S2Ext=  0.531 S2=  1.296
 ExtSpn:  IState=    16 X2= 1.004 Y2= 0.004 X2-Y2-1= 6.66D-16
          S2Grnd=  0.765 Ra=  0.503 Rb=  0.408 T=  0.868 S2Ext=  1.779 S2=  2.543
 ExtSpn:  IState=    17 X2= 1.001 Y2= 0.001 X2-Y2-1= 0.00D+00
          S2Grnd=  0.765 Ra=  0.038 Rb=  0.897 T= -0.333 S2Ext=  0.602 S2=  1.367
 ExtSpn:  IState=    18 X2= 1.002 Y2= 0.002 X2-Y2-1=-2.22D-16
          S2Grnd=  0.765 Ra=  0.610 Rb=  0.349 T=  0.879 S2Ext=  1.839 S2=  2.603
 1PDM for each excited state written to RWF  633
 Ground to excited state transition densities written to RWF  633
 Ground to excited state transition electric dipole moments (Au):
       state          X           Y           Z        Dip. S.      Osc.
         1        -0.0265     -0.1106     -0.0763      0.0188      0.0010
         2        -0.4986      0.1578      0.0338      0.2747      0.0190
         3        -0.5440      0.2155     -0.0245      0.3430      0.0250
         4        -0.7264      0.1184     -0.3628      0.6733      0.0494
         5        -1.2251     -0.2332     -0.2685      1.6275      0.1266
         6         0.7152      0.4141      0.1161      0.6965      0.0570
         7        -0.0951      0.1483      0.0942      0.0399      0.0038
         8         0.3416      0.5295      0.1267      0.4131      0.0401
         9         0.4191     -0.3073      0.2065      0.3127      0.0315
        10         0.3880      0.4098     -0.0512      0.3211      0.0330
        11         0.2152      0.0575     -0.1062      0.0609      0.0063
        12         0.1190      0.1472     -0.0353      0.0371      0.0039
        13        -0.6196     -0.6412      0.0519      0.7977      0.0867
        14        -0.2911     -0.1364      0.0211      0.1038      0.0116
        15         0.3619     -0.1803      0.0609      0.1672      0.0189
        16        -0.0635     -0.1125     -0.0852      0.0239      0.0027
        17        -0.2157     -0.1542     -0.0618      0.0741      0.0088
        18         0.0394     -0.0528     -0.0389      0.0059      0.0007
 Ground to excited state transition velocity dipole moments (Au):
       state          X           Y           Z        Dip. S.      Osc.
         1         0.0004      0.0081      0.0063      0.0001      0.0009
         2         0.0500     -0.0150     -0.0032      0.0027      0.0176
         3         0.0608     -0.0226     -0.0004      0.0042      0.0257
         4         0.0760     -0.0107      0.0409      0.0076      0.0459
         5         0.1382      0.0249      0.0307      0.0207      0.1181
[...]
    16  H    0.000505  -0.000019  -0.000087  -0.002091   0.000001  -0.000000
    17  C   -0.000027  -0.000248   0.000009   0.000001  -0.017747   0.000089
    18  H   -0.000016   0.000354  -0.000002  -0.000000   0.000089  -0.001740
    19  C   -0.001543  -0.001159   0.000826  -0.000007  -0.000177  -0.000002
    20  H   -0.000104  -0.000012   0.000072   0.000015   0.000010  -0.000000
    21  H   -0.000004  -0.000111   0.000003  -0.000000   0.000096   0.000003
    22  H    0.000011   0.000019  -0.000010   0.000000  -0.000012   0.000001
    23  C    0.000105   0.000302  -0.000002  -0.000001  -0.000011   0.000069
    24  C    0.000003   0.000069  -0.000000  -0.000000  -0.000001   0.000005
    25  C    0.000083   0.002085  -0.000004  -0.000000  -0.000056   0.000029
    26  C   -0.000000  -0.000000   0.000000   0.000000   0.000000  -0.000002
    27  H   -0.000000   0.000000   0.000000  -0.000000  -0.000000  -0.000000
    28  C   -0.000000  -0.000005   0.000000  -0.000000   0.000000  -0.000102
    29  H   -0.000003   0.000018   0.000001   0.000000  -0.000019   0.000005
    30  C   -0.000000  -0.000030   0.000000   0.000000  -0.000000   0.000006
    31  H   -0.000000  -0.000000   0.000000   0.000000   0.000000  -0.000000
    32  H   -0.000000  -0.000004   0.000000   0.000000  -0.000000  -0.000001
    33  H    0.000000   0.000000  -0.000000  -0.000000   0.000000   0.000000
    34  O    0.000007   0.000011  -0.000000  -0.000001  -0.000000   0.000001
    35  H    0.000023   0.000007  -0.000000  -0.000001  -0.000000   0.000000
              19         20         21         22         23         24
     1  C    0.000010   0.000001   0.000001  -0.000000  -0.007765  -0.001483
     2  C    0.000020   0.000001   0.000001  -0.000000  -0.026622  -0.011416
     3  O   -0.000001  -0.000000  -0.000000   0.000000   0.000525   0.000055
     4  C    0.000005  -0.000000  -0.000001   0.000000   0.000815   0.000565
     5  H   -0.000002   0.000000   0.000000  -0.000000  -0.000102  -0.000145
     6  H    0.000000   0.000000   0.000000   0.000000   0.000206   0.000562
     7  H    0.000000  -0.000000  -0.000000   0.000000   0.000458   0.000791
     8  C   -0.000016  -0.000001  -0.000000   0.000000   0.006889  -0.000092
     9  H   -0.000012  -0.000001  -0.000000   0.000000   0.000500   0.000013
    10  H   -0.000005  -0.000002  -0.000000   0.000000   0.000483   0.000003
    11  H    0.000001   0.000000   0.000000  -0.000000  -0.001878   0.000134
    12  C   -0.000097   0.000025   0.000021  -0.000016   0.000920   0.000165
    13  C   -0.001543  -0.000104  -0.000004   0.000011   0.000105   0.000003
    14  C   -0.001159  -0.000012  -0.000111   0.000019   0.000302   0.000069
    15  C    0.000826   0.000072   0.000003  -0.000010  -0.000002  -0.000000
    16  H   -0.000007   0.000015  -0.000000   0.000000  -0.000001  -0.000000
    17  C   -0.000177   0.000010   0.000096  -0.000012  -0.000011  -0.000001
    18  H   -0.000002  -0.000000   0.000003   0.000001   0.000069   0.000005
    19  C    0.038132  -0.000108  -0.000072   0.000202  -0.000003  -0.000000
    20  H   -0.000108   0.000752   0.000000  -0.000002  -0.000000  -0.000000
    21  H   -0.000072   0.000000   0.000694   0.000001  -0.000000  -0.000000
    22  H    0.000202  -0.000002   0.000001  -0.001785   0.000000   0.000000
    23  C   -0.000003  -0.000000  -0.000000   0.000000  -0.102600   0.003132
    24  C   -0.000000  -0.000000  -0.000000   0.000000   0.003132   0.150099
    25  C   -0.000041  -0.000000  -0.000012   0.000000   0.000487   0.003752
    26  C    0.000000   0.000000   0.000000  -0.000000   0.000282  -0.001255
    27  H    0.000000   0.000000   0.000000  -0.000000   0.000668   0.000392
    28  C   -0.000000   0.000000  -0.000001  -0.000000   0.000863   0.000128
    29  H    0.000003   0.000000   0.000000  -0.000000   0.000357  -0.000014
    30  C    0.000000   0.000000   0.000000  -0.000000  -0.000248  -0.006215
    31  H    0.000000   0.000000   0.000000  -0.000000   0.000027  -0.000271
    32  H    0.000000   0.000000   0.000000  -0.000000  -0.000003  -0.000008
    33  H   -0.000000  -0.000000  -0.000000   0.000000  -0.000028   0.000014
    34  O   -0.000000  -0.000000  -0.000000   0.000000   0.003675   0.001433
    35  H   -0.000000  -0.000000  -0.000000   0.000000   0.000766   0.000062
              25         26         27         28         29         30
     1  C   -0.001296   0.000000  -0.000012   0.000011  -0.000027   0.000014
     2  C   -0.010628  -0.000008  -0.000171   0.000020   0.000013   0.000165
     3  O    0.000028   0.000000  -0.000001  -0.000000  -0.000001  -0.000000
     4  C    0.000389   0.000013   0.000014  -0.000004  -0.000001  -0.000010
     5  H   -0.000022   0.000001   0.000000   0.000000  -0.000000   0.000001
     6  H    0.000082  -0.000091   0.000025   0.000000   0.000002  -0.000019
     7  H    0.000039   0.000003  -0.000021  -0.000000  -0.000000  -0.000004
     8  C   -0.000713   0.000009  -0.000018  -0.000005  -0.000051   0.000005
     9  H   -0.000194  -0.000000   0.000000   0.000005   0.000047   0.000000
    10  H   -0.000041   0.000000  -0.000000   0.000000  -0.000007   0.000000
    11  H    0.001130  -0.000002   0.000002  -0.000000   0.000024  -0.000005
    12  C    0.000210   0.000000  -0.000001  -0.000007   0.000015  -0.000002
    13  C    0.000083  -0.000000  -0.000000  -0.000000  -0.000003  -0.000000
    14  C    0.002085  -0.000000   0.000000  -0.000005   0.000018  -0.000030
    15  C   -0.000004   0.000000   0.000000   0.000000   0.000001   0.000000
    16  H   -0.000000   0.000000  -0.000000  -0.000000   0.000000   0.000000
    17  C   -0.000056   0.000000  -0.000000   0.000000  -0.000019  -0.000000
    18  H    0.000029  -0.000002  -0.000000  -0.000102   0.000005   0.000006
    19  C   -0.000041   0.000000   0.000000  -0.000000   0.000003   0.000000
    20  H   -0.000000   0.000000   0.000000   0.000000   0.000000   0.000000
    21  H   -0.000012   0.000000   0.000000  -0.000001   0.000000   0.000000
    22  H    0.000000  -0.000000  -0.000000  -0.000000  -0.000000  -0.000000
    23  C    0.000487   0.000282   0.000668   0.000863   0.000357  -0.000248
    24  C    0.003752  -0.001255   0.000392   0.000128  -0.000014  -0.006215
    25  C    0.148086   0.000104   0.000009  -0.001143   0.000638  -0.005896
    26  C    0.000104  -0.074605   0.000330  -0.000094  -0.000011   0.000610
    27  H    0.000009   0.000330  -0.007197  -0.000012   0.000001  -0.000000
    28  C   -0.001143  -0.000094  -0.000012  -0.075511   0.000283   0.000314
    29  H    0.000638  -0.000011   0.000001   0.000283  -0.007132   0.000003
    30  C   -0.005896   0.000610  -0.000000   0.000314   0.000003   0.161410
    31  H   -0.000011   0.000226   0.000026   0.000005  -0.000000  -0.000345
    32  H   -0.000306   0.000005  -0.000000   0.000327   0.000020  -0.000304
    33  H    0.000019   0.000054   0.000002   0.000058   0.000002   0.000748
    34  O    0.000192   0.000001  -0.000047   0.000000   0.000001  -0.000001
    35  H    0.000003   0.000002  -0.000011  -0.000000  -0.000000   0.000000
              31         32         33         34         35
     1  C    0.000000   0.000000  -0.000000  -0.007187  -0.004793
     2  C   -0.000001  -0.000001  -0.000000  -0.063291  -0.011973
     3  O   -0.000000  -0.000000   0.000000   0.004259   0.007063
     4  C    0.000000  -0.000000   0.000000   0.001514   0.000839
     5  H    0.000000   0.000000  -0.000000  -0.000153  -0.000112
     6  H   -0.000002  -0.000000   0.000000   0.000065   0.000005
     7  H   -0.000001  -0.000000   0.000000   0.001710   0.000885
     8  C   -0.000000  -0.000001   0.000000   0.000198   0.002085
     9  H   -0.000000  -0.000000   0.000000  -0.000042   0.000008
    10  H   -0.000000  -0.000000   0.000000  -0.000793   0.001533
    11  H    0.000000   0.000000  -0.000000   0.002482  -0.000815
    12  C   -0.000000   0.000000   0.000000   0.000380   0.000391
    13  C   -0.000000  -0.000000   0.000000   0.000007   0.000023
    14  C   -0.000000  -0.000004   0.000000   0.000011   0.000007
    15  C    0.000000   0.000000  -0.000000  -0.000000  -0.000000
    16  H    0.000000   0.000000  -0.000000  -0.000001  -0.000001
    17  C    0.000000  -0.000000   0.000000  -0.000000  -0.000000
    18  H   -0.000000  -0.000001   0.000000   0.000001   0.000000
    19  C    0.000000   0.000000  -0.000000  -0.000000  -0.000000
    20  H    0.000000   0.000000  -0.000000  -0.000000  -0.000000
    21  H    0.000000   0.000000  -0.000000  -0.000000  -0.000000
    22  H   -0.000000  -0.000000   0.000000   0.000000   0.000000
    23  C    0.000027  -0.000003  -0.000028   0.003675   0.000766
    24  C   -0.000271  -0.000008   0.000014   0.001433   0.000062
    25  C   -0.000011  -0.000306   0.000019   0.000192   0.000003
    26  C    0.000226   0.000005   0.000054   0.000001   0.000002
    27  H    0.000026  -0.000000   0.000002  -0.000047  -0.000011
    28  C    0.000005   0.000327   0.000058   0.000000  -0.000000
    29  H   -0.000000   0.000020   0.000002   0.000001  -0.000000
    30  C   -0.000345  -0.000304   0.000748  -0.000001   0.000000
    31  H    0.003007  -0.000000   0.000029  -0.000000  -0.000000
    32  H   -0.000000   0.002883   0.000034   0.000000  -0.000000
    33  H    0.000029   0.000034  -0.007673   0.000000   0.000000
    34  O   -0.000000   0.000000   0.000000   0.125113  -0.001559
    35  H   -0.000000  -0.000000   0.000000  -0.001559   0.014400
 Mulliken charges and spin densities:
               1          2
     1  C    0.312585   0.047578
     2  C    0.211417   0.477072
     3  O   -0.586089   0.185017
     4  C   -0.350011   0.005775
     5  H    0.131341   0.006493
     6  H    0.122148  -0.001159
     7  H    0.121958   0.000604
     8  C   -0.339956  -0.017474
     9  H    0.131849   0.001000
    10  H    0.129696   0.005656
    11  H    0.132826   0.025007
    12  C    0.088161  -0.023397
    13  C   -0.117877   0.034413
    14  C   -0.124494   0.030834
    15  C   -0.101662  -0.016670
    16  H    0.105433  -0.001738
    17  C   -0.109103  -0.017566
    18  H    0.105544  -0.001231
    19  C   -0.093730   0.035955
    20  H    0.104029   0.000645
    21  H    0.105220   0.000620
    22  H    0.105665  -0.001590
    23  C    0.103918  -0.117735
    24  C   -0.115950   0.140478
    25  C   -0.119916   0.137005
    26  C   -0.101153  -0.074427
    27  H    0.113880  -0.006023
    28  C   -0.108218  -0.074871
    29  H    0.107132  -0.005834
    30  C   -0.093369   0.150197
    31  H    0.106873   0.002690
    32  H    0.107753   0.002642
    33  H    0.107758  -0.006740
    34  O   -0.534492   0.067968
    35  H    0.340837   0.008806
 Sum of Mulliken charges =  -0.00000   1.00000
 Mulliken charges and spin densities with hydrogens summed into heavy atoms:
               1          2
     1  C    0.312585   0.047578
     2  C    0.211417   0.477072
     3  O   -0.586089   0.185017
     4  C    0.025436   0.011713
     8  C    0.054414   0.014189
    12  C    0.088161  -0.023397
    13  C   -0.012444   0.032675
    14  C   -0.018950   0.029604
    15  C    0.002367  -0.016025
    17  C   -0.003883  -0.016946
    19  C    0.011936   0.034364
    23  C    0.103918  -0.117735
    24  C   -0.002070   0.134455
    25  C   -0.012783   0.131172
    26  C    0.005720  -0.071738
    28  C   -0.000465  -0.072229
    30  C    0.014389   0.143457
    34  O   -0.193655   0.076775
 Electronic spatial extent (au):  <R**2>=           4106.2989
 Charge=             -0.0000 electrons
 Dipole moment (field-independent basis, Debye):
    X=              0.8493    Y=              3.9264    Z=              0.4230  Tot=              4.0395
 Quadrupole moment (field-independent basis, Debye-Ang):
   XX=           -100.3934   YY=           -103.6379   ZZ=           -102.6336
   XY=             -1.8686   XZ=             -7.5801   YZ=             -0.9300
 Traceless Quadrupole moment (field-independent basis, Debye-Ang):
   XX=              1.8283   YY=             -1.4163   ZZ=             -0.4120
   XY=             -1.8686   XZ=             -7.5801   YZ=             -0.9300
 Octapole moment (field-independent basis, Debye-Ang**2):
  XXX=              2.4289  YYY=             23.3515  ZZZ=              1.4269  XYY=              8.9023
  XXY=             22.5588  XXZ=             -1.4085  XZZ=              0.0680  YZZ=            -12.4892
  YYZ=              4.9454  XYZ=              2.5760
 Hexadecapole moment (field-independent basis, Debye-Ang**3):
 XXXX=          -2944.6910 YYYY=          -1586.3312 ZZZZ=           -699.2079 XXXY=              3.4511
 XXXZ=           -145.3228 YYYX=            -25.4243 YYYZ=            -15.4343 ZZZX=              0.5577
 ZZZY=             -0.4918 XXYY=           -756.5386 XXZZ=           -656.6913 YYZZ=           -392.7342
 XXYZ=              2.2980 YYXZ=            -18.4527 ZZXY=              2.3149
 N-N= 1.320383290274D+03 E-N=-4.430975994140D+03  KE= 7.631925852904D+02
 Leave Link  601 at Fri May 24 19:34:52 2019, MaxMem=   104857600 cpu:               4.2 elap:               0.2
 (Enter /opt/software/gaussian/g16.b01/l9999.exe)
 Electronic transition elements 
                 1             2             3             4             5 
      1  -0.770332D+03 -0.770307D+03 -0.770301D+03 -0.770301D+03 -0.770294D+03
      2  -0.264913D-01 -0.498620D+00 -0.544006D+00 -0.726378D+00 -0.122515D+01
      3  -0.110607D+00  0.157819D+00  0.215480D+00  0.118439D+00 -0.233221D+00
      4  -0.762732D-01  0.338319D-01 -0.244639D-01 -0.362831D+00 -0.268541D+00
      5   0.379504D-03  0.499629D-01  0.608048D-01  0.760309D-01  0.138210D+00
      6   0.806037D-02 -0.150478D-01 -0.226367D-01 -0.106521D-01  0.249379D-01
      7   0.633959D-02 -0.316466D-02 -0.437969D-03  0.409217D-01  0.307375D-01
      8  -0.145926D+00 -0.193885D+00 -0.268010D+00 -0.912282D-01 -0.277464D+00
      9  -0.502933D+00  0.122646D-01 -0.633557D-01 -0.143317D+00  0.157721D+00
     10   0.296781D+00  0.472384D+00 -0.239146D+00  0.472753D+00  0.541702D+00
     11   0.476551D-01 -0.855475D-01 -0.829990D-01 -0.126289D+00  0.299701D+00
     12  -0.820949D-02  0.455049D-01  0.358350D-01  0.245210D-01 -0.791508D-01
     13  -0.270888D-01 -0.293313D-02  0.176903D-02  0.208330D-01 -0.552003D-01
     14   0.103250D-02  0.311725D+00  0.720308D-01  0.150475D+00  0.289256D+00
     15   0.156510D-02  0.197945D-01  0.610116D-02  0.274628D-01 -0.526167D-01
     16  -0.177867D-01  0.726899D-01 -0.332779D-01 -0.498916D-01 -0.301636D-01
                 6             7             8             9            10 
      1  -0.770288D+03 -0.770270D+03 -0.770265D+03 -0.770259D+03 -0.770256D+03
      2   0.715207D+00 -0.951033D-01  0.341627D+00  0.419063D+00  0.388014D+00
      3   0.414085D+00  0.148329D+00  0.529494D+00 -0.307324D+00  0.409824D+00
      4   0.116079D+00  0.942459D-01  0.126667D+00  0.206485D+00 -0.512496D-01
      5  -0.849365D-01  0.148659D-01 -0.477831D-01 -0.601014D-01 -0.582456D-01
      6  -0.485382D-01 -0.260739D-01 -0.751531D-01  0.450982D-01 -0.610765D-01
      7  -0.141253D-01 -0.137808D-01 -0.186614D-01 -0.267219D-01  0.965794D-02
      8   0.168886D+00 -0.213886D+00 -0.101770D-01 -0.107506D+00 -0.229292D-01
      9   0.260850D-01  0.242518D+00 -0.754103D-01 -0.269713D+00 -0.240691D+00
     10  -0.156001D+00 -0.484630D+00 -0.177779D+00 -0.157416D+00 -0.324040D+00
     11  -0.114499D+00  0.296772D+00 -0.312082D+00  0.242814D+00 -0.339611D+00
     12   0.425084D-01 -0.101067D+00  0.543017D-01 -0.507187D-01  0.364844D-01
     13   0.173025D-01 -0.560224D-01  0.583301D-01 -0.675164D-01  0.821652D-01
     14  -0.158121D+00 -0.871334D-01 -0.380952D-01  0.111088D+00 -0.177802D+00
     15  -0.120809D-03 -0.981769D-01  0.252449D-01 -0.196925D-01  0.424945D-01
     16   0.226079D-01 -0.438489D-01  0.319290D-01  0.926973D-01 -0.488908D-01
                11            12            13            14            15 
      1  -0.770256D+03 -0.770252D+03 -0.770248D+03 -0.770243D+03 -0.770241D+03
      2   0.215234D+00  0.119005D+00 -0.619617D+00 -0.291144D+00  0.361855D+00
      3   0.574913D-01  0.147218D+00 -0.641160D+00 -0.136383D+00 -0.180346D+00
      4  -0.106212D+00 -0.352967D-01  0.518544D-01  0.210991D-01  0.608654D-01
      5  -0.309607D-01 -0.178804D-01  0.993262D-01  0.475529D-01 -0.573073D-01
      6  -0.105656D-01 -0.222882D-01  0.103099D+00  0.227589D-01  0.307311D-01
      7   0.154809D-01  0.640580D-02 -0.945653D-02 -0.429774D-02 -0.113349D-01
      8   0.270894D+00  0.898478D-01 -0.101869D+00  0.342170D-01 -0.118756D+00
      9  -0.983872D-01  0.224038D+00  0.316124D+00 -0.212185D+00  0.356474D+00
     10   0.392239D+00 -0.152487D+00  0.391496D+00 -0.388136D-01  0.341229D-01
     11  -0.372443D-01 -0.185950D+00  0.599032D+00 -0.112977D+00  0.181357D+00
     12  -0.300389D-02  0.220840D-01 -0.104612D+00 -0.266566D-01  0.150750D+00
     13  -0.746727D-02  0.761795D-01 -0.142764D+00  0.695773D-01 -0.208617D+00
     14   0.804005D-01 -0.580184D-01  0.271219D+00  0.228220D-01 -0.191418D-02
     15   0.686426D-02  0.199323D-01 -0.688514D-01  0.377977D-01 -0.455250D-02
     16   0.567094D-01 -0.108600D-01  0.566383D-01 -0.171209D-01  0.392484D-01
                16            17            18 
      1  -0.770240D+03 -0.770233D+03 -0.770229D+03
      2  -0.634913D-01 -0.215692D+00  0.394433D-01
      3  -0.112454D+00 -0.154243D+00 -0.528075D-01
      4  -0.851692D-01 -0.618088D-01 -0.389161D-01
      5   0.919857D-02  0.378154D-01 -0.753891D-02
      6   0.179335D-01  0.279632D-01  0.100134D-01
      7   0.146629D-01  0.120191D-01  0.740855D-02
      8   0.882645D-01 -0.300583D-02 -0.315021D-01
      9  -0.102016D+00  0.199664D+00  0.124213D-01
     10  -0.704033D-01  0.117512D+00  0.120364D-01
     11   0.911722D-01  0.810993D-01 -0.183799D-01
     12  -0.598568D-01 -0.162291D-01  0.314319D-01
     13   0.256243D-01  0.851952D-02 -0.155196D-01
     14  -0.832165D-01  0.802319D-01  0.273674D-01
     15  -0.122312D-01 -0.112860D-01  0.175257D-01
     16  -0.471351D-01 -0.187402D-01  0.640235D-02
 1\1\GINC-GRA748\SP\UB3LYP TD-FC\6-31G(d,p)\C16H17O2(2)\RZK\24-May-2019
 \0\\#p td=(50-50,nstates=18) ub3lyp/6-31g(d,p) scrf=(iefpcm,solvent=ac
 etonitrile) guess=(mix,always) empiricaldispersion=gd3\\Title Card Req
 uired\\0,2\C,0,-0.80757,-1.369565,-0.796248\C,0,0.701514,-1.244545,0.7
 99696\O,0,-1.225654,-2.50256,-0.429672\C,0,0.128009,-1.323527,-1.99975
 9\H,0,-0.49815,-1.42431,-2.893863\H,0,0.70616,-0.405383,-2.089912\H,0,
 0.809781,-2.172875,-1.956385\C,0,-0.203796,-1.200468,2.006566\H,0,-0.7
 30387,-0.253597,2.111145\H,0,-0.944166,-1.999409,1.940289\H,0,0.408639
 ,-1.362111,2.902017\C,0,-1.634828,-0.151931,-0.501636\C,0,-2.830361,-0
 .3121,0.220282\C,0,-1.272542,1.137251,-0.925956\C,0,-3.635849,0.783237
 ,0.518426\H,0,-3.109251,-1.311272,0.535449\C,0,-2.079096,2.235452,-0.6
 2649\H,0,-0.353277,1.294448,-1.476692\C,0,-3.260922,2.063675,0.097655\
 H,0,-4.557323,0.641659,1.075554\H,0,-1.781603,3.226092,-0.957042\H,0,-
 3.887087,2.919873,0.330331\C,0,1.603256,-0.141886,0.501271\C,0,2.76455
 8,-0.357403,-0.278277\C,0,1.33481,1.17294,0.946282\C,0,3.61523,0.69517
 7,-0.594903\H,0,2.982758,-1.359948,-0.625332\C,0,2.188764,2.222111,0.6
 21861\H,0,0.449907,1.376983,1.536173\C,0,3.33229,1.991757,-0.149714\H,
 0,4.503095,0.507222,-1.1912\H,0,1.961253,3.224551,0.971447\H,0,3.99611
 ,2.813182,-0.401179\O,0,1.217989,-2.47985,0.529938\H,0,0.444073,-3.056
 89,0.352739\\Version=ES64L-G16RevB.01\State=2-A\HF=-770.4105379\S2=0.7
 64631\S2-1=0.\S2A=0.750174\RMSD=5.078e-09\PG=C01 [X(C16H17O2)]\\@


 IN THE UNIVERSE THE DIFFICULT THINGS ARE DONE AS IF THEY WERE EASY.

                                                          -- LAO-TSU
 Job cpu time:       0 days  8 hours 35 minutes 16.4 seconds.
 Elapsed time:       0 days  0 hours 16 minutes  8.5 seconds.
 File lengths (MBytes):  RWF=   1420 Int=      0 D2E=      0 Chk=     96 Scr=      1
 Normal termination of Gaussian 16 at Fri May 24 19:34:53 2019.
