 Entering Gaussian System, Link 0=g16
 Initial command:
 /opt/software/gaussian/g16.b01/l1.exe "/localscratch/rzk.15153366.0/Gau-11849.inp" -scrdir="/localscratch/rzk.15153366.0/"
 Entering Link 1 = /opt/software/gaussian/g16.b01/l1.exe PID=     11854.
  
 Copyright (c) 1988-2017, Gaussian, Inc.  All Rights Reserved.
  
 This is part of the Gaussian(R) 16 program.  It is based on
 the Gaussian(R) 09 system (copyright 2009, Gaussian, Inc.),
 the Gaussian(R) 03 system (copyright 2003, Gaussian, Inc.),
 the Gaussian(R) 98 system (copyright 1998, Gaussian, Inc.),
 the Gaussian(R) 94 system (copyright 1995, Gaussian, Inc.),
 the Gaussian 92(TM) system (copyright 1992, Gaussian, Inc.),
 the Gaussian 90(TM) system (copyright 1990, Gaussian, Inc.),
 the Gaussian 88(TM) system (copyright 1988, Gaussian, Inc.),
 the Gaussian 86(TM) system (copyright 1986, Carnegie Mellon
 University), and the Gaussian 82(TM) system (copyright 1983,
 Carnegie Mellon University). Gaussian is a federally registered
 trademark of Gaussian, Inc.
  
 This software contains proprietary and confidential information,
 including trade secrets, belonging to Gaussian, Inc.
  
 This software is provided under written license and may be
 used, copied, transmitted, or stored only in accord with that
 written license.
  
 The following legend is applicable only to US Government
 contracts under FAR:
  
                    RESTRICTED RIGHTS LEGEND
  
 Use, reproduction and disclosure by the US Government is
 subject to restrictions as set forth in subparagraphs (a)
 and (c) of the Commercial Computer Software - Restricted
 Rights clause in FAR 52.227-19.
  
 Gaussian, Inc.
 340 Quinnipiac St., Bldg. 40, Wallingford CT 06492
  
  
 ---------------------------------------------------------------
 Warning -- This program may not be used in any manner that
 competes with the business of Gaussian, Inc. or will provide
 assistance to any competitor of Gaussian, Inc.  The licensee
 of this program is prohibited from giving any competitor of
 Gaussian, Inc. access to this program.  By using this program,
 the user acknowledges that Gaussian, Inc. is engaged in the
 business of creating and licensing software in the field of
 computational chemistry and represents and warrants to the
 licensee that it is not a competitor of Gaussian, Inc. and that
 it will not use this program in any manner prohibited above.
 ---------------------------------------------------------------
  

 Cite this work as:
 Gaussian 16, Revision B.01,
 M. J. Frisch, G. W. Trucks, H. B. Schlegel, G. E. Scuseria, 
 M. A. Robb, J. R. Cheeseman, G. Scalmani, V. Barone, 
 G. A. Petersson, H. Nakatsuji, X. Li, M. Caricato, A. V. Marenich, 
 J. Bloino, B. G. Janesko, R. Gomperts, B. Mennucci, H. P. Hratchian, 
 J. V. Ortiz, A. F. Izmaylov, J. L. Sonnenberg, D. Williams-Young, 
 F. Ding, F. Lipparini, F. Egidi, J. Goings, B. Peng, A. Petrone, 
 T. Henderson, D. Ranasinghe, V. G. Zakrzewski, J. Gao, N. Rega, 
 G. Zheng, W. Liang, M. Hada, M. Ehara, K. Toyota, R. Fukuda, 
 J. Hasegawa, M. Ishida, T. Nakajima, Y. Honda, O. Kitao, H. Nakai, 
 T. Vreven, K. Throssell, J. A. Montgomery, Jr., J. E. Peralta, 
 F. Ogliaro, M. J. Bearpark, J. J. Heyd, E. N. Brothers, K. N. Kudin, 
 V. N. Staroverov, T. A. Keith, R. Kobayashi, J. Normand, 
 K. Raghavachari, A. P. Rendell, J. C. Burant, S. S. Iyengar, 
 J. Tomasi, M. Cossi, J. M. Millam, M. Klene, C. Adamo, R. Cammi, 
 J. W. Ochterski, R. L. Martin, K. Morokuma, O. Farkas, 
 J. B. Foresman, and D. J. Fox, Gaussian, Inc., Wallingford CT, 2016.
 
 ******************************************
 Gaussian 16:  ES64L-G16RevB.01 20-Dec-2017
                25-May-2019 
 ******************************************
 %NProcShared=32
 Will use up to   32 processors via shared memory.
 %chk=AH-A_3.chk
 ----------------------------------------------------------------------
 #p td=(50-50,nstates=36) ub3lyp/6-31g(d,p) scrf=(iefpcm,solvent=aceton
 itrile) guess=(mix,always) empiricaldispersion=gd3
 ----------------------------------------------------------------------
 1/38=1,172=1/1;
 2/12=2,17=6,18=5,40=1/2;
 3/5=1,6=6,7=101,11=2,25=1,30=1,70=2201,72=2,74=-5,116=2,124=31/1,2,3,8;
 4/13=-1/1;
 5/5=2,38=5,53=2/2;
 8/6=1,10=2,108=36/1;
 9/41=36,42=1,48=2,70=2/14;
 6/7=2,8=2,9=2,10=2/1;
 99/5=1,9=1/99;
 Leave Link    1 at Sat May 25 04:18:59 2019, MaxMem=           0 cpu:               2.2 elap:               0.1
 (Enter /opt/software/gaussian/g16.b01/l101.exe)
 -------------------
 Title Card Required
 -------------------
 Symbolic Z-matrix:
 Charge =  0 Multiplicity = 2
 C                    -1.31406  -1.44029  -0.98868 
 C                     0.79121  -1.30444   1.14425 
 O                    -1.72659  -2.41873  -0.35758 
 C                    -0.36774  -1.62638  -2.15279 
 H                    -0.77594  -1.16856  -3.05944 
 H                     0.59414  -1.14724  -1.94525 
 H                    -0.20775  -2.69224  -2.31517 
 C                    -0.22928  -1.17041   2.22659 
 H                    -0.53041  -0.13634   2.39206 
 H                    -1.1289   -1.7359    1.95683 
 H                     0.1466   -1.57914   3.17476 
 C                    -1.74504  -0.06218  -0.62071 
 C                    -2.78175   0.09483   0.31561 
 C                    -1.12596   1.08068  -1.15359 
 C                    -3.18855   1.36457   0.71296 
 H                    -3.254    -0.79384   0.71957 
 C                    -1.52824   2.35204  -0.74772 
 H                    -0.31332   0.98352  -1.86434 
 C                    -2.55959   2.49698   0.1835 
 H                    -3.99229   1.47585   1.43436 
 H                    -1.0329    3.22864  -1.15326 
 H                    -2.87231   3.48847   0.49708 
 C                     1.64665  -0.28384   0.65369 
 C                     2.61087  -0.56769  -0.36047 
 C                     1.56097   1.06327   1.11191 
 C                     3.41373   0.43527  -0.88571 
 H                     2.70694  -1.58592  -0.71878 
 C                     2.37149   2.0536    0.57609 
 H                     0.84639   1.32799   1.8828 
 C                     3.30435   1.75592  -0.42795 
 H                     4.13552   0.18898  -1.65978 
 H                     2.2762    3.0726    0.94082 
 H                     3.9337    2.53676  -0.84319 
 O                     0.99797  -2.56694   0.65919 
 H                     0.14287  -3.02976   0.62615 
 
 ITRead=  0  0  0  0  0  0  0  0  0  0  0  0  0  0  0  0  0  0  0  0
 ITRead=  0  0  0  0  0  0  0  0  0  0  0  0  0  0  0
 MicOpt= -1 -1 -1 -1 -1 -1 -1 -1 -1 -1 -1 -1 -1 -1 -1 -1 -1 -1 -1 -1
 MicOpt= -1 -1 -1 -1 -1 -1 -1 -1 -1 -1 -1 -1 -1 -1 -1
 NAtoms=     35 NQM=       35 NQMF=       0 NMMI=      0 NMMIF=      0
                NMic=       0 NMicF=      0.
                    Isotopes and Nuclear Properties:
 (Nuclear quadrupole moments (NQMom) in fm**2, nuclear magnetic moments (NMagM)
  in nuclear magnetons)

  Atom         1           2           3           4           5           6           7           8           9          10
 IAtWgt=          12          12          16          12           1           1           1          12           1           1
 AtmWgt=  12.0000000  12.0000000  15.9949146  12.0000000   1.0078250   1.0078250   1.0078250  12.0000000   1.0078250   1.0078250
 NucSpn=           0           0           0           0           1           1           1           0           1           1
 AtZEff=  -0.0000000  -0.0000000  -0.0000000  -0.0000000  -0.0000000  -0.0000000  -0.0000000  -0.0000000  -0.0000000  -0.0000000
 NQMom=    0.0000000   0.0000000   0.0000000   0.0000000   0.0000000   0.0000000   0.0000000   0.0000000   0.0000000   0.0000000
 NMagM=    0.0000000   0.0000000   0.0000000   0.0000000   2.7928460   2.7928460   2.7928460   0.0000000   2.7928460   2.7928460
 AtZNuc=   6.0000000   6.0000000   8.0000000   6.0000000   1.0000000   1.0000000   1.0000000   6.0000000   1.0000000   1.0000000

  Atom        11          12          13          14          15          16          17          18          19          20
 IAtWgt=           1          12          12          12          12           1          12           1          12           1
 AtmWgt=   1.0078250  12.0000000  12.0000000  12.0000000  12.0000000   1.0078250  12.0000000   1.0078250  12.0000000   1.0078250
 NucSpn=           1           0           0           0           0           1           0           1           0           1
 AtZEff=  -0.0000000  -0.0000000  -0.0000000  -0.0000000  -0.0000000  -0.0000000  -0.0000000  -0.0000000  -0.0000000  -0.0000000
 NQMom=    0.0000000   0.0000000   0.0000000   0.0000000   0.0000000   0.0000000   0.0000000   0.0000000   0.0000000   0.0000000
 NMagM=    2.7928460   0.0000000   0.0000000   0.0000000   0.0000000   2.7928460   0.0000000   2.7928460   0.0000000   2.7928460
 AtZNuc=   1.0000000   6.0000000   6.0000000   6.0000000   6.0000000   1.0000000   6.0000000   1.0000000   6.0000000   1.0000000

  Atom        21          22          23          24          25          26          27          28          29          30
 IAtWgt=           1           1          12          12          12          12           1          12           1          12
 AtmWgt=   1.0078250   1.0078250  12.0000000  12.0000000  12.0000000  12.0000000   1.0078250  12.0000000   1.0078250  12.0000000
 NucSpn=           1           1           0           0           0           0           1           0           1           0
 AtZEff=  -0.0000000  -0.0000000  -0.0000000  -0.0000000  -0.0000000  -0.0000000  -0.0000000  -0.0000000  -0.0000000  -0.0000000
 NQMom=    0.0000000   0.0000000   0.0000000   0.0000000   0.0000000   0.0000000   0.0000000   0.0000000   0.0000000   0.0000000
 NMagM=    2.7928460   2.7928460   0.0000000   0.0000000   0.0000000   0.0000000   2.7928460   0.0000000   2.7928460   0.0000000
 AtZNuc=   1.0000000   1.0000000   6.0000000   6.0000000   6.0000000   6.0000000   1.0000000   6.0000000   1.0000000   6.0000000

  Atom        31          32          33          34          35
 IAtWgt=           1           1           1          16           1
 AtmWgt=   1.0078250   1.0078250   1.0078250  15.9949146   1.0078250
 NucSpn=           1           1           1           0           1
 AtZEff=  -0.0000000  -0.0000000  -0.0000000  -0.0000000  -0.0000000
 NQMom=    0.0000000   0.0000000   0.0000000   0.0000000   0.0000000
 NMagM=    2.7928460   2.7928460   2.7928460   0.0000000   2.7928460
 AtZNuc=   1.0000000   1.0000000   1.0000000   8.0000000   1.0000000
 Leave Link  101 at Sat May 25 04:19:00 2019, MaxMem=   104857600 cpu:               3.9 elap:               0.2
 (Enter /opt/software/gaussian/g16.b01/l202.exe)
                          Input orientation:                          
 ---------------------------------------------------------------------
 Center     Atomic      Atomic             Coordinates (Angstroms)
 Number     Number       Type             X           Y           Z
 ---------------------------------------------------------------------
      1          6           0       -1.314061   -1.440292   -0.988682
      2          6           0        0.791210   -1.304437    1.144245
      3          8           0       -1.726587   -2.418732   -0.357584
      4          6           0       -0.367737   -1.626384   -2.152787
      5          1           0       -0.775938   -1.168555   -3.059439
      6          1           0        0.594141   -1.147238   -1.945248
      7          1           0       -0.207751   -2.692241   -2.315173
      8          6           0       -0.229279   -1.170405    2.226589
      9          1           0       -0.530412   -0.136335    2.392056
     10          1           0       -1.128896   -1.735897    1.956829
     11          1           0        0.146601   -1.579137    3.174755
     12          6           0       -1.745044   -0.062182   -0.620709
     13          6           0       -2.781746    0.094832    0.315608
     14          6           0       -1.125958    1.080677   -1.153586
     15          6           0       -3.188550    1.364567    0.712960
     16          1           0       -3.253996   -0.793839    0.719574
     17          6           0       -1.528237    2.352042   -0.747724
     18          1           0       -0.313323    0.983519   -1.864340
     19          6           0       -2.559586    2.496975    0.183504
     20          1           0       -3.992287    1.475851    1.434361
     21          1           0       -1.032905    3.228643   -1.153255
     22          1           0       -2.872311    3.488470    0.497082
     23          6           0        1.646646   -0.283841    0.653694
     24          6           0        2.610871   -0.567687   -0.360472
     25          6           0        1.560974    1.063267    1.111913
     26          6           0        3.413729    0.435266   -0.885713
     27          1           0        2.706937   -1.585923   -0.718782
     28          6           0        2.371491    2.053595    0.576094
     29          1           0        0.846394    1.327992    1.882795
     30          6           0        3.304346    1.755923   -0.427950
     31          1           0        4.135523    0.188977   -1.659781
     32          1           0        2.276202    3.072599    0.940823
     33          1           0        3.933703    2.536757   -0.843190
     34          8           0        0.997967   -2.566940    0.659193
     35          1           0        0.142873   -3.029760    0.626148
 ---------------------------------------------------------------------
                    Distance matrix (angstroms):
                    1          2          3          4          5
     1  C    0.000000
     2  C    3.000000   0.000000
     3  O    1.235236   3.136311   0.000000
     4  C    1.511721   3.509591   2.386848   0.000000
     5  H    2.156722   4.488360   3.125171   1.094648   0.000000
     6  H    2.154561   3.099760   3.085961   1.094469   1.766067
     7  H    2.133278   3.858950   2.492754   1.089961   1.788404
     8  C    3.404050   1.493597   3.237005   4.405227   5.314220
     9  H    3.707263   2.160597   3.768380   4.785635   5.553788
    10  H    2.966092   2.129145   2.485962   4.180945   5.060573
    11  H    4.414410   2.148011   4.085483   5.352521   6.315444
    12  C    1.490080   3.330292   2.371266   2.586690   2.847917
    13  C    2.492364   3.925635   2.807944   3.857849   4.124361
    14  C    2.533350   3.826791   3.638714   2.983535   2.968810
    15  C    3.778429   4.811245   4.194848   5.011515   5.144745
    16  H    2.664468   4.099359   2.476595   4.156210   4.534548
    17  C    3.806012   4.725380   4.790807   4.375938   4.278386
    18  H    2.764618   3.937806   3.980319   2.626358   2.504735
    19  C    4.292718   5.157673   5.015061   5.221546   5.209049
    20  H    4.641974   5.540398   4.848942   5.968991   6.126338
    21  H    4.680287   5.399511   5.745183   5.001280   4.799471
    22  H    5.378507   6.067303   6.077678   6.281435   6.223464
    23  C    3.577788   1.419164   4.118148   3.706278   4.520950
    24  C    4.069543   2.473487   4.715922   3.633915   4.372178
    25  C    4.352716   2.489900   5.009171   4.648915   5.276586
    26  C    5.087270   3.744984   5.903141   4.489472   4.985041
    27  H    4.032676   2.687027   4.525502   3.392879   4.217024
    28  C    5.314044   3.754526   6.137402   5.337828   5.788407
    29  H    4.536115   2.734627   5.067294   5.146686   5.769782
    30  C    5.644457   4.260687   6.537812   5.281975   5.667982
    31  H    5.727378   4.612730   6.546770   4.880363   5.284353
    32  H    6.081050   4.626557   6.918302   6.216211   6.580657
    33  H    6.586130   5.346020   7.538671   6.127738   6.389195
    34  O    3.054554   1.368188   2.911871   3.264510   4.350913
    35  H    2.693834   1.914551   2.199083   3.154785   4.229876
                    6          7          8          9         10
     6  H    0.000000
     7  H    1.779581   0.000000
     8  C    4.252385   4.789995   0.000000
     9  H    4.593338   5.366076   1.089661   0.000000
    10  H    4.305994   4.473601   1.096295   1.762443   0.000000
    11  H    5.157641   5.612831   1.098802   1.775568   1.770539
    12  C    2.898885   3.485927   3.410690   3.249243   3.134432
    13  C    4.248626   4.616734   3.430417   3.071413   2.962615
    14  C    2.923880   4.053060   4.158965   3.795704   4.196162
    15  C    5.261557   5.874729   4.180244   3.483930   3.924572
    16  H    4.694073   4.700343   3.400266   3.263038   2.633310
    17  C    4.264213   5.444756   4.789725   4.128667   4.917858
    18  H    2.317361   3.704809   4.624084   4.406598   4.760432
    19  C    5.268574   6.221132   4.801479   3.991187   4.807157
    20  H    6.271975   6.764223   4.668032   3.937118   4.334433
    21  H    4.735279   6.089975   5.605424   4.913736   5.859052
    22  H    6.282599   7.294508   5.628670   4.713240   5.697751
    23  C    2.933892   4.248923   2.603668   2.789846   3.392678
    24  C    2.629562   4.034751   3.888779   4.198825   4.551973
    25  C    3.894526   5.383043   3.071937   2.729781   3.972984
    26  C    3.402501   4.993974   5.053327   5.160111   5.781819
    27  H    2.482050   3.502543   4.179621   4.717949   4.679209
    28  C    4.445388   6.126571   4.458959   4.063810   5.340355
    29  H    4.565557   5.907320   2.741761   2.073450   3.646185
    30  C    4.251558   5.973491   5.300611   5.122347   6.126468
    31  H    3.795833   5.253093   6.000274   6.188228   6.670766
    32  H    5.381985   7.071415   5.092515   4.503378   5.979013
    33  H    5.093037   6.830871   6.363726   6.127035   7.192050
    34  O    2.993617   3.211901   2.431702   3.353595   2.626412
    35  H    3.218635   2.981313   2.481352   3.455959   2.249931
                   11         12         13         14         15
    11  H    0.000000
    12  C    4.503889   0.000000
    13  C    4.421777   1.405736   0.000000
    14  C    5.237228   1.404761   2.423232   0.000000
    15  C    5.084197   2.428579   1.391260   2.796225   0.000000
    16  H    4.267161   2.146769   1.084410   3.398689   2.159408
    17  C    5.800439   2.427265   2.792303   1.393887   2.421847
    18  H    5.671967   2.165625   3.411019   1.083968   3.880026
    19  C    5.734607   2.803484   2.416009   2.418470   1.399381
    20  H    5.430683   3.411592   2.150403   3.881942   1.085724
    21  H    6.575534   3.408853   3.877728   2.149981   3.406515
    22  H    6.477994   3.889385   3.399693   3.401753   2.158141
    23  C    3.206817   3.629986   4.457393   3.579875   5.108804
    24  C    4.426453   4.392864   5.475065   4.160532   6.206379
    25  C    3.638415   3.898509   4.520087   3.514597   4.775764
    26  C    5.587427   5.189472   6.320046   4.593155   6.856343
    27  H    4.659935   4.706542   5.832713   4.689445   6.746261
    28  C    4.989982   4.780660   5.519099   4.021257   5.604244
    29  H    3.257341   3.862081   4.140067   3.629180   4.201265
    30  C    5.837248   5.370196   6.352371   4.539835   6.603979
    31  H    6.512332   5.976941   7.194417   5.360461   7.788065
    32  H    5.582499   5.332509   5.902612   4.464190   5.729992
    33  H    6.886698   6.249172   7.238996   5.274152   7.383910
    34  O    2.833484   3.928877   4.635657   4.593728   5.743393
    35  H    2.932528   3.731676   4.291026   4.655435   5.515073
                   16         17         18         19         20
    16  H    0.000000
    17  C    3.876567   0.000000
    18  H    4.299206   2.143759   0.000000
    19  C    3.405735   1.397094   3.395572   0.000000
    20  H    2.491483   3.405987   4.965742   2.158696   0.000000
    21  H    4.961965   1.085467   2.462523   2.157085   4.304181
    22  H    4.305039   2.155817   4.289465   1.085905   2.486659
    23  C    4.927548   4.357951   3.433391   5.064228   5.958483
    24  C    5.967773   5.080059   3.635763   6.035038   7.141370
    25  C    5.175588   3.829153   3.518157   4.460547   5.577894
    26  C    6.967510   5.302462   3.892198   6.408928   7.830366
    27  H    6.182959   5.783174   4.127506   6.724615   7.673988
    28  C    6.306708   4.129097   3.782725   4.966511   6.447331
    29  H    4.761139   3.688791   3.937591   3.981810   4.861665
    30  C    7.129512   4.879700   3.968293   5.942115   7.535748
    31  H    7.825104   6.130977   4.523867   7.317721   8.791533
    32  H    6.751399   4.224234   4.351877   4.928460   6.487460
    33  H    8.074535   5.465896   4.636003   6.574077   8.314690
    34  O    4.607247   5.705919   4.549006   6.206907   6.468978
    35  H    4.067775   5.800338   4.745214   6.167983   6.168735
                   21         22         23         24         25
    21  H    0.000000
    22  H    2.484862   0.000000
    23  C    4.773112   5.888619   0.000000
    24  C    5.321441   6.874089   1.427876   0.000000
    25  C    4.067929   5.090544   1.425484   2.435203   0.000000
    26  C    5.258050   7.123796   2.451422   1.387939   2.795996
    27  H    6.111893   7.639097   2.168715   1.083706   3.418023
    28  C    3.995159   5.437147   2.448475   2.793846   1.387368
    29  H    4.044977   4.518477   2.179243   3.426255   1.083957
    30  C    4.637534   6.481396   2.842281   2.425824   2.426993
    31  H    6.017374   8.040426   3.430777   2.141333   3.882650
    32  H    3.919146   5.184307   3.427021   3.880342   2.139682
    33  H    5.024146   7.001708   3.927730   3.408882   3.409317
    34  O    6.402983   7.188416   2.373469   2.763727   3.701396
    35  H    6.611833   7.182988   3.130841   3.623015   4.358882
                   26         27         28         29         30
    26  C    0.000000
    27  H    2.147702   0.000000
    28  C    2.417050   3.877540   0.000000
    29  H    3.879794   4.326745   2.135389   0.000000
    30  C    1.402015   3.407259   1.402473   3.400617   0.000000
    31  H    1.086658   2.465078   3.404078   4.966444   2.159533
    32  H    3.403781   4.964036   1.086497   2.444446   2.159689
    33  H    2.165282   4.303129   2.165253   4.292270   1.085457
    34  O    4.151612   2.404535   4.821081   4.085422   5.018805
    35  H    4.999063   3.235417   5.550652   4.589565   5.831706
                   31         32         33         34         35
    31  H    0.000000
    32  H    4.305286   0.000000
    33  H    2.493917   2.493419   0.000000
    34  O    4.776712   5.789439   6.076465   0.000000
    35  H    5.614890   6.472163   6.893146   0.972872   0.000000
 Stoichiometry    C16H17O2(2)
 Framework group  C1[X(C16H17O2)]
 Deg. of freedom    99
 Full point group                 C1      NOp   1
 Largest Abelian subgroup         C1      NOp   1
 Largest concise Abelian subgroup C1      NOp   1
                         Standard orientation:                         
 ---------------------------------------------------------------------
 Center     Atomic      Atomic             Coordinates (Angstroms)
 Number     Number       Type             X           Y           Z
 ---------------------------------------------------------------------
      1          6           0       -1.314061   -1.440292   -0.988682
      2          6           0        0.791210   -1.304437    1.144245
      3          8           0       -1.726587   -2.418732   -0.357584
      4          6           0       -0.367737   -1.626384   -2.152787
      5          1           0       -0.775938   -1.168555   -3.059439
      6          1           0        0.594141   -1.147238   -1.945248
      7          1           0       -0.207751   -2.692241   -2.315173
      8          6           0       -0.229279   -1.170405    2.226589
      9          1           0       -0.530412   -0.136335    2.392056
     10          1           0       -1.128896   -1.735897    1.956829
     11          1           0        0.146601   -1.579137    3.174755
     12          6           0       -1.745044   -0.062182   -0.620709
     13          6           0       -2.781746    0.094832    0.315608
     14          6           0       -1.125958    1.080677   -1.153586
     15          6           0       -3.188550    1.364567    0.712960
     16          1           0       -3.253996   -0.793839    0.719574
     17          6           0       -1.528237    2.352042   -0.747724
     18          1           0       -0.313323    0.983519   -1.864340
     19          6           0       -2.559586    2.496975    0.183504
     20          1           0       -3.992287    1.475851    1.434361
     21          1           0       -1.032905    3.228643   -1.153255
     22          1           0       -2.872311    3.488470    0.497082
     23          6           0        1.646646   -0.283841    0.653694
     24          6           0        2.610871   -0.567687   -0.360472
     25          6           0        1.560974    1.063267    1.111913
     26          6           0        3.413729    0.435266   -0.885713
     27          1           0        2.706937   -1.585923   -0.718782
     28          6           0        2.371491    2.053595    0.576094
     29          1           0        0.846394    1.327992    1.882795
     30          6           0        3.304346    1.755923   -0.427950
     31          1           0        4.135523    0.188977   -1.659781
     32          1           0        2.276202    3.072599    0.940823
     33          1           0        3.933703    2.536757   -0.843190
     34          8           0        0.997967   -2.566940    0.659193
     35          1           0        0.142873   -3.029760    0.626148
 ---------------------------------------------------------------------
 Rotational constants (GHZ):           0.5443261           0.3849288           0.2999478
 Leave Link  202 at Sat May 25 04:19:00 2019, MaxMem=   104857600 cpu:               3.4 elap:               0.2
 (Enter /opt/software/gaussian/g16.b01/l301.exe)
 Standard basis: 6-31G(d,p) (6D, 7F)
 Ernie: Thresh=  0.10000D-02 Tol=  0.10000D-05 Strict=F.
 There are   355 symmetry adapted cartesian basis functions of A   symmetry.
 There are   355 symmetry adapted basis functions of A   symmetry.
   355 basis functions,   623 primitive gaussians,   355 cartesian basis functions
    65 alpha electrons       64 beta electrons
       nuclear repulsion energy      1300.6706017963 Hartrees.
 IExCor=  402 DFT=T Ex+Corr=B3LYP ExCW=0 ScaHFX=  0.200000
 ScaDFX=  0.800000  0.720000  1.000000  0.810000 ScalE2=  1.000000  1.000000
 IRadAn=      5 IRanWt=     -1 IRanGd=            0 ICorTp=0 IEmpDi=131
 NAtoms=   35 NActive=   35 NUniq=   35 SFac= 1.00D+00 NAtFMM=   60 NAOKFM=F Big=F
 Integral buffers will be    131072 words long.
 Raffenetti 2 integral format.
 Two-electron integral symmetry is turned on.
 R6Disp:  Grimme-D3 Dispersion energy=       -0.0404208145 Hartrees.
 Nuclear repulsion after empirical dispersion term =     1300.6301809818 Hartrees.
 ------------------------------------------------------------------------------
 Polarizable Continuum Model (PCM)
 =================================
 Model                : PCM.
 Atomic radii         : UFF (Universal Force Field).
 Polarization charges : Total charges.
 Charge compensation  : None.
 Solution method      : On-the-fly selection.
 Cavity type          : Scaled VdW (van der Waals Surface) (Alpha=1.100).
 Cavity algorithm     : GePol (No added spheres)
                        Default sphere list used, NSphG=   35.
                        Lebedev-Laikov grids with approx.  5.0 points / Ang**2.
                        Smoothing algorithm: York/Karplus (Gamma=1.0000).
                        Polarization charges: spherical gaussians, with
                                              point-specific exponents (IZeta= 3).
                        Self-potential: point-specific (ISelfS= 7).
                        Self-field    : sphere-specific E.n sum rule (ISelfD= 2).
 Solvent              : Acetonitrile, Eps=  35.688000 Eps(inf)=   1.806874
 ------------------------------------------------------------------------------
 GePol: Number of generator spheres                  =      35
 GePol: Total number of spheres                      =      35
 GePol: Number of exposed spheres                    =      35 (100.00%)
 GePol: Number of points                             =    2439
 GePol: Average weight of points                     =       0.13
 GePol: Minimum weight of points                     =   0.26D-09
 GePol: Maximum weight of points                     =    0.20577
 GePol: Number of points with low weight             =     152
 GePol: Fraction of low-weight points (<1% of avg)   =       6.23%
 GePol: Cavity surface area                          =    317.445 Ang**2
 GePol: Cavity volume                                =    361.842 Ang**3
 Leave Link  301 at Sat May 25 04:19:00 2019, MaxMem=   104857600 cpu:               3.3 elap:               0.2
 (Enter /opt/software/gaussian/g16.b01/l302.exe)
 NPDir=0 NMtPBC=     1 NCelOv=     1 NCel=       1 NClECP=     1 NCelD=      1
         NCelK=      1 NCelE2=     1 NClLst=     1 CellRange=     0.0.
 One-electron integrals computed using PRISM.
 One-electron integral symmetry used in STVInt
 PrsmSu:  requested number of processors reduced to:  28 ShMem   1 Linda.
 NBasis=   355 RedAO= T EigKep=  4.57D-04  NBF=   355
 NBsUse=   355 1.00D-06 EigRej= -1.00D+00 NBFU=   355
 Precomputing XC quadrature grid using
 IXCGrd= 4 IRadAn=           5 IRanWt=          -1 IRanGd=           0 AccXCQ= 0.00D+00.
 Generated NRdTot=       0 NPtTot=           0 NUsed=           0 NTot=          32
 NSgBfM=   354   354   354   354   354 MxSgAt=    35 MxSgA2=    35.
 Leave Link  302 at Sat May 25 04:19:01 2019, MaxMem=   104857600 cpu:              14.7 elap:               0.5
 (Enter /opt/software/gaussian/g16.b01/l303.exe)
 DipDrv:  MaxL=1.
 Leave Link  303 at Sat May 25 04:19:01 2019, MaxMem=   104857600 cpu:               3.5 elap:               0.2
 (Enter /opt/software/gaussian/g16.b01/l308.exe)
 Leave Link  308 at Sat May 25 04:19:01 2019, MaxMem=   104857600 cpu:               2.4 elap:               0.1
 (Enter /opt/software/gaussian/g16.b01/l401.exe)
 ExpMin= 1.61D-01 ExpMax= 5.48D+03 ExpMxC= 8.25D+02 IAcc=3 IRadAn=         5 AccDes= 0.00D+00
 Harris functional with IExCor=  402 and IRadAn=       5 diagonalized for initial guess.
 HarFok:  IExCor=  402 AccDes= 0.00D+00 IRadAn=         5 IDoV= 1 UseB2=F ITyADJ=14
 ICtDFT=  3500011 ScaDFX=  1.000000  1.000000  1.000000  1.000000
 FoFCou: FMM=F IPFlag=           0 FMFlag=      100000 FMFlg1=           0
         NFxFlg=           0 DoJE=T BraDBF=F KetDBF=T FulRan=T
         wScrn=  0.000000 ICntrl=       500 IOpCl=  0 I1Cent=   200000004 NGrid=           0
         NMat0=    1 NMatS0=      1 NMatT0=    0 NMatD0=    1 NMtDS0=    0 NMtDT0=    0
 Petite list used in FoFCou.
 Harris En= -770.480400446494    
 JPrj=0 DoOrth=F DoCkMO=T.
 Mixing orbitals, IMix= 1 IMixAn=  0 NRI=1 NE=   65 Coef=  7.07106781D-01  7.07106781D-01
 Mixing orbitals, IMix= 1 IMixAn=  0 NRI=1 NE=   64 Coef= -7.07106781D-01  7.07106781D-01
 Initial guess <Sx>= 0.0000 <Sy>= 0.0000 <Sz>= 0.5000 <S**2>= 1.0000 S= 0.6180
 Leave Link  401 at Sat May 25 04:19:02 2019, MaxMem=   104857600 cpu:              29.2 elap:               1.0
 (Enter /opt/software/gaussian/g16.b01/l502.exe)
 Integral symmetry usage will be decided dynamically.
 UHF open shell SCF:
 Using DIIS extrapolation, IDIIS=  1040.
 NGot=   104857600 LenX=   104590331 LenY=   104463865
 Requested convergence on RMS density matrix=1.00D-08 within 128 cycles.
 Requested convergence on MAX density matrix=1.00D-06.
 Requested convergence on             energy=1.00D-06.
 No special actions if energy rises.
 Fock matrices will be formed incrementally for  20 cycles.

 Cycle   1  Pass 1  IDiag  1:
 FoFJK:  IHMeth= 1 ICntrl=       0 DoSepK=F KAlg= 0 I1Cent=           0 FoldK=F
 IRaf= 830000000 NMat=       1 IRICut=       1 DoRegI=T DoRafI=F ISym2E= 0 IDoP0=0 IntGTp=1.
 FoFCou: FMM=F IPFlag=           0 FMFlag=      100000 FMFlg1=           0
         NFxFlg=           0 DoJE=F BraDBF=F KetDBF=F FulRan=T
         wScrn=  0.000000 ICntrl=         0 IOpCl=  1 I1Cent=           0 NGrid=           0
         NMat0=    1 NMatS0=      1 NMatT0=    0 NMatD0=    1 NMtDS0=    0 NMtDT0=    0
 Symmetry not used in FoFCou.
 Inv3:  Mode=1 IEnd=    17846163.
 Iteration    1 A*A^-1 deviation from unit magnitude is 3.44D-15 for   1738.
 Iteration    1 A*A^-1 deviation from orthogonality  is 1.85D-15 for   2184   1789.
 Iteration    1 A^-1*A deviation from unit magnitude is 3.44D-15 for   1738.
 Iteration    1 A^-1*A deviation from orthogonality  is 1.96D-15 for   1180    945.
 E= -769.867768689332    
 DIIS: error= 3.07D-02 at cycle   1 NSaved=   1.
 NSaved= 1 IEnMin= 1 EnMin= -769.867768689332     IErMin= 1 ErrMin= 3.07D-02
 ErrMax= 3.07D-02  0.00D+00 EMaxC= 1.00D-01 BMatC= 1.82D+00 BMatP= 1.82D+00
 IDIUse=3 WtCom= 6.93D-01 WtEn= 3.07D-01
 Coeff-Com:  0.100D+01
 Coeff-En:   0.100D+01
 Coeff:      0.100D+01
 Gap=     0.001 Goal=   None    Shift=    0.000
 Gap=    -0.010 Goal=   None    Shift=    0.000
 GapD=   -0.010 DampG=0.250 DampE=0.500 DampFc=0.2500 IDamp=-1.
 Damping current iteration by 2.50D-01
 RMSDP=4.62D-03 MaxDP=1.57D-01              OVMax= 6.29D-01

 Cycle   2  Pass 1  IDiag  1:
 RMSU=  1.13D-03    CP:  9.86D-01
 E= -770.052651818306     Delta-E=       -0.184883128974 Rises=F Damp=T
 DIIS: error= 1.68D-02 at cycle   2 NSaved=   2.
 NSaved= 2 IEnMin= 2 EnMin= -770.052651818306     IErMin= 2 ErrMin= 1.68D-02
 ErrMax= 1.68D-02  0.00D+00 EMaxC= 1.00D-01 BMatC= 4.84D-01 BMatP= 1.82D+00
 IDIUse=3 WtCom= 8.32D-01 WtEn= 1.68D-01
 Coeff-Com: -0.828D+00 0.183D+01
 Coeff-En:   0.000D+00 0.100D+01
 Coeff:     -0.688D+00 0.169D+01
 Gap=     0.056 Goal=   None    Shift=    0.000
 Gap=     0.152 Goal=   None    Shift=    0.000
 RMSDP=2.10D-03 MaxDP=4.96D-02 DE=-1.85D-01 OVMax= 2.34D-01

 Cycle   3  Pass 1  IDiag  1:
 RMSU=  1.49D-03    CP:  9.56D-01  2.23D+00
 E= -770.395454904102     Delta-E=       -0.342803085796 Rises=F Damp=F
 DIIS: error= 9.72D-03 at cycle   3 NSaved=   3.
 NSaved= 3 IEnMin= 3 EnMin= -770.395454904102     IErMin= 3 ErrMin= 9.72D-03
 ErrMax= 9.72D-03  0.00D+00 EMaxC= 1.00D-01 BMatC= 1.38D-01 BMatP= 4.84D-01
 IDIUse=3 WtCom= 9.03D-01 WtEn= 9.72D-02
 Coeff-Com: -0.433D+00 0.930D+00 0.503D+00
 Coeff-En:   0.000D+00 0.000D+00 0.100D+01
 Coeff:     -0.391D+00 0.840D+00 0.551D+00
 Gap=     0.082 Goal=   None    Shift=    0.000
 Gap=     0.155 Goal=   None    Shift=    0.000
 RMSDP=8.20D-04 MaxDP=3.94D-02 DE=-3.43D-01 OVMax= 9.21D-02

 Cycle   4  Pass 1  IDiag  1:
 RMSU=  7.09D-04    CP:  9.60D-01  2.27D+00  7.27D-01
 E= -770.421058678954     Delta-E=       -0.025603774852 Rises=F Damp=F
 DIIS: error= 5.33D-03 at cycle   4 NSaved=   4.
 NSaved= 4 IEnMin= 4 EnMin= -770.421058678954     IErMin= 4 ErrMin= 5.33D-03
 ErrMax= 5.33D-03  0.00D+00 EMaxC= 1.00D-01 BMatC= 3.95D-02 BMatP= 1.38D-01
 IDIUse=3 WtCom= 9.47D-01 WtEn= 5.33D-02
 Coeff-Com: -0.350D-01 0.982D-01 0.342D+00 0.595D+00
 Coeff-En:   0.000D+00 0.000D+00 0.222D+00 0.778D+00
 Coeff:     -0.331D-01 0.930D-01 0.335D+00 0.605D+00
 Gap=     0.089 Goal=   None    Shift=    0.000
 Gap=     0.164 Goal=   None    Shift=    0.000
 RMSDP=3.42D-04 MaxDP=1.89D-02 DE=-2.56D-02 OVMax= 2.95D-02

 Cycle   5  Pass 1  IDiag  1:
 RMSU=  2.00D-04    CP:  9.58D-01  2.25D+00  8.45D-01  7.00D-01
 E= -770.429945919016     Delta-E=       -0.008887240062 Rises=F Damp=F
 DIIS: error= 1.05D-03 at cycle   5 NSaved=   5.
 NSaved= 5 IEnMin= 5 EnMin= -770.429945919016     IErMin= 5 ErrMin= 1.05D-03
 ErrMax= 1.05D-03  0.00D+00 EMaxC= 1.00D-01 BMatC= 2.44D-03 BMatP= 3.95D-02
 IDIUse=3 WtCom= 9.90D-01 WtEn= 1.05D-02
 Coeff-Com:  0.762D-02-0.545D-02 0.135D+00 0.310D+00 0.552D+00
 Coeff-En:   0.000D+00 0.000D+00 0.000D+00 0.000D+00 0.100D+01
 Coeff:      0.754D-02-0.539D-02 0.134D+00 0.307D+00 0.557D+00
 Gap=     0.091 Goal=   None    Shift=    0.000
 Gap=     0.168 Goal=   None    Shift=    0.000
 RMSDP=9.70D-05 MaxDP=4.37D-03 DE=-8.89D-03 OVMax= 9.03D-03

 Cycle   6  Pass 1  IDiag  1:
 RMSU=  8.67D-05    CP:  9.58D-01  2.26D+00  8.52D-01  7.40D-01  8.45D-01
 E= -770.430592582951     Delta-E=       -0.000646663936 Rises=F Damp=F
 DIIS: error= 5.83D-04 at cycle   6 NSaved=   6.
 NSaved= 6 IEnMin= 6 EnMin= -770.430592582951     IErMin= 6 ErrMin= 5.83D-04
 ErrMax= 5.83D-04  0.00D+00 EMaxC= 1.00D-01 BMatC= 4.29D-04 BMatP= 2.44D-03
 IDIUse=3 WtCom= 9.94D-01 WtEn= 5.83D-03
 Coeff-Com:  0.101D-01-0.200D-01-0.770D-02 0.134D-01 0.275D+00 0.729D+00
 Coeff-En:   0.000D+00 0.000D+00 0.000D+00 0.000D+00 0.000D+00 0.100D+01
 Coeff:      0.101D-01-0.199D-01-0.765D-02 0.134D-01 0.273D+00 0.731D+00
 Gap=     0.094 Goal=   None    Shift=    0.000
 Gap=     0.168 Goal=   None    Shift=    0.000
 RMSDP=5.40D-05 MaxDP=3.73D-03 DE=-6.47D-04 OVMax= 9.17D-03

 Cycle   7  Pass 1  IDiag  1:
 RMSU=  3.99D-05    CP:  9.58D-01  2.26D+00  8.52D-01  7.61D-01  1.01D+00
                    CP:  9.43D-01
 E= -770.430809913437     Delta-E=       -0.000217330486 Rises=F Damp=F
 DIIS: error= 3.25D-04 at cycle   7 NSaved=   7.
 NSaved= 7 IEnMin= 7 EnMin= -770.430809913437     IErMin= 7 ErrMin= 3.25D-04
 ErrMax= 3.25D-04  0.00D+00 EMaxC= 1.00D-01 BMatC= 8.00D-05 BMatP= 4.29D-04
 IDIUse=3 WtCom= 9.97D-01 WtEn= 3.25D-03
 Coeff-Com: -0.110D-02 0.601D-03-0.307D-01-0.730D-01-0.837D-01 0.215D+00
 Coeff-Com:  0.973D+00
 Coeff-En:   0.000D+00 0.000D+00 0.000D+00 0.000D+00 0.000D+00 0.000D+00
 Coeff-En:   0.100D+01
 Coeff:     -0.110D-02 0.599D-03-0.306D-01-0.728D-01-0.834D-01 0.214D+00
 Coeff:      0.973D+00
 Gap=     0.094 Goal=   None    Shift=    0.000
 Gap=     0.169 Goal=   None    Shift=    0.000
 RMSDP=3.54D-05 MaxDP=1.91D-03 DE=-2.17D-04 OVMax= 7.01D-03

 Cycle   8  Pass 1  IDiag  1:
 RMSU=  2.11D-05    CP:  9.58D-01  2.26D+00  8.56D-01  7.65D-01  1.07D+00
                    CP:  1.20D+00  1.24D+00
 E= -770.430880125589     Delta-E=       -0.000070212152 Rises=F Damp=F
 DIIS: error= 1.89D-04 at cycle   8 NSaved=   8.
 NSaved= 8 IEnMin= 8 EnMin= -770.430880125589     IErMin= 8 ErrMin= 1.89D-04
 ErrMax= 1.89D-04  0.00D+00 EMaxC= 1.00D-01 BMatC= 3.19D-05 BMatP= 8.00D-05
 IDIUse=3 WtCom= 9.98D-01 WtEn= 1.89D-03
 Coeff-Com: -0.268D-02 0.459D-02-0.153D-01-0.447D-01-0.105D+00-0.309D-01
 Coeff-Com:  0.547D+00 0.646D+00
 Coeff-En:   0.000D+00 0.000D+00 0.000D+00 0.000D+00 0.000D+00 0.000D+00
 Coeff-En:   0.000D+00 0.100D+01
 Coeff:     -0.267D-02 0.459D-02-0.153D-01-0.446D-01-0.105D+00-0.308D-01
 Coeff:      0.546D+00 0.647D+00
 Gap=     0.094 Goal=   None    Shift=    0.000
 Gap=     0.169 Goal=   None    Shift=    0.000
 RMSDP=1.69D-05 MaxDP=1.03D-03 DE=-7.02D-05 OVMax= 3.29D-03

 Cycle   9  Pass 1  IDiag  1:
 RMSU=  1.14D-05    CP:  9.58D-01  2.26D+00  8.55D-01  7.67D-01  1.09D+00
                    CP:  1.26D+00  1.50D+00  1.03D+00
 E= -770.430899629355     Delta-E=       -0.000019503766 Rises=F Damp=F
 DIIS: error= 1.11D-04 at cycle   9 NSaved=   9.
 NSaved= 9 IEnMin= 9 EnMin= -770.430899629355     IErMin= 9 ErrMin= 1.11D-04
 ErrMax= 1.11D-04  0.00D+00 EMaxC= 1.00D-01 BMatC= 7.32D-06 BMatP= 3.19D-05
 IDIUse=3 WtCom= 9.99D-01 WtEn= 1.11D-03
 Coeff-Com: -0.853D-03 0.176D-02 0.158D-02-0.148D-03-0.238D-01-0.778D-01
 Coeff-Com: -0.160D-01 0.322D+00 0.793D+00
 Coeff-En:   0.000D+00 0.000D+00 0.000D+00 0.000D+00 0.000D+00 0.000D+00
 Coeff-En:   0.000D+00 0.000D+00 0.100D+01
 Coeff:     -0.852D-03 0.175D-02 0.158D-02-0.148D-03-0.238D-01-0.777D-01
 Coeff:     -0.159D-01 0.322D+00 0.794D+00
 Gap=     0.094 Goal=   None    Shift=    0.000
 Gap=     0.169 Goal=   None    Shift=    0.000
 RMSDP=1.05D-05 MaxDP=5.24D-04 DE=-1.95D-05 OVMax= 2.47D-03

 Cycle  10  Pass 1  IDiag  1:
 RMSU=  5.84D-06    CP:  9.58D-01  2.26D+00  8.55D-01  7.65D-01  1.10D+00
                    CP:  1.30D+00  1.61D+00  1.33D+00  1.13D+00
 E= -770.430905775046     Delta-E=       -0.000006145691 Rises=F Damp=F
 DIIS: error= 4.93D-05 at cycle  10 NSaved=  10.
 NSaved=10 IEnMin=10 EnMin= -770.430905775046     IErMin=10 ErrMin= 4.93D-05
 ErrMax= 4.93D-05  0.00D+00 EMaxC= 1.00D-01 BMatC= 2.20D-06 BMatP= 7.32D-06
 IDIUse=1 WtCom= 1.00D+00 WtEn= 0.00D+00
 Coeff-Com:  0.250D-03-0.300D-03 0.580D-02 0.144D-01 0.202D-01-0.371D-01
 Coeff-Com: -0.189D+00-0.172D-01 0.434D+00 0.769D+00
 Coeff:      0.250D-03-0.300D-03 0.580D-02 0.144D-01 0.202D-01-0.371D-01
 Coeff:     -0.189D+00-0.172D-01 0.434D+00 0.769D+00
 Gap=     0.094 Goal=   None    Shift=    0.000
 Gap=     0.169 Goal=   None    Shift=    0.000
 RMSDP=6.37D-06 MaxDP=3.29D-04 DE=-6.15D-06 OVMax= 1.18D-03

 Cycle  11  Pass 1  IDiag  1:
 RMSU=  2.58D-06    CP:  9.58D-01  2.26D+00  8.55D-01  7.65D-01  1.10D+00
                    CP:  1.31D+00  1.67D+00  1.50D+00  1.44D+00  1.04D+00
 E= -770.430907766830     Delta-E=       -0.000001991784 Rises=F Damp=F
 DIIS: error= 1.68D-05 at cycle  11 NSaved=  11.
 NSaved=11 IEnMin=11 EnMin= -770.430907766830     IErMin=11 ErrMin= 1.68D-05
 ErrMax= 1.68D-05  0.00D+00 EMaxC= 1.00D-01 BMatC= 3.04D-07 BMatP= 2.20D-06
 IDIUse=1 WtCom= 1.00D+00 WtEn= 0.00D+00
 Coeff-Com:  0.218D-03-0.412D-03 0.132D-02 0.433D-02 0.111D-01 0.410D-02
 Coeff-Com: -0.517D-01-0.717D-01-0.520D-01 0.229D+00 0.925D+00
 Coeff:      0.218D-03-0.412D-03 0.132D-02 0.433D-02 0.111D-01 0.410D-02
 Coeff:     -0.517D-01-0.717D-01-0.520D-01 0.229D+00 0.925D+00
 Gap=     0.094 Goal=   None    Shift=    0.000
 Gap=     0.169 Goal=   None    Shift=    0.000
 RMSDP=3.09D-06 MaxDP=1.31D-04 DE=-1.99D-06 OVMax= 5.79D-04

 Cycle  12  Pass 1  IDiag  1:
 RMSU=  1.30D-06    CP:  9.58D-01  2.26D+00  8.55D-01  7.64D-01  1.10D+00
                    CP:  1.32D+00  1.70D+00  1.57D+00  1.57D+00  1.29D+00
                    CP:  1.15D+00
 E= -770.430908101638     Delta-E=       -0.000000334808 Rises=F Damp=F
 DIIS: error= 9.32D-06 at cycle  12 NSaved=  12.
 NSaved=12 IEnMin=12 EnMin= -770.430908101638     IErMin=12 ErrMin= 9.32D-06
 ErrMax= 9.32D-06  0.00D+00 EMaxC= 1.00D-01 BMatC= 1.49D-07 BMatP= 3.04D-07
 IDIUse=1 WtCom= 1.00D+00 WtEn= 0.00D+00
 Coeff-Com:  0.848D-04-0.211D-03-0.547D-03-0.664D-03 0.207D-02 0.101D-01
 Coeff-Com:  0.120D-01-0.382D-01-0.128D+00-0.337D-01 0.549D+00 0.628D+00
 Coeff:      0.848D-04-0.211D-03-0.547D-03-0.664D-03 0.207D-02 0.101D-01
 Coeff:      0.120D-01-0.382D-01-0.128D+00-0.337D-01 0.549D+00 0.628D+00
 Gap=     0.094 Goal=   None    Shift=    0.000
 Gap=     0.169 Goal=   None    Shift=    0.000
 RMSDP=1.14D-06 MaxDP=4.92D-05 DE=-3.35D-07 OVMax= 1.95D-04

 Cycle  13  Pass 1  IDiag  1:
 RMSU=  5.31D-07    CP:  9.58D-01  2.26D+00  8.55D-01  7.64D-01  1.10D+00
                    CP:  1.32D+00  1.70D+00  1.59D+00  1.60D+00  1.35D+00
                    CP:  1.39D+00  8.70D-01
 E= -770.430908170834     Delta-E=       -0.000000069196 Rises=F Damp=F
 DIIS: error= 3.48D-06 at cycle  13 NSaved=  13.
 NSaved=13 IEnMin=13 EnMin= -770.430908170834     IErMin=13 ErrMin= 3.48D-06
 ErrMax= 3.48D-06  0.00D+00 EMaxC= 1.00D-01 BMatC= 1.69D-08 BMatP= 1.49D-07
 IDIUse=1 WtCom= 1.00D+00 WtEn= 0.00D+00
 Coeff-Com:  0.540D-06-0.172D-04-0.476D-03-0.109D-02-0.111D-02 0.363D-02
 Coeff-Com:  0.162D-01-0.454D-02-0.496D-01-0.586D-01 0.643D-01 0.275D+00
 Coeff-Com:  0.756D+00
 Coeff:      0.540D-06-0.172D-04-0.476D-03-0.109D-02-0.111D-02 0.363D-02
 Coeff:      0.162D-01-0.454D-02-0.496D-01-0.586D-01 0.643D-01 0.275D+00
 Coeff:      0.756D+00
 Gap=     0.094 Goal=   None    Shift=    0.000
 Gap=     0.169 Goal=   None    Shift=    0.000
 RMSDP=4.47D-07 MaxDP=1.99D-05 DE=-6.92D-08 OVMax= 7.13D-05

 Cycle  14  Pass 1  IDiag  1:
 RMSU=  2.44D-07    CP:  9.58D-01  2.26D+00  8.55D-01  7.64D-01  1.10D+00
                    CP:  1.32D+00  1.70D+00  1.59D+00  1.61D+00  1.38D+00
                    CP:  1.47D+00  1.03D+00  9.88D-01
 E= -770.430908180334     Delta-E=       -0.000000009500 Rises=F Damp=F
 DIIS: error= 1.46D-06 at cycle  14 NSaved=  14.
 NSaved=14 IEnMin=14 EnMin= -770.430908180334     IErMin=14 ErrMin= 1.46D-06
 ErrMax= 1.46D-06  0.00D+00 EMaxC= 1.00D-01 BMatC= 3.43D-09 BMatP= 1.69D-08
 IDIUse=1 WtCom= 1.00D+00 WtEn= 0.00D+00
 Coeff-Com: -0.106D-04 0.233D-04-0.119D-03-0.357D-03-0.805D-03 0.261D-04
 Coeff-Com:  0.539D-02 0.345D-02-0.182D-02-0.186D-01-0.597D-01 0.175D-01
 Coeff-Com:  0.345D+00 0.710D+00
 Coeff:     -0.106D-04 0.233D-04-0.119D-03-0.357D-03-0.805D-03 0.261D-04
 Coeff:      0.539D-02 0.345D-02-0.182D-02-0.186D-01-0.597D-01 0.175D-01
 Coeff:      0.345D+00 0.710D+00
 Gap=     0.094 Goal=   None    Shift=    0.000
 Gap=     0.169 Goal=   None    Shift=    0.000
 RMSDP=1.67D-07 MaxDP=7.74D-06 DE=-9.50D-09 OVMax= 2.42D-05

 Cycle  15  Pass 1  IDiag  1:
 RMSU=  1.02D-07    CP:  9.58D-01  2.26D+00  8.55D-01  7.64D-01  1.10D+00
                    CP:  1.32D+00  1.70D+00  1.59D+00  1.61D+00  1.38D+00
                    CP:  1.49D+00  1.07D+00  1.17D+00  1.04D+00
 E= -770.430908182211     Delta-E=       -0.000000001877 Rises=F Damp=F
 DIIS: error= 9.11D-07 at cycle  15 NSaved=  15.
 NSaved=15 IEnMin=15 EnMin= -770.430908182211     IErMin=15 ErrMin= 9.11D-07
 ErrMax= 9.11D-07  0.00D+00 EMaxC= 1.00D-01 BMatC= 7.43D-10 BMatP= 3.43D-09
 IDIUse=1 WtCom= 1.00D+00 WtEn= 0.00D+00
 Coeff-Com: -0.195D-05 0.971D-05 0.631D-04 0.115D-03-0.723D-04-0.810D-03
 Coeff-Com: -0.155D-02 0.211D-02 0.106D-01 0.638D-02-0.402D-01-0.546D-01
 Coeff-Com: -0.154D-01 0.312D+00 0.782D+00
 Coeff:     -0.195D-05 0.971D-05 0.631D-04 0.115D-03-0.723D-04-0.810D-03
 Coeff:     -0.155D-02 0.211D-02 0.106D-01 0.638D-02-0.402D-01-0.546D-01
 Coeff:     -0.154D-01 0.312D+00 0.782D+00
 Gap=     0.094 Goal=   None    Shift=    0.000
 Gap=     0.169 Goal=   None    Shift=    0.000
 RMSDP=9.30D-08 MaxDP=4.99D-06 DE=-1.88D-09 OVMax= 1.52D-05

 Cycle  16  Pass 1  IDiag  1:
 RMSU=  5.81D-08    CP:  9.58D-01  2.26D+00  8.55D-01  7.64D-01  1.10D+00
                    CP:  1.32D+00  1.70D+00  1.59D+00  1.61D+00  1.38D+00
                    CP:  1.49D+00  1.10D+00  1.23D+00  1.23D+00  1.12D+00
 E= -770.430908182816     Delta-E=       -0.000000000605 Rises=F Damp=F
 DIIS: error= 5.03D-07 at cycle  16 NSaved=  16.
 NSaved=16 IEnMin=16 EnMin= -770.430908182816     IErMin=16 ErrMin= 5.03D-07
 ErrMax= 5.03D-07  0.00D+00 EMaxC= 1.00D-01 BMatC= 1.63D-10 BMatP= 7.43D-10
 IDIUse=1 WtCom= 1.00D+00 WtEn= 0.00D+00
 Coeff-Com:  0.336D-05-0.546D-05 0.436D-04 0.114D-03 0.165D-03-0.203D-03
 Coeff-Com: -0.174D-02-0.221D-03 0.355D-02 0.632D-02 0.262D-02-0.196D-01
 Coeff-Com: -0.908D-01-0.864D-01 0.234D+00 0.952D+00
 Coeff:      0.336D-05-0.546D-05 0.436D-04 0.114D-03 0.165D-03-0.203D-03
 Coeff:     -0.174D-02-0.221D-03 0.355D-02 0.632D-02 0.262D-02-0.196D-01
 Coeff:     -0.908D-01-0.864D-01 0.234D+00 0.952D+00
 Gap=     0.094 Goal=   None    Shift=    0.000
 Gap=     0.169 Goal=   None    Shift=    0.000
 RMSDP=6.30D-08 MaxDP=3.46D-06 DE=-6.05D-10 OVMax= 1.14D-05

 Cycle  17  Pass 1  IDiag  1:
 RMSU=  3.12D-08    CP:  9.58D-01  2.26D+00  8.55D-01  7.64D-01  1.10D+00
                    CP:  1.32D+00  1.70D+00  1.59D+00  1.61D+00  1.38D+00
                    CP:  1.50D+00  1.11D+00  1.27D+00  1.34D+00  1.45D+00
                    CP:  1.34D+00
 E= -770.430908183059     Delta-E=       -0.000000000243 Rises=F Damp=F
 DIIS: error= 2.98D-07 at cycle  17 NSaved=  17.
 NSaved=17 IEnMin=17 EnMin= -770.430908183059     IErMin=17 ErrMin= 2.98D-07
 ErrMax= 2.98D-07  0.00D+00 EMaxC= 1.00D-01 BMatC= 5.95D-11 BMatP= 1.63D-10
 IDIUse=1 WtCom= 1.00D+00 WtEn= 0.00D+00
 Coeff-Com:  0.295D-06-0.168D-05 0.139D-05 0.123D-04 0.784D-04 0.134D-03
 Coeff-Com: -0.253D-03-0.593D-03-0.148D-02 0.490D-03 0.116D-01 0.751D-02
 Coeff-Com: -0.300D-01-0.111D+00-0.110D+00 0.371D+00 0.862D+00
 Coeff:      0.295D-06-0.168D-05 0.139D-05 0.123D-04 0.784D-04 0.134D-03
 Coeff:     -0.253D-03-0.593D-03-0.148D-02 0.490D-03 0.116D-01 0.751D-02
 Coeff:     -0.300D-01-0.111D+00-0.110D+00 0.371D+00 0.862D+00
 Gap=     0.094 Goal=   None    Shift=    0.000
 Gap=     0.169 Goal=   None    Shift=    0.000
 RMSDP=3.67D-08 MaxDP=2.03D-06 DE=-2.43D-10 OVMax= 7.07D-06

 Cycle  18  Pass 1  IDiag  1:
 RMSU=  1.69D-08    CP:  9.58D-01  2.26D+00  8.55D-01  7.64D-01  1.10D+00
                    CP:  1.32D+00  1.70D+00  1.59D+00  1.61D+00  1.38D+00
                    CP:  1.50D+00  1.11D+00  1.28D+00  1.39D+00  1.61D+00
                    CP:  1.73D+00  1.30D+00
 E= -770.430908183142     Delta-E=       -0.000000000084 Rises=F Damp=F
 DIIS: error= 1.66D-07 at cycle  18 NSaved=  18.
 NSaved=18 IEnMin=18 EnMin= -770.430908183142     IErMin=18 ErrMin= 1.66D-07
 ErrMax= 1.66D-07  0.00D+00 EMaxC= 1.00D-01 BMatC= 2.67D-11 BMatP= 5.95D-11
 IDIUse=1 WtCom= 1.00D+00 WtEn= 0.00D+00
 Coeff-Com: -0.983D-06 0.784D-06-0.187D-04-0.447D-04-0.225D-04 0.177D-03
 Coeff-Com:  0.639D-03-0.202D-03-0.241D-02-0.280D-02 0.513D-02 0.129D-01
 Coeff-Com:  0.245D-01-0.237D-01-0.176D+00-0.233D+00 0.526D+00 0.868D+00
 Coeff:     -0.983D-06 0.784D-06-0.187D-04-0.447D-04-0.225D-04 0.177D-03
 Coeff:      0.639D-03-0.202D-03-0.241D-02-0.280D-02 0.513D-02 0.129D-01
 Coeff:      0.245D-01-0.237D-01-0.176D+00-0.233D+00 0.526D+00 0.868D+00
 Gap=     0.094 Goal=   None    Shift=    0.000
 Gap=     0.169 Goal=   None    Shift=    0.000
 RMSDP=2.94D-08 MaxDP=1.61D-06 DE=-8.37D-11 OVMax= 5.37D-06

 Cycle  19  Pass 1  IDiag  1:
 RMSU=  8.23D-09    CP:  9.58D-01  2.26D+00  8.55D-01  7.64D-01  1.10D+00
                    CP:  1.32D+00  1.70D+00  1.59D+00  1.61D+00  1.38D+00
                    CP:  1.50D+00  1.11D+00  1.29D+00  1.42D+00  1.74D+00
                    CP:  2.02D+00  1.79D+00  1.03D+00
 E= -770.430908183164     Delta-E=       -0.000000000022 Rises=F Damp=F
 DIIS: error= 5.79D-08 at cycle  19 NSaved=  19.
 NSaved=19 IEnMin=19 EnMin= -770.430908183164     IErMin=19 ErrMin= 5.79D-08
 ErrMax= 5.79D-08  0.00D+00 EMaxC= 1.00D-01 BMatC= 4.24D-12 BMatP= 2.67D-11
 IDIUse=1 WtCom= 1.00D+00 WtEn= 0.00D+00
 Coeff-Com: -0.505D-06 0.618D-06-0.904D-05-0.242D-04-0.292D-04 0.454D-04
 Coeff-Com:  0.331D-03 0.682D-04-0.686D-03-0.134D-02-0.146D-03 0.376D-02
 Coeff-Com:  0.162D-01 0.114D-01-0.552D-01-0.175D+00 0.525D-01 0.384D+00
 Coeff-Com:  0.764D+00
 Coeff:     -0.505D-06 0.618D-06-0.904D-05-0.242D-04-0.292D-04 0.454D-04
 Coeff:      0.331D-03 0.682D-04-0.686D-03-0.134D-02-0.146D-03 0.376D-02
 Coeff:      0.162D-01 0.114D-01-0.552D-01-0.175D+00 0.525D-01 0.384D+00
 Coeff:      0.764D+00
 Gap=     0.094 Goal=   None    Shift=    0.000
 Gap=     0.169 Goal=   None    Shift=    0.000
 RMSDP=1.01D-08 MaxDP=5.26D-07 DE=-2.21D-11 OVMax= 1.91D-06

 Cycle  20  Pass 1  IDiag  1:
 RMSU=  3.48D-09    CP:  9.58D-01  2.26D+00  8.55D-01  7.64D-01  1.10D+00
                    CP:  1.32D+00  1.70D+00  1.59D+00  1.61D+00  1.38D+00
                    CP:  1.50D+00  1.11D+00  1.29D+00  1.43D+00  1.77D+00
                    CP:  2.12D+00  1.95D+00  1.24D+00  9.22D-01
 E= -770.430908183169     Delta-E=       -0.000000000005 Rises=F Damp=F
 DIIS: error= 2.18D-08 at cycle  20 NSaved=  20.
 NSaved=20 IEnMin=20 EnMin= -770.430908183169     IErMin=20 ErrMin= 2.18D-08
 ErrMax= 2.18D-08  0.00D+00 EMaxC= 1.00D-01 BMatC= 9.82D-13 BMatP= 4.24D-12
 IDIUse=1 WtCom= 1.00D+00 WtEn= 0.00D+00
 Coeff-Com: -0.218D-06 0.512D-06-0.734D-06-0.351D-05-0.109D-04-0.107D-04
 Coeff-Com:  0.474D-04 0.721D-04 0.997D-04-0.171D-03-0.107D-02-0.465D-03
 Coeff-Com:  0.423D-02 0.114D-01 0.620D-02-0.467D-01-0.772D-01 0.252D-01
 Coeff-Com:  0.386D+00 0.692D+00
 Coeff:     -0.218D-06 0.512D-06-0.734D-06-0.351D-05-0.109D-04-0.107D-04
 Coeff:      0.474D-04 0.721D-04 0.997D-04-0.171D-03-0.107D-02-0.465D-03
 Coeff:      0.423D-02 0.114D-01 0.620D-02-0.467D-01-0.772D-01 0.252D-01
 Coeff:      0.386D+00 0.692D+00
 Gap=     0.094 Goal=   None    Shift=    0.000
 Gap=     0.169 Goal=   None    Shift=    0.000
 RMSDP=3.11D-09 MaxDP=1.63D-07 DE=-4.77D-12 OVMax= 4.73D-07

 Error on total polarization charges =  0.00973
 SCF Done:  E(UB3LYP) =  -770.430908183     A.U. after   20 cycles
            NFock= 20  Conv=0.31D-08     -V/T= 2.0096
 <Sx>= 0.0000 <Sy>= 0.0000 <Sz>= 0.5000 <S**2>= 0.7735 S= 0.5117
 <L.S>=  0.00000000000    
 KE= 7.630974050355D+02 PE=-4.391393364825D+03 EE= 1.557234870624D+03
 Annihilation of the first spin contaminant:
 S**2 before annihilation     0.7735,   after     0.7504
 Leave Link  502 at Sat May 25 04:19:51 2019, MaxMem=   104857600 cpu:            1518.4 elap:              48.3
 (Enter /opt/software/gaussian/g16.b01/l801.exe)
 DoSCS=F DFT=T ScalE2(SS,OS)=  1.000000  1.000000
 ExpMin= 1.61D-01 ExpMax= 5.48D+03 ExpMxC= 8.25D+02 IAcc=3 IRadAn=         5 AccDes= 0.00D+00
 HarFok:  IExCor=  205 AccDes= 0.00D+00 IRadAn=         5 IDoV=-2 UseB2=F ITyADJ=14
 ICtDFT= 12500011 ScaDFX=  1.000000  1.000000  1.000000  1.000000
 Largest valence mixing into a core orbital is  5.79D-05
 Largest core mixing into a valence orbital is  1.22D-05
 Largest valence mixing into a core orbital is  6.36D-05
 Largest core mixing into a valence orbital is  1.22D-05
 Range of M.O.s used for correlation:    19   355
 NBasis=   355 NAE=    65 NBE=    64 NFC=    18 NFV=     0
 NROrb=    337 NOA=    47 NOB=    46 NVA=   290 NVB=   291

 **** Warning!!: The smallest alpha delta epsilon is  0.94330490D-01

 Leave Link  801 at Sat May 25 04:19:51 2019, MaxMem=   104857600 cpu:               4.1 elap:               0.2
 (Enter /opt/software/gaussian/g16.b01/l914.exe)
 UHF ground state
 Ignoring spin specification with unrestricted ground state.
 Two-electron integrals replicated using symmetry.
 MDV=   104857600 DFT=T DoStab=F Mixed=T DoRPA=T DoScal=F NonHer=T
 NEqPCM:  Using non-equilibrium solvation (IEInf=1, Eps=  35.6880, EpsInf=   1.8069)
 Inv3:  Mode=1 IEnd=    17846163.
 Iteration    1 A*A^-1 deviation from unit magnitude is 2.89D-15 for    123.
 Iteration    1 A*A^-1 deviation from orthogonality  is 1.55D-15 for   1790    188.
 Iteration    1 A^-1*A deviation from unit magnitude is 2.89D-15 for    319.
 Iteration    1 A^-1*A deviation from orthogonality  is 1.44D-15 for   2049    364.
 Making orbital integer symmetry assigments:
 Orbital symmetries:
 Alpha Orbitals:
       Occupied  (A) (A) (A) (A) (A) (A) (A) (A) (A) (A) (A) (A)
                 (A) (A) (A) (A) (A) (A) (A) (A) (A) (A) (A) (A)
                 (A) (A) (A) (A) (A) (A) (A) (A) (A) (A) (A) (A)
                 (A) (A) (A) (A) (A) (A) (A) (A) (A) (A) (A) (A)
                 (A) (A) (A) (A) (A) (A) (A) (A) (A) (A) (A) (A)
                 (A) (A) (A) (A) (A)
       Virtual   (A) (A) (A) (A) (A) (A) (A) (A) (A) (A) (A) (A)
                 (A) (A) (A) (A) (A) (A) (A) (A) (A) (A) (A) (A)
                 (A) (A) (A) (A) (A) (A) (A) (A) (A) (A) (A) (A)
                 (A) (A) (A) (A) (A) (A) (A) (A) (A) (A) (A) (A)
                 (A) (A) (A) (A) (A) (A) (A) (A) (A) (A) (A) (A)
                 (A) (A) (A) (A) (A) (A) (A) (A) (A) (A) (A) (A)
                 (A) (A) (A) (A) (A) (A) (A) (A) (A) (A) (A) (A)
                 (A) (A) (A) (A) (A) (A) (A) (A) (A) (A) (A) (A)
                 (A) (A) (A) (A) (A) (A) (A) (A) (A) (A) (A) (A)
                 (A) (A) (A) (A) (A) (A) (A) (A) (A) (A) (A) (A)
                 (A) (A) (A) (A) (A) (A) (A) (A) (A) (A) (A) (A)
                 (A) (A) (A) (A) (A) (A) (A) (A) (A) (A) (A) (A)
                 (A) (A) (A) (A) (A) (A) (A) (A) (A) (A) (A) (A)
                 (A) (A) (A) (A) (A) (A) (A) (A) (A) (A) (A) (A)
                 (A) (A) (A) (A) (A) (A) (A) (A) (A) (A) (A) (A)
                 (A) (A) (A) (A) (A) (A) (A) (A) (A) (A) (A) (A)
                 (A) (A) (A) (A) (A) (A) (A) (A) (A) (A) (A) (A)
                 (A) (A) (A) (A) (A) (A) (A) (A) (A) (A) (A) (A)
                 (A) (A) (A) (A) (A) (A) (A) (A) (A) (A) (A) (A)
                 (A) (A) (A) (A) (A) (A) (A) (A) (A) (A) (A) (A)
                 (A) (A) (A) (A) (A) (A) (A) (A) (A) (A) (A) (A)
                 (A) (A) (A) (A) (A) (A) (A) (A) (A) (A) (A) (A)
                 (A) (A) (A) (A) (A) (A) (A) (A) (A) (A) (A) (A)
                 (A) (A) (A) (A) (A) (A) (A) (A) (A) (A) (A) (A)
                 (A) (A)
 Beta  Orbitals:
       Occupied  (A) (A) (A) (A) (A) (A) (A) (A) (A) (A) (A) (A)
                 (A) (A) (A) (A) (A) (A) (A) (A) (A) (A) (A) (A)
                 (A) (A) (A) (A) (A) (A) (A) (A) (A) (A) (A) (A)
                 (A) (A) (A) (A) (A) (A) (A) (A) (A) (A) (A) (A)
                 (A) (A) (A) (A) (A) (A) (A) (A) (A) (A) (A) (A)
                 (A) (A) (A) (A)
       Virtual   (A) (A) (A) (A) (A) (A) (A) (A) (A) (A) (A) (A)
                 (A) (A) (A) (A) (A) (A) (A) (A) (A) (A) (A) (A)
                 (A) (A) (A) (A) (A) (A) (A) (A) (A) (A) (A) (A)
                 (A) (A) (A) (A) (A) (A) (A) (A) (A) (A) (A) (A)
                 (A) (A) (A) (A) (A) (A) (A) (A) (A) (A) (A) (A)
                 (A) (A) (A) (A) (A) (A) (A) (A) (A) (A) (A) (A)
                 (A) (A) (A) (A) (A) (A) (A) (A) (A) (A) (A) (A)
                 (A) (A) (A) (A) (A) (A) (A) (A) (A) (A) (A) (A)
                 (A) (A) (A) (A) (A) (A) (A) (A) (A) (A) (A) (A)
                 (A) (A) (A) (A) (A) (A) (A) (A) (A) (A) (A) (A)
                 (A) (A) (A) (A) (A) (A) (A) (A) (A) (A) (A) (A)
                 (A) (A) (A) (A) (A) (A) (A) (A) (A) (A) (A) (A)
                 (A) (A) (A) (A) (A) (A) (A) (A) (A) (A) (A) (A)
                 (A) (A) (A) (A) (A) (A) (A) (A) (A) (A) (A) (A)
                 (A) (A) (A) (A) (A) (A) (A) (A) (A) (A) (A) (A)
                 (A) (A) (A) (A) (A) (A) (A) (A) (A) (A) (A) (A)
                 (A) (A) (A) (A) (A) (A) (A) (A) (A) (A) (A) (A)
                 (A) (A) (A) (A) (A) (A) (A) (A) (A) (A) (A) (A)
                 (A) (A) (A) (A) (A) (A) (A) (A) (A) (A) (A) (A)
                 (A) (A) (A) (A) (A) (A) (A) (A) (A) (A) (A) (A)
                 (A) (A) (A) (A) (A) (A) (A) (A) (A) (A) (A) (A)
                 (A) (A) (A) (A) (A) (A) (A) (A) (A) (A) (A) (A)
                 (A) (A) (A) (A) (A) (A) (A) (A) (A) (A) (A) (A)
                 (A) (A) (A) (A) (A) (A) (A) (A) (A) (A) (A) (A)
                 (A) (A) (A)
   144 initial guesses have been made.
 Convergence on wavefunction:    0.001000000000000
 Davidson Disk Diagonalization:  ConvIn= 1.00D-03 SkipCon=T Conv= 1.00D-03.
 Max sub-space:  2160 roots to seek:   144 dimension of matrix:        27016
 Iteration     1 Dimension   144 NMult     0 NNew    144
 CISAX will form     3 AO SS matrices at one time.
 NMat=     3 NSing=     3 JSym2X= 0.
 FoFJK:  IHMeth= 1 ICntrl=       0 DoSepK=F KAlg= 0 I1Cent=           0 FoldK=F
 IRaf= 830000000 NMat=       6 IRICut=       1 DoRegI=T DoRafI=F ISym2E= 0 IDoP0=0 IntGTp=1.
 NMat=     3 NSing=     3 JSym2X= 0.
 NMat=     3 NSing=     3 JSym2X= 0.
 NMat=     3 NSing=     3 JSym2X= 0.
 NMat=     3 NSing=     3 JSym2X= 0.
 NMat=     3 NSing=     3 JSym2X= 0.
 NMat=     3 NSing=     3 JSym2X= 0.
 NMat=     3 NSing=     3 JSym2X= 0.
 NMat=     3 NSing=     3 JSym2X= 0.
 NMat=     3 NSing=     3 JSym2X= 0.
 NMat=     3 NSing=     3 JSym2X= 0.
 NMat=     3 NSing=     3 JSym2X= 0.
 NMat=     3 NSing=     3 JSym2X= 0.
 NMat=     3 NSing=     3 JSym2X= 0.
 NMat=     3 NSing=     3 JSym2X= 0.
 NMat=     3 NSing=     3 JSym2X= 0.
 NMat=     3 NSing=     3 JSym2X= 0.
 NMat=     3 NSing=     3 JSym2X= 0.
 NMat=     3 NSing=     3 JSym2X= 0.
 NMat=     3 NSing=     3 JSym2X= 0.
 NMat=     3 NSing=     3 JSym2X= 0.
 NMat=     3 NSing=     3 JSym2X= 0.
 NMat=     3 NSing=     3 JSym2X= 0.
 NMat=     3 NSing=     3 JSym2X= 0.
 NMat=     3 NSing=     3 JSym2X= 0.
 NMat=     3 NSing=     3 JSym2X= 0.
 NMat=     3 NSing=     3 JSym2X= 0.
 NMat=     3 NSing=     3 JSym2X= 0.
 NMat=     3 NSing=     3 JSym2X= 0.
 NMat=     3 NSing=     3 JSym2X= 0.
 NMat=     3 NSing=     3 JSym2X= 0.
 NMat=     3 NSing=     3 JSym2X= 0.
 NMat=     3 NSing=     3 JSym2X= 0.
 NMat=     3 NSing=     3 JSym2X= 0.
 NMat=     3 NSing=     3 JSym2X= 0.
 NMat=     3 NSing=     3 JSym2X= 0.
 NMat=     3 NSing=     3 JSym2X= 0.
 NMat=     3 NSing=     3 JSym2X= 0.
 NMat=     3 NSing=     3 JSym2X= 0.
 NMat=     3 NSing=     3 JSym2X= 0.
 NMat=     3 NSing=     3 JSym2X= 0.
 NMat=     3 NSing=     3 JSym2X= 0.
 NMat=     3 NSing=     3 JSym2X= 0.
 NMat=     3 NSing=     3 JSym2X= 0.
 NMat=     3 NSing=     3 JSym2X= 0.
 NMat=     3 NSing=     3 JSym2X= 0.
 NMat=     3 NSing=     3 JSym2X= 0.
 NMat=     3 NSing=     3 JSym2X= 0.
 New state      2 was old state      3
 New state      3 was old state      2
 New state      4 was old state      7
 New state      6 was old state      9
 New state      7 was old state      4
 New state      8 was old state     14
 New state      9 was old state     11
 New state     11 was old state      8
 New state     12 was old state     31
 New state     13 was old state     16
 New state     14 was old state     29
 New state     16 was old state     17
 New state     17 was old state     13
 New state     21 was old state     26
 New state     22 was old state     24
 New state     23 was old state     34
 New state     24 was old state     22
 New state     25 was old state      6
 New state     26 was old state     12
 New state     27 was old state     64
 New state     28 was old state     21
 New state     29 was old state     28
 New state     30 was old state     27
 New state     31 was old state     38
 New state     32 was old state     23
 New state     33 was old state     25
 New state     34 was old state     33
 New state     35 was old state     80
 New state     36 was old state     50
 Excitation Energies [eV] at current iteration:
 Root      1 :     2.016845227359664
 Root      2 :     3.084410879468093
 Root      3 :     3.295066740543387
 Root      4 :     3.386494799325948
 Root      5 :     3.505029307043523
 Root      6 :     3.620223778481983
 Root      7 :     3.844610744998481
 Root      8 :     3.860015718668909
 Root      9 :     3.987426344987639
 Root     10 :     4.381673188344689
 Root     11 :     4.512935490416118
 Root     12 :     4.575812787903973
 Root     13 :     4.584050448317361
 Root     14 :     4.619466957168320
 Root     15 :     4.660408634955818
 Root     16 :     4.686220418102408
 Root     17 :     4.744343827529975
 Root     18 :     4.775172524452267
 Root     19 :     4.972076733883103
 Root     20 :     5.067225017183985
 Root     21 :     5.203124034996622
 Root     22 :     5.467660651240344
 Root     23 :     5.543795820129906
 Root     24 :     5.552167563182040
 Root     25 :     5.592009322745409
 Root     26 :     5.717429016132387
 Root     27 :     5.838201494597133
 Root     28 :     5.877371769884825
 Root     29 :     5.898813703386328
 Root     30 :     5.931216039465933
 Root     31 :     6.049136901877119
 Root     32 :     6.069651248972161
 Root     33 :     6.090860032243868
 Root     34 :     6.184153210874683
 Root     35 :     6.205288094096342
 Root     36 :     6.234034877239223
 Root     37 :     6.341412928806580
 Root     38 :     6.348332006857177
 Root     39 :     6.355883411370406
 Root     40 :     6.405867090137891
 Root     41 :     6.414660028829200
 Root     42 :     6.438570683880317
 Root     43 :     6.444219208193687
 Root     44 :     6.473758432561857
 Root     45 :     6.495943997108577
 Root     46 :     6.527240121735971
 Root     47 :     6.545570599800217
 Root     48 :     6.550337528606595
 Root     49 :     6.566996304163199
 Root     50 :     6.581938199478808
 Root     51 :     6.597043613365087
 Root     52 :     6.633426017689744
 Root     53 :     6.650601110358132
 Root     54 :     6.700560916572384
 Root     55 :     6.741631631375925
 Root     56 :     6.747479011654624
 Root     57 :     6.809245100494750
 Root     58 :     6.824120519541490
 Root     59 :     6.923169412820479
 Root     60 :     6.956049307863905
 Root     61 :     6.989656070596050
 Root     62 :     6.996972398231952
 Root     63 :     7.000066978511694
 Root     64 :     7.084840207840770
 Root     65 :     7.098672285209931
 Root     66 :     7.127519256630660
 Root     67 :     7.173920260609927
 Root     68 :     7.178149714982672
 Root     69 :     7.195195699172302
 Root     70 :     7.222789022052998
 Root     71 :     7.266310081197000
 Root     72 :     7.288961565703102
 Root     73 :     7.303163157420932
 Root     74 :     7.334748584783759
 Root     75 :     7.364675134672424
 Root     76 :     7.372618520606022
 Root     77 :     7.445129708821689
 Root     78 :     7.473268811852591
 Root     79 :     7.499426587211798
 Root     80 :     7.548933077748584
 Root     81 :     7.557866826625597
 Root     82 :     7.592057383976414
 Root     83 :     7.617196248798600
 Root     84 :     7.629994881693327
 Root     85 :     7.640987087719378
 Root     86 :     7.660810000612101
 Root     87 :     7.682131154824084
 Root     88 :     7.697610364758890
 Root     89 :     7.706168634438869
 Root     90 :     7.727411865876712
 Root     91 :     7.749458200933167
 Root     92 :     7.801272888734509
 Root     93 :     7.810910656168377
 Root     94 :     7.832628441319796
 Root     95 :     7.850549177401101
 Root     96 :     7.855724272393854
 Root     97 :     7.897822825546133
 Root     98 :     7.914015805795676
 Root     99 :     7.949299487992810
 Root    100 :     7.980997274965068
 Root    101 :     8.004988306675410
 Root    102 :     8.030673464935827
 Root    103 :     8.081272608628863
 Root    104 :     8.108917914756532
 Root    105 :     8.122024461044717
 Root    106 :     8.130786505372686
 Root    107 :     8.162439894024008
 Root    108 :     8.194469049657027
 Root    109 :     8.215004782413367
 Root    110 :     8.221741511795202
 Root    111 :     8.240083095206922
 Root    112 :     8.271812677239163
 Root    113 :     8.294414737571499
 Root    114 :     8.326427403578696
 Root    115 :     8.328827081220711
 Root    116 :     8.334562668736044
 Root    117 :     8.353705422950831
 Root    118 :     8.359207260163725
 Root    119 :     8.390482283767760
 Root    120 :     8.401194631010410
 Root    121 :     8.408860766578933
 Root    122 :     8.426644894667739
 Root    123 :     8.433767789132107
 Root    124 :     8.465747171187163
 Root    125 :     8.469725340305354
 Root    126 :     8.505814252841093
 Root    127 :     8.532821059730171
 Root    128 :     8.538339265006996
 Root    129 :     8.557888318215083
 Root    130 :     8.611171847449624
 Root    131 :     8.615961312851775
 Root    132 :     8.639609897536818
 Root    133 :     8.694314528751688
 Root    134 :     8.731617351582052
 Root    135 :     8.743141863928811
 Root    136 :     8.776452803240266
 Root    137 :     8.785398318276680
 Root    138 :     8.798815644464621
 Root    139 :     8.802171431863265
 Root    140 :     8.852961463339701
 Root    141 :     9.016770748154059
 Root    142 :     9.057160806271042
 Root    143 :     9.395429188227777
 Root    144 :     9.542556595373350
 Iteration     2 Dimension   216 NMult   144 NNew     72
 CISAX will form     3 AO SS matrices at one time.
 NMat=     3 NSing=     3 JSym2X= 0.
 NMat=     3 NSing=     3 JSym2X= 0.
 NMat=     3 NSing=     3 JSym2X= 0.
 NMat=     3 NSing=     3 JSym2X= 0.
 NMat=     3 NSing=     3 JSym2X= 0.
 NMat=     3 NSing=     3 JSym2X= 0.
 NMat=     3 NSing=     3 JSym2X= 0.
 NMat=     3 NSing=     3 JSym2X= 0.
 NMat=     3 NSing=     3 JSym2X= 0.
 NMat=     3 NSing=     3 JSym2X= 0.
 NMat=     3 NSing=     3 JSym2X= 0.
 NMat=     3 NSing=     3 JSym2X= 0.
 NMat=     3 NSing=     3 JSym2X= 0.
 NMat=     3 NSing=     3 JSym2X= 0.
 NMat=     3 NSing=     3 JSym2X= 0.
 NMat=     3 NSing=     3 JSym2X= 0.
 NMat=     3 NSing=     3 JSym2X= 0.
 NMat=     3 NSing=     3 JSym2X= 0.
 NMat=     3 NSing=     3 JSym2X= 0.
 NMat=     3 NSing=     3 JSym2X= 0.
 NMat=     3 NSing=     3 JSym2X= 0.
 NMat=     3 NSing=     3 JSym2X= 0.
 NMat=     3 NSing=     3 JSym2X= 0.
 NMat=     3 NSing=     3 JSym2X= 0.
 Root      1 not converged, maximum delta is    0.026638870021891
 Root      2 not converged, maximum delta is    0.050313375047069
 Root      3 not converged, maximum delta is    0.319624145517574
 Root      4 not converged, maximum delta is    0.379587373058760
 Root      5 not converged, maximum delta is    0.314027237876516
 Root      6 not converged, maximum delta is    0.440421678748606
 Root      7 not converged, maximum delta is    0.188562235025193
 Root      8 not converged, maximum delta is    0.163504394898758
 Root      9 not converged, maximum delta is    0.253913153388316
 Root     10 not converged, maximum delta is    0.475358981718627
 New state     11 was old state     14
 Root     11 not converged, maximum delta is    0.425382676911458
 Root     12 not converged, maximum delta is    0.390654914450919
 New state     13 was old state     11
 Root     13 not converged, maximum delta is    0.283752603978077
 New state     14 was old state     13
 Root     14 not converged, maximum delta is    0.427007427536890
 Root     15 not converged, maximum delta is    0.306032444696299
 Root     16 not converged, maximum delta is    0.349769519659888
 Root     17 not converged, maximum delta is    0.195310321351464
 Root     18 not converged, maximum delta is    0.173533938408875
 Root     19 not converged, maximum delta is    0.361193863018417
 Root     20 not converged, maximum delta is    0.535908641650362
 New state     21 was old state     22
 Root     21 not converged, maximum delta is    0.443810663101526
 New state     22 was old state     21
 Root     22 not converged, maximum delta is    0.063219017724003
 New state     23 was old state     26
 Root     23 not converged, maximum delta is    0.308466627781864
 New state     24 was old state     23
 Root     24 not converged, maximum delta is    0.541219714253962
 New state     25 was old state     27
 Root     25 not converged, maximum delta is    0.332042514963210
 New state     26 was old state     24
 Root     26 not converged, maximum delta is    0.523843379383095
 New state     27 was old state     25
 Root     27 not converged, maximum delta is    0.356480777203724
 Root     28 not converged, maximum delta is    0.098208191007748
 Root     29 not converged, maximum delta is    0.096202269217124
 Root     30 not converged, maximum delta is    0.101415746855583
 Root     31 not converged, maximum delta is    0.133314134634422
 Root     32 not converged, maximum delta is    0.176787791731989
 New state     33 was old state     35
 Root     33 not converged, maximum delta is    0.284155814996132
 New state     34 was old state     33
 Root     34 not converged, maximum delta is    0.135048532914578
 New state     35 was old state     36
 Root     35 not converged, maximum delta is    0.416367522989888
 New state     36 was old state     34
 Root     36 not converged, maximum delta is    0.175950457375362
 Excitation Energies [eV] at current iteration:
 Root      1 :     1.904274000101768   Change is   -0.112571227257897
 Root      2 :     2.998386232186281   Change is   -0.086024647281812
 Root      3 :     3.261613444769834   Change is   -0.033453295773552
 Root      4 :     3.266949541224955   Change is   -0.119545258100993
 Root      5 :     3.364622887545527   Change is   -0.140406419497997
 Root      6 :     3.401013902341393   Change is   -0.219209876140591
 Root      7 :     3.748310289321193   Change is   -0.096300455677287
 Root      8 :     3.809897088917263   Change is   -0.050118629751647
 Root      9 :     3.888210913306239   Change is   -0.099215431681400
 Root     10 :     4.265352992980119   Change is   -0.116320195364570
 Root     11 :     4.360430527335915   Change is   -0.259036429832404
 Root     12 :     4.424137017302705   Change is   -0.151675770601268
 Root     13 :     4.441659522273357   Change is   -0.071275968142761
 Root     14 :     4.493820046230346   Change is   -0.090230402087016
 Root     15 :     4.602620202625219   Change is   -0.057788432330599
 Root     16 :     4.638031651928767   Change is   -0.048188766173642
 Root     17 :     4.703331159889414   Change is   -0.041012667640561
 Root     18 :     4.733353540243217   Change is   -0.041818984209050
 Root     19 :     4.910507693603067   Change is   -0.061569040280036
 Root     20 :     4.983948137813023   Change is   -0.083276879370962
 Root     21 :     5.085079905611157   Change is   -0.382580745629186
 Root     22 :     5.161716134985687   Change is   -0.041407900010936
 Root     23 :     5.300554685933554   Change is   -0.416874330198833
 Root     24 :     5.394727313049947   Change is   -0.149068507079958
 Root     25 :     5.417913814625154   Change is   -0.420287679971979
 Root     26 :     5.488476791566871   Change is   -0.063690771615169
 Root     27 :     5.527044199652551   Change is   -0.064965123092858
 Root     28 :     5.862794469896052   Change is   -0.014577299988773
 Root     29 :     5.878865953025440   Change is   -0.019947750360888
 Root     30 :     5.914724954083326   Change is   -0.016491085382607
 Root     31 :     5.943637862475327   Change is   -0.105499039401791
 Root     32 :     6.025860703169875   Change is   -0.043790545802286
 Root     33 :     6.063119063310307   Change is   -0.142169030786035
 Root     34 :     6.074374137479815   Change is   -0.016485894764054
 Root     35 :     6.169673848404527   Change is   -0.064361028834697
 Root     36 :     6.172051180986647   Change is   -0.012102029888036
 Iteration     3 Dimension   288 NMult   216 NNew     72
 CISAX will form     3 AO SS matrices at one time.
 NMat=     3 NSing=     3 JSym2X= 0.
 NMat=     3 NSing=     3 JSym2X= 0.
 NMat=     3 NSing=     3 JSym2X= 0.
 NMat=     3 NSing=     3 JSym2X= 0.
 NMat=     3 NSing=     3 JSym2X= 0.
 NMat=     3 NSing=     3 JSym2X= 0.
 NMat=     3 NSing=     3 JSym2X= 0.
 NMat=     3 NSing=     3 JSym2X= 0.
 NMat=     3 NSing=     3 JSym2X= 0.
 NMat=     3 NSing=     3 JSym2X= 0.
 NMat=     3 NSing=     3 JSym2X= 0.
 NMat=     3 NSing=     3 JSym2X= 0.
 NMat=     3 NSing=     3 JSym2X= 0.
 NMat=     3 NSing=     3 JSym2X= 0.
 NMat=     3 NSing=     3 JSym2X= 0.
 NMat=     3 NSing=     3 JSym2X= 0.
 NMat=     3 NSing=     3 JSym2X= 0.
 NMat=     3 NSing=     3 JSym2X= 0.
 NMat=     3 NSing=     3 JSym2X= 0.
 NMat=     3 NSing=     3 JSym2X= 0.
 NMat=     3 NSing=     3 JSym2X= 0.
 NMat=     3 NSing=     3 JSym2X= 0.
 NMat=     3 NSing=     3 JSym2X= 0.
 NMat=     3 NSing=     3 JSym2X= 0.
 Root      1 not converged, maximum delta is    0.003068309496638
 Root      2 not converged, maximum delta is    0.005051457793041
 Root      3 not converged, maximum delta is    0.053490331201428
 Root      4 not converged, maximum delta is    0.064132605213455
 Root      5 not converged, maximum delta is    0.014836461964370
 Root      6 not converged, maximum delta is    0.014862672970567
 Root      7 not converged, maximum delta is    0.007651800376006
 Root      8 not converged, maximum delta is    0.002629074132796
 Root      9 not converged, maximum delta is    0.013018070539973
 Root     10 not converged, maximum delta is    0.020156594304181
 Root     11 not converged, maximum delta is    0.011327868613517
 Root     12 not converged, maximum delta is    0.017768718319320
 Root     13 not converged, maximum delta is    0.023102992095948
 Root     14 not converged, maximum delta is    0.014800719535616
 Root     15 not converged, maximum delta is    0.014450536498304
 Root     16 not converged, maximum delta is    0.015592960164195
 Root     17 not converged, maximum delta is    0.008414793812050
 Root     18 not converged, maximum delta is    0.009018335916181
 Root     19 not converged, maximum delta is    0.031423599919591
 Root     20 not converged, maximum delta is    0.027800275291883
 Root     21 not converged, maximum delta is    0.027425837179884
 Root     22 not converged, maximum delta is    0.009076729517495
 Root     23 not converged, maximum delta is    0.012303757496122
 Root     24 not converged, maximum delta is    0.175655324361738
 Root     25 not converged, maximum delta is    0.309366219928478
 Root     26 not converged, maximum delta is    0.010718028740660
 Root     27 not converged, maximum delta is    0.010246719054379
 Root     28 not converged, maximum delta is    0.003759556570675
 Root     29 not converged, maximum delta is    0.003788034926756
 Root     30 not converged, maximum delta is    0.025149143116352
 Root     31 not converged, maximum delta is    0.023824574434087
 Root     32 not converged, maximum delta is    0.030572784539133
 Root     33 not converged, maximum delta is    0.084707736156599
 Root     34 not converged, maximum delta is    0.064401964439196
 Root     35 not converged, maximum delta is    0.124410025651251
 Root     36 not converged, maximum delta is    0.069945006352991
 Excitation Energies [eV] at current iteration:
 Root      1 :     1.900431173776854   Change is   -0.003842826324914
 Root      2 :     2.993301467293737   Change is   -0.005084764892543
 Root      3 :     3.258828299238215   Change is   -0.002785145531619
 Root      4 :     3.262974043542204   Change is   -0.003975497682751
 Root      5 :     3.360846965403413   Change is   -0.003775922142114
 Root      6 :     3.395696597738932   Change is   -0.005317304602460
 Root      7 :     3.744057372226552   Change is   -0.004252917094641
 Root      8 :     3.808306261576865   Change is   -0.001590827340398
 Root      9 :     3.884623419176679   Change is   -0.003587494129560
 Root     10 :     4.257745057493846   Change is   -0.007607935486273
 Root     11 :     4.355115152046761   Change is   -0.005315375289154
 Root     12 :     4.421179208684436   Change is   -0.002957808618269
 Root     13 :     4.437682732541368   Change is   -0.003976789731989
 Root     14 :     4.487557082319711   Change is   -0.006262963910635
 Root     15 :     4.600445166401529   Change is   -0.002175036223690
 Root     16 :     4.636050708272043   Change is   -0.001980943656723
 Root     17 :     4.702150505326354   Change is   -0.001180654563060
 Root     18 :     4.731577517825520   Change is   -0.001776022417697
 Root     19 :     4.903575826779218   Change is   -0.006931866823849
 Root     20 :     4.981076634448598   Change is   -0.002871503364425
 Root     21 :     5.074077123744846   Change is   -0.011002781866311
 Root     22 :     5.160127229989787   Change is   -0.001588904995899
 Root     23 :     5.290597661719145   Change is   -0.009957024214409
 Root     24 :     5.377502127808137   Change is   -0.017225185241811
 Root     25 :     5.396416174950456   Change is   -0.021497639674698
 Root     26 :     5.484585710321468   Change is   -0.003891081245403
 Root     27 :     5.521501375940748   Change is   -0.005542823711803
 Root     28 :     5.862155882689067   Change is   -0.000638587206985
 Root     29 :     5.878105011150068   Change is   -0.000760941875372
 Root     30 :     5.913535973001403   Change is   -0.001188981081924
 Root     31 :     5.935324344931876   Change is   -0.008313517543452
 Root     32 :     6.020341932715422   Change is   -0.005518770454453
 Root     33 :     6.052309866840858   Change is   -0.010809196469449
 Root     34 :     6.071500566194341   Change is   -0.002873571285474
 Root     35 :     6.165427669557597   Change is   -0.004246178846929
 Root     36 :     6.170761841247351   Change is   -0.001289339739296
 Iteration     4 Dimension   360 NMult   288 NNew     72
 CISAX will form     3 AO SS matrices at one time.
 NMat=     3 NSing=     3 JSym2X= 0.
 NMat=     3 NSing=     3 JSym2X= 0.
 NMat=     3 NSing=     3 JSym2X= 0.
 NMat=     3 NSing=     3 JSym2X= 0.
 NMat=     3 NSing=     3 JSym2X= 0.
 NMat=     3 NSing=     3 JSym2X= 0.
 NMat=     3 NSing=     3 JSym2X= 0.
 NMat=     3 NSing=     3 JSym2X= 0.
 NMat=     3 NSing=     3 JSym2X= 0.
 NMat=     3 NSing=     3 JSym2X= 0.
 NMat=     3 NSing=     3 JSym2X= 0.
 NMat=     3 NSing=     3 JSym2X= 0.
 NMat=     3 NSing=     3 JSym2X= 0.
 NMat=     3 NSing=     3 JSym2X= 0.
 NMat=     3 NSing=     3 JSym2X= 0.
 NMat=     3 NSing=     3 JSym2X= 0.
 NMat=     3 NSing=     3 JSym2X= 0.
 NMat=     3 NSing=     3 JSym2X= 0.
 NMat=     3 NSing=     3 JSym2X= 0.
[...]
     7  H    0.000001   0.000000  -0.000000   0.000000  -0.000000  -0.000000
     8  C    0.000390   0.000011  -0.000018  -0.000017   0.000067  -0.000001
     9  H    0.000226   0.000001   0.000000   0.000012   0.000031  -0.000001
    10  H    0.000165   0.000000   0.000001   0.000000  -0.000008  -0.000000
    11  H    0.000415  -0.000001  -0.000000   0.000003   0.000007  -0.000001
    12  C   -0.000690  -0.000001  -0.000000  -0.000013  -0.000001   0.000014
    13  C    0.000168  -0.000000   0.000000   0.000001  -0.000002  -0.000000
    14  C    0.001920   0.000027   0.000001   0.000056   0.000005  -0.000116
    15  C   -0.000000   0.000000  -0.000000   0.000000  -0.000000   0.000000
    16  H    0.000001  -0.000000   0.000000   0.000000   0.000000  -0.000000
    17  C    0.000170   0.000000   0.000000  -0.000010  -0.000004  -0.000014
    18  H    0.000067  -0.000058   0.000000  -0.000025   0.000000  -0.000012
    19  C   -0.000198  -0.000000  -0.000000  -0.000004   0.000003   0.000002
    20  H   -0.000000   0.000000  -0.000000  -0.000000   0.000000   0.000000
    21  H   -0.000006   0.000000  -0.000000  -0.000022   0.000000   0.000002
    22  H    0.000001  -0.000000   0.000000   0.000000  -0.000000  -0.000000
    23  C   -0.016835   0.000359   0.001036   0.000558   0.000619   0.001470
    24  C    0.007582   0.003477   0.000664   0.001063  -0.000013  -0.011533
    25  C    0.243809   0.000755   0.000026   0.007122   0.001121  -0.011027
    26  C    0.000755  -0.120294   0.000508  -0.000180  -0.000016  -0.003403
    27  H    0.000026   0.000508  -0.011956  -0.000017   0.000002   0.000007
    28  C    0.007122  -0.000180  -0.000017  -0.118160   0.000322  -0.007841
    29  H    0.001121  -0.000016   0.000002   0.000322  -0.011649   0.000018
    30  C   -0.011027  -0.003403   0.000007  -0.007841   0.000018   0.282131
    31  H   -0.000004   0.000471   0.000044  -0.000000  -0.000000  -0.000558
    32  H   -0.000522  -0.000002  -0.000000   0.000520   0.000035  -0.000514
    33  H    0.000008   0.000099   0.000003   0.000104   0.000003   0.001464
    34  O    0.000327  -0.000000   0.000116   0.000002  -0.000000  -0.000004
    35  H    0.000034   0.000001   0.000009  -0.000000   0.000000  -0.000000
              31         32         33         34         35
     1  C   -0.000000  -0.000000  -0.000000  -0.002644  -0.001268
     2  C   -0.000003  -0.000003   0.000000  -0.079853  -0.009415
     3  O    0.000000   0.000000   0.000000   0.001252   0.001761
     4  C    0.000000  -0.000000  -0.000000  -0.000186   0.000009
     5  H    0.000000  -0.000000  -0.000000  -0.000008   0.000001
     6  H   -0.000001   0.000000   0.000000   0.000885   0.000222
     7  H    0.000000   0.000000   0.000000   0.000066   0.000053
     8  C    0.000000   0.000000  -0.000000   0.000758   0.000528
     9  H   -0.000000   0.000000   0.000000  -0.000002   0.000090
    10  H    0.000000   0.000000   0.000000  -0.000280   0.003117
    11  H   -0.000000  -0.000000  -0.000000   0.002606  -0.001279
    12  C   -0.000000  -0.000000  -0.000000  -0.000038  -0.000016
    13  C    0.000000   0.000000   0.000000   0.000015   0.000027
    14  C    0.000000   0.000000   0.000000   0.000035   0.000015
    15  C    0.000000   0.000000  -0.000000   0.000000  -0.000000
    16  H    0.000000   0.000000   0.000000   0.000001   0.000003
    17  C    0.000000  -0.000000   0.000000   0.000000   0.000000
    18  H   -0.000000  -0.000000   0.000000   0.000003   0.000000
    19  C   -0.000000  -0.000000  -0.000000  -0.000000  -0.000000
    20  H   -0.000000  -0.000000  -0.000000  -0.000000  -0.000000
    21  H   -0.000000   0.000000  -0.000000  -0.000000  -0.000000
    22  H    0.000000   0.000000   0.000000   0.000000   0.000000
    23  C   -0.000000  -0.000016  -0.000034  -0.001564  -0.000266
    24  C   -0.000515  -0.000007   0.000012   0.002378   0.000129
    25  C   -0.000004  -0.000522   0.000008   0.000327   0.000034
    26  C    0.000471  -0.000002   0.000099  -0.000000   0.000001
    27  H    0.000044  -0.000000   0.000003   0.000116   0.000009
    28  C   -0.000000   0.000520   0.000104   0.000002  -0.000000
    29  H   -0.000000   0.000035   0.000003  -0.000000   0.000000
    30  C   -0.000558  -0.000514   0.001464  -0.000004  -0.000000
    31  H    0.004724  -0.000000   0.000073   0.000000   0.000000
    32  H   -0.000000   0.004582   0.000075   0.000000   0.000000
    33  H    0.000073   0.000075  -0.013416  -0.000000   0.000000
    34  O    0.000000   0.000000  -0.000000   0.145950  -0.001071
    35  H    0.000000   0.000000   0.000000  -0.001071   0.014467
 Mulliken charges and spin densities:
               1          2
     1  C    0.394566   0.015935
     2  C    0.242693   0.593442
     3  O   -0.535000   0.011894
     4  C   -0.396628  -0.000983
     5  H    0.141096  -0.000122
     6  H    0.150071   0.002025
     7  H    0.127681   0.000039
     8  C   -0.375820  -0.050291
     9  H    0.130771   0.002810
    10  H    0.129708   0.019407
    11  H    0.132941   0.034159
    12  C    0.059723  -0.008366
    13  C   -0.111404   0.017668
    14  C   -0.112384   0.012594
    15  C   -0.101638  -0.008664
    16  H    0.111617  -0.000817
    17  C   -0.104662  -0.008619
    18  H    0.111276  -0.000555
    19  C   -0.089005   0.019288
    20  H    0.109023   0.000300
    21  H    0.109636   0.000308
    22  H    0.110946  -0.000873
    23  C    0.098091  -0.159931
    24  C   -0.143848   0.224092
    25  C   -0.136968   0.216753
    26  C   -0.101850  -0.118388
    27  H    0.103078  -0.009880
    28  C   -0.108747  -0.116705
    29  H    0.093687  -0.009488
    30  C   -0.111583   0.250304
    31  H    0.096619   0.004229
    32  H    0.096815   0.004146
    33  H    0.094573  -0.011607
    34  O   -0.554472   0.068744
    35  H    0.339399   0.007154
 Sum of Mulliken charges =  -0.00000   1.00000
 Mulliken charges and spin densities with hydrogens summed into heavy atoms:
               1          2
     1  C    0.394566   0.015935
     2  C    0.242693   0.593442
     3  O   -0.535000   0.011894
     4  C    0.022219   0.000959
     8  C    0.017600   0.006085
    12  C    0.059723  -0.008366
    13  C    0.000213   0.016850
    14  C   -0.001108   0.012039
    15  C    0.007385  -0.008364
    17  C    0.004974  -0.008311
    19  C    0.021941   0.018414
    23  C    0.098091  -0.159931
    24  C   -0.040770   0.214212
    25  C   -0.043282   0.207265
    26  C   -0.005231  -0.114159
    28  C   -0.011932  -0.112559
    30  C   -0.017010   0.238697
    34  O   -0.215072   0.075898
 Electronic spatial extent (au):  <R**2>=           4106.7491
 Charge=              0.0000 electrons
 Dipole moment (field-independent basis, Debye):
    X=             -1.1732    Y=              3.0347    Z=             -0.3368  Tot=              3.2710
 Quadrupole moment (field-independent basis, Debye-Ang):
   XX=           -107.5771   YY=           -102.2256   ZZ=            -98.3652
   XY=             -2.8697   XZ=             -7.5937   YZ=              0.8104
 Traceless Quadrupole moment (field-independent basis, Debye-Ang):
   XX=             -4.8545   YY=              0.4971   ZZ=              4.3574
   XY=             -2.8697   XZ=             -7.5937   YZ=              0.8104
 Octapole moment (field-independent basis, Debye-Ang**2):
  XXX=            -15.2913  YYY=             19.3347  ZZZ=             -1.0641  XYY=              0.9305
  XXY=             17.9283  XXZ=             -2.1217  XZZ=             -5.1362  YZZ=            -13.8996
  YYZ=              4.0097  XYZ=             -2.4583
 Hexadecapole moment (field-independent basis, Debye-Ang**3):
 XXXX=          -2827.0545 YYYY=          -1669.1934 ZZZZ=           -875.4009 XXXY=             -9.8261
 XXXZ=           -136.6802 YYYX=            -26.8565 YYYZ=             -5.5178 ZZZX=             -4.5557
 ZZZY=             -0.9607 XXYY=           -760.9423 XXZZ=           -616.1350 YYZZ=           -427.8690
 XXYZ=             14.1933 YYXZ=            -28.0068 ZZXY=              5.2220
 N-N= 1.300630180982D+03 E-N=-4.391393366288D+03  KE= 7.630974050355D+02
 Leave Link  601 at Sat May 25 04:46:20 2019, MaxMem=   104857600 cpu:               4.1 elap:               0.2
 (Enter /opt/software/gaussian/g16.b01/l9999.exe)
 Electronic transition elements 
                 1             2             3             4             5 
      1  -0.770361D+03 -0.770321D+03 -0.770311D+03 -0.770311D+03 -0.770307D+03
      2  -0.114062D+01 -0.611813D-01 -0.283266D-01  0.146601D+00  0.997595D-01
      3   0.410743D-01  0.106454D+00 -0.459716D-01 -0.104806D+00 -0.296029D-01
      4  -0.401087D+00  0.111494D+00  0.418653D-01  0.388077D-01  0.503491D-01
      5   0.764129D-01  0.693557D-02  0.581065D-02 -0.155859D-01 -0.111475D-01
      6  -0.267830D-02 -0.167321D-01  0.535657D-02  0.125466D-01  0.506324D-02
      7   0.276128D-01 -0.125697D-01 -0.552602D-02 -0.500048D-02 -0.573511D-02
      8  -0.107101D+00 -0.395045D+00  0.107352D+00  0.140424D+00  0.310922D-01
      9   0.513615D-01  0.162288D+00  0.452324D-01 -0.132918D+00  0.132107D+00
     10   0.283780D+00 -0.454165D+00  0.906371D-01  0.786469D-01 -0.228901D+00
     11   0.458097D-01  0.907091D-01  0.740509D-01  0.546870D-01 -0.317877D-01
     12  -0.467861D-01 -0.172151D-01 -0.962569D-02  0.119648D-01  0.279529D-01
     13   0.160182D-01 -0.151441D-01 -0.499463D-01 -0.526702D-01 -0.102330D-01
     14   0.856908D-01 -0.617130D-01  0.513475D-01 -0.429755D-01 -0.691607D-01
     15  -0.102166D-01 -0.561473D-01 -0.501905D-02 -0.216647D-02  0.122894D-01
     16  -0.644551D-01 -0.210493D-01  0.337371D-01  0.303203D-01  0.946745D-02
                 6             7             8             9            10 
      1  -0.770306D+03 -0.770293D+03 -0.770291D+03 -0.770288D+03 -0.770274D+03
      2  -0.861597D-01  0.160197D+00 -0.286531D-01  0.914343D-01 -0.755507D+00
      3  -0.443571D-01 -0.222753D+00  0.206816D-01 -0.789748D-01 -0.389716D+00
      4   0.302503D-01 -0.227038D+00  0.208801D-01 -0.163617D+00  0.308090D+00
      5   0.995401D-02 -0.237949D-01  0.604730D-02 -0.132569D-01  0.114484D+00
      6   0.812711D-02  0.338353D-01 -0.179616D-02  0.145104D-01  0.572705D-01
      7  -0.388340D-02  0.346349D-01 -0.173144D-02  0.249521D-01 -0.462873D-01
      8  -0.446564D-01  0.388721D+00  0.178130D+00  0.234523D+00 -0.297104D+00
      9  -0.569357D-01 -0.358705D+00  0.663374D+00 -0.189924D+00  0.385927D+00
     10   0.499154D-01  0.865376D+00 -0.267997D+00  0.263521D+00  0.832917D+00
     11  -0.148198D-01 -0.790089D-01 -0.474929D-01 -0.236242D+00  0.664664D+00
     12   0.197813D-01  0.251337D-01  0.194619D-02  0.548274D-01 -0.151224D+00
     13  -0.142100D-01  0.210159D-02  0.363851D-01  0.625460D-01 -0.174317D+00
     14   0.123018D-02  0.171203D+00  0.818411D-01  0.892030D-01  0.532354D+00
     15   0.212005D-01  0.900844D-01  0.275349D-01  0.108776D+00 -0.108744D+00
     16   0.164192D-01  0.747734D-01  0.308926D-01  0.859115D-02  0.180473D+00
                11            12            13            14            15 
      1  -0.770271D+03 -0.770268D+03 -0.770268D+03 -0.770266D+03 -0.770262D+03
      2  -0.317535D-01  0.313701D-01 -0.968191D-01  0.619954D+00  0.185845D-01
      3   0.161833D+00  0.197012D+00 -0.148779D+00  0.289217D+00 -0.323005D+00
      4  -0.118576D-01  0.476180D-01  0.138307D+00 -0.390784D+00 -0.127871D-01
      5   0.419941D-02 -0.657072D-02  0.103193D-01 -0.982543D-01 -0.390159D-02
      6  -0.253149D-01 -0.276058D-01  0.234055D-01 -0.489462D-01  0.544576D-01
      7   0.121648D-02 -0.975844D-02 -0.216212D-01  0.652705D-01  0.268013D-02
      8  -0.599251D-01  0.481320D-01  0.111612D+00  0.303424D+00  0.112009D+00
      9  -0.219341D-01 -0.967574D-01  0.361783D+00  0.188371D-01 -0.720166D-01
     10   0.246468D-01 -0.718241D-01  0.409863D+00 -0.224495D+00 -0.491758D-01
     11  -0.692727D-01 -0.181796D+00  0.502892D+00 -0.547567D-01 -0.131571D+00
     12  -0.413251D-02  0.148001D-01 -0.105330D+00 -0.736854D-02  0.801750D-01
     13   0.294982D-01  0.374330D-01 -0.129366D+00  0.571477D-01  0.313147D-02
     14   0.601831D-01  0.511931D-01  0.216720D+00 -0.447156D+00 -0.116950D-01
     15   0.355020D-02  0.482207D-01 -0.134233D+00 -0.637179D-01  0.856999D-01
     16  -0.109134D-01  0.304140D-01  0.182148D+00 -0.104750D+00 -0.941638D-02
                16            17            18            19            20 
      1  -0.770261D+03 -0.770258D+03 -0.770257D+03 -0.770251D+03 -0.770248D+03
      2  -0.159934D+00  0.117365D+00  0.117681D+00  0.498186D+00  0.272095D+00
      3   0.458192D+00 -0.327965D-01 -0.347950D+00  0.795840D+00  0.234847D+00
      4   0.323596D-01  0.196646D-01 -0.883494D-01 -0.406475D+00 -0.281968D+00
      5   0.269523D-01 -0.178356D-01 -0.218460D-01 -0.890180D-01 -0.526216D-01
      6  -0.729066D-01  0.346046D-02  0.589152D-01 -0.139070D+00 -0.425703D-01
      7  -0.735598D-02 -0.279055D-02  0.162793D-01  0.715660D-01  0.515513D-01
      8  -0.115373D+00 -0.489181D-01  0.139737D+00  0.189304D+00  0.232780D+00
      9  -0.208484D+00 -0.625014D-01 -0.345625D-01 -0.310494D+00 -0.183389D-01
     10   0.270898D+00 -0.229651D+00  0.234748D-01 -0.175672D+00  0.474997D-01
     11  -0.257363D+00  0.102386D+00  0.633691D-01 -0.669912D+00 -0.984002D-01
     12  -0.244434D-01 -0.683331D-03  0.569909D-01  0.367276D-01  0.958293D-03
     13   0.749951D-01 -0.355964D-01 -0.697980D-01  0.213487D+00  0.449221D-01
     14   0.259699D+00 -0.230367D+00 -0.665142D-01 -0.204298D+00 -0.705748D-01
     15   0.775575D-01 -0.707636D-01  0.209468D-01  0.122986D+00  0.338007D-02
     16   0.252484D-01 -0.440041D-01  0.979768D-02 -0.118262D+00 -0.122845D-01
                21            22            23            24            25 
      1  -0.770244D+03 -0.770241D+03 -0.770237D+03 -0.770233D+03 -0.770233D+03
      2  -0.227512D+00 -0.491511D-01  0.365411D+00  0.231309D+00  0.126846D+00
      3  -0.118255D+01  0.138757D+00 -0.678744D+00  0.846875D-01 -0.235429D-01
      4   0.100414D+00  0.586313D-01 -0.347423D+00 -0.103759D+00 -0.829001D-01
      5   0.405190D-01  0.102539D-01 -0.733321D-01 -0.422791D-01 -0.230325D-01
      6   0.212902D+00 -0.250673D-01  0.125885D+00 -0.170824D-01  0.244458D-02
      7  -0.169007D-01 -0.112294D-01  0.669074D-01  0.225036D-01  0.203096D-01
      8   0.153648D+00 -0.746894D-01  0.312640D+00 -0.145196D+00 -0.698858D-01
      9   0.429100D+00 -0.401740D-01  0.222390D+00 -0.304762D+00 -0.348775D+00
     10   0.605890D-01  0.137799D+00 -0.826820D+00 -0.219824D+00 -0.216723D+00
     11   0.102564D+01 -0.499844D-01  0.118104D+00 -0.169692D+00 -0.826380D-01
     12  -0.662985D-01 -0.233846D-01  0.159805D+00 -0.595364D-01 -0.892642D-01
     13  -0.247628D+00  0.106823D-01 -0.460175D-01  0.930138D-01  0.109266D+00
     14  -0.411929D-02  0.142678D+00 -0.902692D+00 -0.668121D-01 -0.764538D-01
     15  -0.230845D+00  0.220716D-01 -0.889210D-01  0.341794D-01  0.198887D-01
     16   0.106004D+00  0.360005D-01 -0.233564D+00 -0.360248D-01 -0.496590D-01
                26            27            28            29            30 
      1  -0.770229D+03 -0.770228D+03 -0.770215D+03 -0.770215D+03 -0.770214D+03
      2   0.303044D-01  0.252535D-02 -0.807985D-01  0.516792D-01 -0.146179D+00
      3  -0.123692D+00  0.636916D-01  0.994910D-01 -0.126797D+00 -0.401396D-01
      4  -0.629053D-01 -0.984641D-02  0.510894D-01 -0.337773D-01  0.711488D-01
      5  -0.648487D-02  0.732720D-02  0.190269D-01 -0.124367D-01  0.333086D-01
      6   0.254891D-01 -0.219268D-01 -0.214850D-01  0.259269D-01  0.519328D-02
      7   0.136017D-01  0.143454D-01 -0.101734D-01  0.531681D-02 -0.184898D-01
      8   0.180897D-01 -0.146545D+00 -0.262028D-01 -0.112813D-01 -0.140088D+00
      9  -0.450511D-01 -0.218313D-02  0.192947D-01 -0.428178D-01 -0.103103D+00
     10   0.140569D+00  0.153042D+00  0.226756D+00 -0.295211D+00 -0.780865D-01
     11  -0.325797D-01 -0.871611D-02  0.108087D-01 -0.283979D-01 -0.689776D-01
     12   0.383719D-01 -0.813528D-02 -0.739045D-01  0.876326D-01 -0.679822D-02
     13  -0.144499D-01  0.175569D+00  0.141412D-01 -0.153589D-01  0.217114D-01
     14   0.742553D-01 -0.152081D-01  0.182024D+00 -0.194571D+00  0.811273D-01
     15   0.552188D-01  0.844170D-01  0.298571D-02  0.678107D-02  0.420928D-01
     16   0.354276D-01 -0.998816D-01  0.384053D-01 -0.639819D-01 -0.573921D-01
                31            32            33            34            35 
      1  -0.770213D+03 -0.770210D+03 -0.770209D+03 -0.770208D+03 -0.770204D+03
      2   0.169523D-02  0.471282D+00 -0.111565D+00  0.554950D-03  0.498857D-01
      3  -0.855879D-01 -0.160622D+00 -0.161168D-01 -0.534999D-01 -0.861383D-01
      4  -0.258770D-01 -0.252539D+00  0.852073D-01 -0.151097D-01 -0.963804D-01
      5   0.127615D-02 -0.104243D+00  0.249267D-01 -0.215946D-02 -0.104111D-01
      6   0.172486D-01  0.326350D-01  0.413646D-02  0.136154D-01  0.174416D-01
      7   0.633762D-02  0.591337D-01 -0.206607D-01  0.370186D-02  0.252591D-01
      8  -0.168973D+00  0.301261D+00 -0.692571D-01 -0.286364D-02  0.102400D+00
      9  -0.132229D+00  0.220992D+00  0.271115D+00 -0.123234D+00 -0.125991D+00
     10   0.436228D-01  0.259398D+00  0.368574D-02 -0.266765D+00  0.459210D+00
     11   0.669412D-01  0.425295D+00  0.528579D-02 -0.160786D+00 -0.802636D-01
     12  -0.130436D+00 -0.310342D-01  0.406526D-01  0.100096D+00  0.210074D-01
     13   0.101678D+00 -0.896368D-01 -0.207018D-01  0.236810D-01  0.824731D-02
     14   0.512345D-01 -0.240034D+00  0.555447D-01 -0.157336D+00  0.233187D+00
     15  -0.319653D-01 -0.147775D+00 -0.136053D-01  0.460319D-01  0.923156D-01
     16  -0.101702D-01  0.137275D+00  0.123790D-01 -0.724815D-01  0.695644D-01
                36 
      1  -0.770204D+03
      2   0.761336D-01
      3   0.845971D-01
      4   0.635484D-01
      5  -0.122851D-01
      6  -0.200570D-01
      7  -0.107188D-01
      8   0.484473D-01
      9   0.848344D-01
     10  -0.257103D+00
     11  -0.673827D-01
     12   0.236009D-01
     13   0.171695D-01
     14  -0.159326D+00
     15  -0.537067D-01
     16  -0.608378D-01
 1\1\GINC-GRA243\SP\UB3LYP TD-FC\6-31G(d,p)\C16H17O2(2)\RZK\25-May-2019
 \0\\#p td=(50-50,nstates=36) ub3lyp/6-31g(d,p) scrf=(iefpcm,solvent=ac
 etonitrile) guess=(mix,always) empiricaldispersion=gd3\\Title Card Req
 uired\\0,2\C,0,-1.314061,-1.440292,-0.988682\C,0,0.79121,-1.304437,1.1
 44245\O,0,-1.726587,-2.418732,-0.357584\C,0,-0.367737,-1.626384,-2.152
 787\H,0,-0.775938,-1.168555,-3.059439\H,0,0.594141,-1.147238,-1.945248
 \H,0,-0.207751,-2.692241,-2.315173\C,0,-0.229279,-1.170405,2.226589\H,
 0,-0.530412,-0.136335,2.392056\H,0,-1.128896,-1.735897,1.956829\H,0,0.
 146601,-1.579137,3.174755\C,0,-1.745044,-0.062182,-0.620709\C,0,-2.781
 746,0.094832,0.315608\C,0,-1.125958,1.080677,-1.153586\C,0,-3.18855,1.
 364567,0.71296\H,0,-3.253996,-0.793839,0.719574\C,0,-1.528237,2.352042
 ,-0.747724\H,0,-0.313323,0.983519,-1.86434\C,0,-2.559586,2.496975,0.18
 3504\H,0,-3.992287,1.475851,1.434361\H,0,-1.032905,3.228643,-1.153255\
 H,0,-2.872311,3.48847,0.497082\C,0,1.646646,-0.283841,0.653694\C,0,2.6
 10871,-0.567687,-0.360472\C,0,1.560974,1.063267,1.111913\C,0,3.413729,
 0.435266,-0.885713\H,0,2.706937,-1.585923,-0.718782\C,0,2.371491,2.053
 595,0.576094\H,0,0.846394,1.327992,1.882795\C,0,3.304346,1.755923,-0.4
 2795\H,0,4.135523,0.188977,-1.659781\H,0,2.276202,3.072599,0.940823\H,
 0,3.933703,2.536757,-0.84319\O,0,0.997967,-2.56694,0.659193\H,0,0.1428
 73,-3.02976,0.626148\\Version=ES64L-G16RevB.01\State=2-A\HF=-770.43090
 82\S2=0.773463\S2-1=0.\S2A=0.750387\RMSD=3.109e-09\PG=C01 [X(C16H17O2)
 ]\\@


 WISDOM IS KNOWING WHAT TO DO,
 SKILL IS KNOWING HOW TO DO IT,
 AND VIRTUE IS NOT DOING IT.
 Job cpu time:       0 days 14 hours 32 minutes 59.5 seconds.
 Elapsed time:       0 days  0 hours 27 minutes 19.6 seconds.
 File lengths (MBytes):  RWF=   2191 Int=      0 D2E=      0 Chk=    178 Scr=      1
 Normal termination of Gaussian 16 at Sat May 25 04:46:21 2019.
