 Entering Gaussian System, Link 0=g16
 Initial command:
 /opt/software/gaussian/g16.b01/l1.exe "/localscratch/rzk.15153360.0/Gau-13591.inp" -scrdir="/localscratch/rzk.15153360.0/"
 Entering Link 1 = /opt/software/gaussian/g16.b01/l1.exe PID=     13597.
  
 Copyright (c) 1988-2017, Gaussian, Inc.  All Rights Reserved.
  
 This is part of the Gaussian(R) 16 program.  It is based on
 the Gaussian(R) 09 system (copyright 2009, Gaussian, Inc.),
 the Gaussian(R) 03 system (copyright 2003, Gaussian, Inc.),
 the Gaussian(R) 98 system (copyright 1998, Gaussian, Inc.),
 the Gaussian(R) 94 system (copyright 1995, Gaussian, Inc.),
 the Gaussian 92(TM) system (copyright 1992, Gaussian, Inc.),
 the Gaussian 90(TM) system (copyright 1990, Gaussian, Inc.),
 the Gaussian 88(TM) system (copyright 1988, Gaussian, Inc.),
 the Gaussian 86(TM) system (copyright 1986, Carnegie Mellon
 University), and the Gaussian 82(TM) system (copyright 1983,
 Carnegie Mellon University). Gaussian is a federally registered
 trademark of Gaussian, Inc.
  
 This software contains proprietary and confidential information,
 including trade secrets, belonging to Gaussian, Inc.
  
 This software is provided under written license and may be
 used, copied, transmitted, or stored only in accord with that
 written license.
  
 The following legend is applicable only to US Government
 contracts under FAR:
  
                    RESTRICTED RIGHTS LEGEND
  
 Use, reproduction and disclosure by the US Government is
 subject to restrictions as set forth in subparagraphs (a)
 and (c) of the Commercial Computer Software - Restricted
 Rights clause in FAR 52.227-19.
  
 Gaussian, Inc.
 340 Quinnipiac St., Bldg. 40, Wallingford CT 06492
  
  
 ---------------------------------------------------------------
 Warning -- This program may not be used in any manner that
 competes with the business of Gaussian, Inc. or will provide
 assistance to any competitor of Gaussian, Inc.  The licensee
 of this program is prohibited from giving any competitor of
 Gaussian, Inc. access to this program.  By using this program,
 the user acknowledges that Gaussian, Inc. is engaged in the
 business of creating and licensing software in the field of
 computational chemistry and represents and warrants to the
 licensee that it is not a competitor of Gaussian, Inc. and that
 it will not use this program in any manner prohibited above.
 ---------------------------------------------------------------
  

 Cite this work as:
 Gaussian 16, Revision B.01,
 M. J. Frisch, G. W. Trucks, H. B. Schlegel, G. E. Scuseria, 
 M. A. Robb, J. R. Cheeseman, G. Scalmani, V. Barone, 
 G. A. Petersson, H. Nakatsuji, X. Li, M. Caricato, A. V. Marenich, 
 J. Bloino, B. G. Janesko, R. Gomperts, B. Mennucci, H. P. Hratchian, 
 J. V. Ortiz, A. F. Izmaylov, J. L. Sonnenberg, D. Williams-Young, 
 F. Ding, F. Lipparini, F. Egidi, J. Goings, B. Peng, A. Petrone, 
 T. Henderson, D. Ranasinghe, V. G. Zakrzewski, J. Gao, N. Rega, 
 G. Zheng, W. Liang, M. Hada, M. Ehara, K. Toyota, R. Fukuda, 
 J. Hasegawa, M. Ishida, T. Nakajima, Y. Honda, O. Kitao, H. Nakai, 
 T. Vreven, K. Throssell, J. A. Montgomery, Jr., J. E. Peralta, 
 F. Ogliaro, M. J. Bearpark, J. J. Heyd, E. N. Brothers, K. N. Kudin, 
 V. N. Staroverov, T. A. Keith, R. Kobayashi, J. Normand, 
 K. Raghavachari, A. P. Rendell, J. C. Burant, S. S. Iyengar, 
 J. Tomasi, M. Cossi, J. M. Millam, M. Klene, C. Adamo, R. Cammi, 
 J. W. Ochterski, R. L. Martin, K. Morokuma, O. Farkas, 
 J. B. Foresman, and D. J. Fox, Gaussian, Inc., Wallingford CT, 2016.
 
 ******************************************
 Gaussian 16:  ES64L-G16RevB.01 20-Dec-2017
                25-May-2019 
 ******************************************
 %NProcShared=32
 Will use up to   32 processors via shared memory.
 %chk=AH-A_17.chk
 ----------------------------------------------------------------------
 #p td=(50-50,nstates=36) ub3lyp/6-31g(d,p) scrf=(iefpcm,solvent=aceton
 itrile) guess=(mix,always) empiricaldispersion=gd3
 ----------------------------------------------------------------------
 1/38=1,172=1/1;
 2/12=2,17=6,18=5,40=1/2;
 3/5=1,6=6,7=101,11=2,25=1,30=1,70=2201,72=2,74=-5,116=2,124=31/1,2,3,8;
 4/13=-1/1;
 5/5=2,38=5,53=2/2;
 8/6=1,10=2,108=36/1;
 9/41=36,42=1,48=2,70=2/14;
 6/7=2,8=2,9=2,10=2/1;
 99/5=1,9=1/99;
 Leave Link    1 at Sat May 25 04:16:14 2019, MaxMem=           0 cpu:               3.1 elap:               0.1
 (Enter /opt/software/gaussian/g16.b01/l101.exe)
 -------------------
 Title Card Required
 -------------------
 Symbolic Z-matrix:
 Charge =  0 Multiplicity = 2
 C                    -0.58619  -1.28297  -0.5054 
 C                     0.61273  -1.27297   0.55408 
 O                    -1.19904  -2.50082  -0.37817 
 C                     0.00396  -1.33742  -1.95848 
 H                    -0.81204  -1.42633  -2.67626 
 H                     0.56191  -0.41921  -2.14596 
 H                     0.67727  -2.18831  -2.045 
 C                     0.01928  -1.31789   1.97475 
 H                    -0.60815  -0.45546   2.20263 
 H                    -0.59625  -2.21717   2.07302 
 H                     0.834    -1.36701   2.70068 
 C                    -1.56928  -0.12094  -0.34634 
 C                    -2.76856  -0.33629   0.34775 
 C                    -1.3149    1.1584   -0.86066 
 C                    -3.68676   0.69744   0.53029 
 H                    -2.97808  -1.32513   0.74179 
 C                    -2.23214   2.19501  -0.67865 
 H                    -0.39594   1.35966  -1.39839 
 C                    -3.42079   1.96956   0.01799 
 H                    -4.60873   0.50938   1.07268 
 H                    -2.01565   3.17882  -1.08432 
 H                    -4.13339   2.77668   0.15931 
 C                     1.56095  -0.09892   0.35825 
 C                     2.7169   -0.24822  -0.42446 
 C                     1.30607   1.15392   0.93711 
 C                     3.58864   0.82244  -0.62515 
 H                     2.93037  -1.2138   -0.86596 
 C                     2.17603   2.22572   0.73499 
 H                     0.41843   1.30617   1.5392 
 C                     3.32122   2.0654   -0.04775 
 H                     4.47843   0.68335  -1.23226 
 H                     1.95677   3.18643   1.19134 
 H                     3.99872   2.89961  -0.20376 
 O                     1.35488  -2.46964   0.34309 
 H                     0.68264  -3.15765   0.20194 
 
 ITRead=  0  0  0  0  0  0  0  0  0  0  0  0  0  0  0  0  0  0  0  0
 ITRead=  0  0  0  0  0  0  0  0  0  0  0  0  0  0  0
 MicOpt= -1 -1 -1 -1 -1 -1 -1 -1 -1 -1 -1 -1 -1 -1 -1 -1 -1 -1 -1 -1
 MicOpt= -1 -1 -1 -1 -1 -1 -1 -1 -1 -1 -1 -1 -1 -1 -1
 NAtoms=     35 NQM=       35 NQMF=       0 NMMI=      0 NMMIF=      0
                NMic=       0 NMicF=      0.
                    Isotopes and Nuclear Properties:
 (Nuclear quadrupole moments (NQMom) in fm**2, nuclear magnetic moments (NMagM)
  in nuclear magnetons)

  Atom         1           2           3           4           5           6           7           8           9          10
 IAtWgt=          12          12          16          12           1           1           1          12           1           1
 AtmWgt=  12.0000000  12.0000000  15.9949146  12.0000000   1.0078250   1.0078250   1.0078250  12.0000000   1.0078250   1.0078250
 NucSpn=           0           0           0           0           1           1           1           0           1           1
 AtZEff=  -0.0000000  -0.0000000  -0.0000000  -0.0000000  -0.0000000  -0.0000000  -0.0000000  -0.0000000  -0.0000000  -0.0000000
 NQMom=    0.0000000   0.0000000   0.0000000   0.0000000   0.0000000   0.0000000   0.0000000   0.0000000   0.0000000   0.0000000
 NMagM=    0.0000000   0.0000000   0.0000000   0.0000000   2.7928460   2.7928460   2.7928460   0.0000000   2.7928460   2.7928460
 AtZNuc=   6.0000000   6.0000000   8.0000000   6.0000000   1.0000000   1.0000000   1.0000000   6.0000000   1.0000000   1.0000000

  Atom        11          12          13          14          15          16          17          18          19          20
 IAtWgt=           1          12          12          12          12           1          12           1          12           1
 AtmWgt=   1.0078250  12.0000000  12.0000000  12.0000000  12.0000000   1.0078250  12.0000000   1.0078250  12.0000000   1.0078250
 NucSpn=           1           0           0           0           0           1           0           1           0           1
 AtZEff=  -0.0000000  -0.0000000  -0.0000000  -0.0000000  -0.0000000  -0.0000000  -0.0000000  -0.0000000  -0.0000000  -0.0000000
 NQMom=    0.0000000   0.0000000   0.0000000   0.0000000   0.0000000   0.0000000   0.0000000   0.0000000   0.0000000   0.0000000
 NMagM=    2.7928460   0.0000000   0.0000000   0.0000000   0.0000000   2.7928460   0.0000000   2.7928460   0.0000000   2.7928460
 AtZNuc=   1.0000000   6.0000000   6.0000000   6.0000000   6.0000000   1.0000000   6.0000000   1.0000000   6.0000000   1.0000000

  Atom        21          22          23          24          25          26          27          28          29          30
 IAtWgt=           1           1          12          12          12          12           1          12           1          12
 AtmWgt=   1.0078250   1.0078250  12.0000000  12.0000000  12.0000000  12.0000000   1.0078250  12.0000000   1.0078250  12.0000000
 NucSpn=           1           1           0           0           0           0           1           0           1           0
 AtZEff=  -0.0000000  -0.0000000  -0.0000000  -0.0000000  -0.0000000  -0.0000000  -0.0000000  -0.0000000  -0.0000000  -0.0000000
 NQMom=    0.0000000   0.0000000   0.0000000   0.0000000   0.0000000   0.0000000   0.0000000   0.0000000   0.0000000   0.0000000
 NMagM=    2.7928460   2.7928460   0.0000000   0.0000000   0.0000000   0.0000000   2.7928460   0.0000000   2.7928460   0.0000000
 AtZNuc=   1.0000000   1.0000000   6.0000000   6.0000000   6.0000000   6.0000000   1.0000000   6.0000000   1.0000000   6.0000000

  Atom        31          32          33          34          35
 IAtWgt=           1           1           1          16           1
 AtmWgt=   1.0078250   1.0078250   1.0078250  15.9949146   1.0078250
 NucSpn=           1           1           1           0           1
 AtZEff=  -0.0000000  -0.0000000  -0.0000000  -0.0000000  -0.0000000
 NQMom=    0.0000000   0.0000000   0.0000000   0.0000000   0.0000000
 NMagM=    2.7928460   2.7928460   2.7928460   0.0000000   2.7928460
 AtZNuc=   1.0000000   1.0000000   1.0000000   8.0000000   1.0000000
 Leave Link  101 at Sat May 25 04:16:14 2019, MaxMem=   104857600 cpu:               5.8 elap:               0.2
 (Enter /opt/software/gaussian/g16.b01/l202.exe)
                          Input orientation:                          
 ---------------------------------------------------------------------
 Center     Atomic      Atomic             Coordinates (Angstroms)
 Number     Number       Type             X           Y           Z
 ---------------------------------------------------------------------
      1          6           0       -0.586193   -1.282970   -0.505397
      2          6           0        0.612727   -1.272973    0.554081
      3          8           0       -1.199044   -2.500819   -0.378169
      4          6           0        0.003962   -1.337416   -1.958480
      5          1           0       -0.812043   -1.426327   -2.676258
      6          1           0        0.561905   -0.419206   -2.145955
      7          1           0        0.677268   -2.188312   -2.045004
      8          6           0        0.019284   -1.317885    1.974754
      9          1           0       -0.608147   -0.455464    2.202626
     10          1           0       -0.596253   -2.217170    2.073016
     11          1           0        0.833997   -1.367013    2.700676
     12          6           0       -1.569284   -0.120938   -0.346342
     13          6           0       -2.768560   -0.336286    0.347747
     14          6           0       -1.314897    1.158396   -0.860664
     15          6           0       -3.686757    0.697440    0.530288
     16          1           0       -2.978084   -1.325132    0.741794
     17          6           0       -2.232139    2.195005   -0.678649
     18          1           0       -0.395936    1.359658   -1.398388
     19          6           0       -3.420790    1.969561    0.017989
     20          1           0       -4.608725    0.509377    1.072681
     21          1           0       -2.015648    3.178823   -1.084320
     22          1           0       -4.133388    2.776678    0.159309
     23          6           0        1.560951   -0.098917    0.358254
     24          6           0        2.716902   -0.248219   -0.424459
     25          6           0        1.306074    1.153924    0.937111
     26          6           0        3.588639    0.822436   -0.625145
     27          1           0        2.930374   -1.213801   -0.865958
     28          6           0        2.176031    2.225718    0.734989
     29          1           0        0.418429    1.306167    1.539200
     30          6           0        3.321220    2.065396   -0.047746
     31          1           0        4.478426    0.683352   -1.232261
     32          1           0        1.956772    3.186427    1.191340
     33          1           0        3.998718    2.899614   -0.203764
     34          8           0        1.354877   -2.469638    0.343086
     35          1           0        0.682637   -3.157645    0.201944
 ---------------------------------------------------------------------
                    Distance matrix (angstroms):
                    1          2          3          4          5
     1  C    0.000000
     2  C    1.600001   0.000000
     3  O    1.369281   2.378909   0.000000
     4  C    1.569298   2.586061   2.301763   0.000000
     5  H    2.187281   3.533918   2.566226   1.090401   0.000000
     6  H    2.180745   2.832260   3.249480   1.090668   1.784166
     7  H    2.187777   2.756312   2.529139   1.088509   1.788058
     8  C    2.553227   1.540293   2.901707   3.933312   4.725968
     9  H    2.831720   2.208292   3.345615   4.297362   4.978720
    10  H    2.742452   2.158774   2.540103   4.169794   4.819502
    11  H    3.507550   2.160017   3.859800   4.732607   5.623556
    12  C    1.530387   2.626617   2.408718   2.560061   2.775962
    13  C    2.527210   3.514692   2.770476   3.742703   3.763078
    14  C    2.572449   3.410102   3.692706   3.028806   3.198443
    15  C    3.822063   4.729551   4.152454   4.894488   4.801698
    16  H    2.697852   3.596092   2.408639   4.022963   4.047846
    17  C    3.851683   4.651855   4.817503   4.372198   4.372775
    18  H    2.795910   3.429327   4.072973   2.783492   3.093188
    19  C    4.346013   5.202949   5.007733   5.154751   5.059307
    20  H    4.677991   5.541595   4.774115   5.820263   5.675939
    21  H    4.720815   5.423209   5.781334   5.023882   5.018998
    22  H    5.431866   6.251490   6.062279   6.207130   6.061107
    23  C    2.599635   1.521803   3.732161   3.053744   4.074479
    24  C    3.462325   2.536772   4.517852   3.301456   4.348792
    25  C    3.405871   2.552895   4.621983   4.035681   4.919405
    26  C    4.677210   3.825881   5.833261   4.392340   5.350701
    27  H    3.535680   2.718731   4.352752   3.126143   4.162696
    28  C    4.634580   3.836338   5.913578   4.966748   5.822596
    29  H    3.448662   2.767702   4.559130   4.403871   5.172105
    30  C    5.166128   4.340834   6.433684   5.121937   6.015403
    31  H    5.481343   4.686348   6.565218   4.963036   5.875792
    32  H    5.414896   4.700937   6.690837   5.848076   6.625870
    33  H    6.213405   5.426762   7.497454   6.081902   6.926068
    34  O    2.428139   1.423837   2.653996   2.898983   3.860114
    35  H    2.371638   1.918561   2.075735   2.905386   3.676354
                    6          7          8          9         10
     6  H    0.000000
     7  H    1.775735   0.000000
     8  C    4.252329   4.165218   0.000000
     9  H    4.503387   4.764180   1.090580   0.000000
    10  H    4.730087   4.310543   1.094191   1.766507   0.000000
    11  H    4.945928   4.818773   1.092307   1.777289   1.778297
    12  C    2.805270   3.493778   3.056749   2.744618   3.345784
    13  C    4.161421   4.585737   3.373835   2.849941   3.351596
    14  C    2.768246   4.070852   3.993946   3.533806   4.529611
    15  C    5.143958   5.831330   4.459008   3.688325   4.519533
    16  H    4.657394   4.676849   3.241058   2.916668   2.870715
    17  C    4.098020   5.435535   4.944679   4.238406   5.451153
    18  H    2.154222   3.762708   4.326630   4.038193   4.988434
    19  C    5.123546   6.191763   5.144933   4.308636   5.452510
    20  H    6.160949   6.703671   5.056786   4.267589   4.953247
    21  H    4.551556   6.081188   5.806829   5.098344   6.410943
    22  H    6.129738   7.256206   6.107861   5.200886   6.411873
    23  C    2.715095   3.304862   2.544738   2.869463   3.475764
    24  C    2.763476   3.248112   3.765309   4.242697   4.592510
    25  C    3.540314   4.523157   2.973612   2.802838   4.034031
    26  C    3.607722   4.422294   4.907213   5.219419   5.833747
    27  H    2.807030   2.723290   4.068774   4.744725   4.699087
    28  C    4.230941   5.427551   4.329630   4.134530   5.405102
    29  H    4.071592   5.012474   2.689735   2.144140   3.705191
    30  C    4.264921   5.391990   5.141972   5.182551   6.179369
    31  H    4.170085   4.832785   5.845840   6.242482   6.714927
    32  H    5.107228   6.403036   4.965524   4.567809   6.041039
    33  H    5.157359   6.348952   6.194282   6.186313   7.244237
    34  O    3.320904   2.498254   2.402641   3.371683   2.619791
    35  H    3.609190   2.447123   2.639623   3.601477   2.453765
                   11         12         13         14         15
    11  H    0.000000
    12  C    4.075878   0.000000
    13  C    4.424601   1.402283   0.000000
    14  C    4.866064   1.402118   2.409869   0.000000
    15  C    5.423077   2.433498   1.394631   2.788001   0.000000
    16  H    4.286133   2.149149   1.084892   3.391456   2.153544
    17  C    5.788696   2.431748   2.783643   1.396073   2.412497
    18  H    5.074426   2.162339   3.399200   1.083579   3.871411
    19  C    6.035955   2.816203   2.418899   2.421736   1.396954
    20  H    5.982845   3.413081   2.151019   3.874061   1.086086
    21  H    6.565919   3.410612   3.869584   2.150163   3.399533
    22  H    6.950082   3.902114   3.404234   3.406328   2.158781
    23  C    2.761063   3.208631   4.336026   3.367061   5.310576
    24  C    3.816215   4.288787   5.540248   4.292347   6.543138
    25  C    3.112578   3.397088   4.378438   3.178286   5.030134
    26  C    4.841779   5.250891   6.534764   4.920671   7.367634
    27  H    4.139945   4.659536   5.892450   4.863093   7.027714
    28  C    4.309605   4.550105   5.582365   3.983951   6.062163
    29  H    2.944081   3.089159   3.778109   2.964052   4.270949
    30  C    5.051884   5.365281   6.558194   4.793440   7.163600
    31  H    5.740545   6.164944   7.486982   5.824632   8.353262
    32  H    4.926716   5.073086   5.953983   4.362046   6.203343
    33  H    6.054365   6.336143   7.521387   5.630085   8.028383
    34  O    2.654304   3.813453   4.642623   4.662546   5.956803
    35  H    3.077813   3.820125   4.460054   4.873139   5.836188
                   16         17         18         19         20
    16  H    0.000000
    17  C    3.868521   0.000000
    18  H    4.296041   2.141838   0.000000
    19  C    3.402188   1.396073   3.395268   0.000000
    20  H    2.476671   3.399509   4.957494   2.157708   0.000000
    21  H    4.954451   1.085972   2.455905   2.156809   4.301470
    22  H    4.301030   2.157606   4.289862   1.085912   2.490150
    23  C    4.717366   4.552447   3.007098   5.404824   6.240619
    24  C    5.912085   5.525121   3.636422   6.541068   7.515330
    25  C    4.953572   4.026597   2.897192   4.883983   5.951358
    26  C    7.042899   5.980658   4.094307   7.131733   8.377195
    27  H    6.124307   6.189231   4.239164   7.159081   7.972809
    28  C    6.258872   4.629393   3.452010   5.648372   7.006624
    29  H    4.369885   3.568529   3.048848   4.182556   5.111242
    30  C    7.197241   5.590584   4.017406   6.743012   8.158467
    31  H    7.970599   6.900961   4.923860   8.100313   9.376531
    32  H    6.701422   4.693267   3.947026   5.636993   7.091292
    33  H    8.210866   6.288527   4.807450   7.480860   9.023892
    34  O    4.499268   5.972397   4.556488   6.528336   6.706071
    35  H    4.129215   6.158102   4.912271   6.569642   6.496441
                   21         22         23         24         25
    21  H    0.000000
    22  H    2.488605   0.000000
    23  C    5.061290   6.382329   0.000000
    24  C    5.880226   7.511142   1.403978   0.000000
    25  C    4.384089   5.729403   1.403442   2.410459   0.000000
    26  C    6.096838   8.004007   2.434642   1.395171   2.785791
    27  H    6.618607   8.177520   2.148716   1.082977   3.390506
    28  C    4.667812   6.359539   2.433964   2.785180   1.395142
    29  H    4.039112   4.978508   2.162002   3.399272   1.083329
    30  C    5.549447   7.491327   2.819155   2.420729   2.421061
    31  H    6.958610   8.971166   3.413699   2.150194   3.871877
    32  H    4.578079   6.190560   3.412359   3.871098   2.149211
    33  H    6.084894   8.141135   3.905094   3.405967   3.405783
    34  O    6.730753   7.594647   2.379709   2.716420   3.672254
    35  H    7.006143   7.642781   3.186171   3.604910   4.418005
                   26         27         28         29         30
    26  C    0.000000
    27  H    2.153501   0.000000
    28  C    2.411354   3.868120   0.000000
    29  H    3.868930   4.294752   2.140443   0.000000
    30  C    1.396371   3.402259   1.396365   3.394263   0.000000
    31  H    1.086119   2.475850   3.398527   4.955045   2.156907
    32  H    3.398685   4.954027   1.085952   2.454156   2.157258
    33  H    2.158795   4.301168   2.158143   4.288994   1.085940
    34  O    4.094498   2.349703   4.782703   4.069930   4.958406
    35  H    4.996996   3.157731   5.612037   4.667299   5.857015
                   31         32         33         34         35
    31  H    0.000000
    32  H    4.300926   0.000000
    33  H    2.489928   2.489602   0.000000
    34  O    4.709525   5.750903   6.009809   0.000000
    35  H    5.587326   6.545959   6.917469   0.972204   0.000000
 Stoichiometry    C16H17O2(2)
 Framework group  C1[X(C16H17O2)]
 Deg. of freedom    99
 Full point group                 C1      NOp   1
 Largest Abelian subgroup         C1      NOp   1
 Largest concise Abelian subgroup C1      NOp   1
                         Standard orientation:                         
 ---------------------------------------------------------------------
 Center     Atomic      Atomic             Coordinates (Angstroms)
 Number     Number       Type             X           Y           Z
 ---------------------------------------------------------------------
      1          6           0       -0.586193   -1.282970   -0.505397
      2          6           0        0.612727   -1.272973    0.554081
      3          8           0       -1.199044   -2.500819   -0.378169
      4          6           0        0.003962   -1.337416   -1.958480
      5          1           0       -0.812043   -1.426327   -2.676258
      6          1           0        0.561905   -0.419206   -2.145955
      7          1           0        0.677268   -2.188312   -2.045004
      8          6           0        0.019284   -1.317885    1.974754
      9          1           0       -0.608147   -0.455464    2.202626
     10          1           0       -0.596253   -2.217170    2.073016
     11          1           0        0.833997   -1.367013    2.700676
     12          6           0       -1.569284   -0.120938   -0.346342
     13          6           0       -2.768560   -0.336286    0.347747
     14          6           0       -1.314897    1.158396   -0.860664
     15          6           0       -3.686757    0.697440    0.530288
     16          1           0       -2.978084   -1.325132    0.741794
     17          6           0       -2.232139    2.195005   -0.678649
     18          1           0       -0.395936    1.359658   -1.398388
     19          6           0       -3.420790    1.969561    0.017989
     20          1           0       -4.608725    0.509377    1.072681
     21          1           0       -2.015648    3.178823   -1.084320
     22          1           0       -4.133388    2.776678    0.159309
     23          6           0        1.560951   -0.098917    0.358254
     24          6           0        2.716902   -0.248219   -0.424459
     25          6           0        1.306074    1.153924    0.937111
     26          6           0        3.588639    0.822436   -0.625145
     27          1           0        2.930374   -1.213801   -0.865958
     28          6           0        2.176031    2.225718    0.734989
     29          1           0        0.418429    1.306167    1.539200
     30          6           0        3.321220    2.065396   -0.047746
     31          1           0        4.478426    0.683352   -1.232261
     32          1           0        1.956772    3.186427    1.191340
     33          1           0        3.998718    2.899614   -0.203764
     34          8           0        1.354877   -2.469638    0.343086
     35          1           0        0.682637   -3.157645    0.201944
 ---------------------------------------------------------------------
 Rotational constants (GHZ):           0.6283186           0.3753618           0.2865286
 Leave Link  202 at Sat May 25 04:16:14 2019, MaxMem=   104857600 cpu:               1.3 elap:               0.1
 (Enter /opt/software/gaussian/g16.b01/l301.exe)
 Standard basis: 6-31G(d,p) (6D, 7F)
 Ernie: Thresh=  0.10000D-02 Tol=  0.10000D-05 Strict=F.
 There are   355 symmetry adapted cartesian basis functions of A   symmetry.
 There are   355 symmetry adapted basis functions of A   symmetry.
   355 basis functions,   623 primitive gaussians,   355 cartesian basis functions
    65 alpha electrons       64 beta electrons
       nuclear repulsion energy      1327.8968522807 Hartrees.
 IExCor=  402 DFT=T Ex+Corr=B3LYP ExCW=0 ScaHFX=  0.200000
 ScaDFX=  0.800000  0.720000  1.000000  0.810000 ScalE2=  1.000000  1.000000
 IRadAn=      5 IRanWt=     -1 IRanGd=            0 ICorTp=0 IEmpDi=131
 NAtoms=   35 NActive=   35 NUniq=   35 SFac= 1.00D+00 NAtFMM=   60 NAOKFM=F Big=F
 Integral buffers will be    131072 words long.
 Raffenetti 2 integral format.
 Two-electron integral symmetry is turned on.
 R6Disp:  Grimme-D3 Dispersion energy=       -0.0415341268 Hartrees.
 Nuclear repulsion after empirical dispersion term =     1327.8553181539 Hartrees.
 ------------------------------------------------------------------------------
 Polarizable Continuum Model (PCM)
 =================================
 Model                : PCM.
 Atomic radii         : UFF (Universal Force Field).
 Polarization charges : Total charges.
 Charge compensation  : None.
 Solution method      : On-the-fly selection.
 Cavity type          : Scaled VdW (van der Waals Surface) (Alpha=1.100).
 Cavity algorithm     : GePol (No added spheres)
                        Default sphere list used, NSphG=   35.
                        Lebedev-Laikov grids with approx.  5.0 points / Ang**2.
                        Smoothing algorithm: York/Karplus (Gamma=1.0000).
                        Polarization charges: spherical gaussians, with
                                              point-specific exponents (IZeta= 3).
                        Self-potential: point-specific (ISelfS= 7).
                        Self-field    : sphere-specific E.n sum rule (ISelfD= 2).
 Solvent              : Acetonitrile, Eps=  35.688000 Eps(inf)=   1.806874
 ------------------------------------------------------------------------------
 GePol: Number of generator spheres                  =      35
 GePol: Total number of spheres                      =      35
 GePol: Number of exposed spheres                    =      35 (100.00%)
 GePol: Number of points                             =    2377
 GePol: Average weight of points                     =       0.13
 GePol: Minimum weight of points                     =   0.88D-10
 GePol: Maximum weight of points                     =    0.20577
 GePol: Number of points with low weight             =     152
 GePol: Fraction of low-weight points (<1% of avg)   =       6.39%
 GePol: Cavity surface area                          =    308.630 Ang**2
 GePol: Cavity volume                                =    350.669 Ang**3
 Leave Link  301 at Sat May 25 04:16:15 2019, MaxMem=   104857600 cpu:               4.5 elap:               0.2
 (Enter /opt/software/gaussian/g16.b01/l302.exe)
 NPDir=0 NMtPBC=     1 NCelOv=     1 NCel=       1 NClECP=     1 NCelD=      1
         NCelK=      1 NCelE2=     1 NClLst=     1 CellRange=     0.0.
 One-electron integrals computed using PRISM.
 One-electron integral symmetry used in STVInt
 PrsmSu:  requested number of processors reduced to:  28 ShMem   1 Linda.
 NBasis=   355 RedAO= T EigKep=  4.44D-04  NBF=   355
 NBsUse=   355 1.00D-06 EigRej= -1.00D+00 NBFU=   355
 Precomputing XC quadrature grid using
 IXCGrd= 4 IRadAn=           5 IRanWt=          -1 IRanGd=           0 AccXCQ= 0.00D+00.
 Generated NRdTot=       0 NPtTot=           0 NUsed=           0 NTot=          32
 NSgBfM=   354   354   354   354   354 MxSgAt=    35 MxSgA2=    35.
 Leave Link  302 at Sat May 25 04:16:16 2019, MaxMem=   104857600 cpu:              15.3 elap:               0.5
 (Enter /opt/software/gaussian/g16.b01/l303.exe)
 DipDrv:  MaxL=1.
 Leave Link  303 at Sat May 25 04:16:16 2019, MaxMem=   104857600 cpu:               1.6 elap:               0.1
 (Enter /opt/software/gaussian/g16.b01/l308.exe)
 Leave Link  308 at Sat May 25 04:16:16 2019, MaxMem=   104857600 cpu:               2.5 elap:               0.1
 (Enter /opt/software/gaussian/g16.b01/l401.exe)
 ExpMin= 1.61D-01 ExpMax= 5.48D+03 ExpMxC= 8.25D+02 IAcc=3 IRadAn=         5 AccDes= 0.00D+00
 Harris functional with IExCor=  402 and IRadAn=       5 diagonalized for initial guess.
 HarFok:  IExCor=  402 AccDes= 0.00D+00 IRadAn=         5 IDoV= 1 UseB2=F ITyADJ=14
 ICtDFT=  3500011 ScaDFX=  1.000000  1.000000  1.000000  1.000000
 FoFCou: FMM=F IPFlag=           0 FMFlag=      100000 FMFlg1=           0
         NFxFlg=           0 DoJE=T BraDBF=F KetDBF=T FulRan=T
         wScrn=  0.000000 ICntrl=       500 IOpCl=  0 I1Cent=   200000004 NGrid=           0
         NMat0=    1 NMatS0=      1 NMatT0=    0 NMatD0=    1 NMtDS0=    0 NMtDT0=    0
 Petite list used in FoFCou.
 Harris En= -770.408960297549    
 JPrj=0 DoOrth=F DoCkMO=T.
 Mixing orbitals, IMix= 1 IMixAn=  0 NRI=1 NE=   65 Coef=  7.07106781D-01  7.07106781D-01
 Mixing orbitals, IMix= 1 IMixAn=  0 NRI=1 NE=   64 Coef= -7.07106781D-01  7.07106781D-01
 Initial guess <Sx>= 0.0000 <Sy>= 0.0000 <Sz>= 0.5000 <S**2>= 1.0000 S= 0.6180
 Leave Link  401 at Sat May 25 04:16:17 2019, MaxMem=   104857600 cpu:              28.1 elap:               0.9
 (Enter /opt/software/gaussian/g16.b01/l502.exe)
 Integral symmetry usage will be decided dynamically.
 UHF open shell SCF:
 Using DIIS extrapolation, IDIIS=  1040.
 NGot=   104857600 LenX=   104590331 LenY=   104463865
 Requested convergence on RMS density matrix=1.00D-08 within 128 cycles.
 Requested convergence on MAX density matrix=1.00D-06.
 Requested convergence on             energy=1.00D-06.
 No special actions if energy rises.
 Fock matrices will be formed incrementally for  20 cycles.

 Cycle   1  Pass 1  IDiag  1:
 FoFJK:  IHMeth= 1 ICntrl=       0 DoSepK=F KAlg= 0 I1Cent=           0 FoldK=F
 IRaf= 840000000 NMat=       1 IRICut=       1 DoRegI=T DoRafI=F ISym2E= 0 IDoP0=0 IntGTp=1.
 FoFCou: FMM=F IPFlag=           0 FMFlag=      100000 FMFlg1=           0
         NFxFlg=           0 DoJE=F BraDBF=F KetDBF=F FulRan=T
         wScrn=  0.000000 ICntrl=         0 IOpCl=  1 I1Cent=           0 NGrid=           0
         NMat0=    1 NMatS0=      1 NMatT0=    0 NMatD0=    1 NMtDS0=    0 NMtDT0=    0
 Symmetry not used in FoFCou.
 Inv3:  Mode=1 IEnd=    16950387.
 Iteration    1 A*A^-1 deviation from unit magnitude is 3.00D-15 for     40.
 Iteration    1 A*A^-1 deviation from orthogonality  is 2.29D-15 for   1927    568.
 Iteration    1 A^-1*A deviation from unit magnitude is 2.89D-15 for    997.
 Iteration    1 A^-1*A deviation from orthogonality  is 3.42D-14 for   1965   1927.
 E= -769.834380910287    
 DIIS: error= 3.07D-02 at cycle   1 NSaved=   1.
 NSaved= 1 IEnMin= 1 EnMin= -769.834380910287     IErMin= 1 ErrMin= 3.07D-02
 ErrMax= 3.07D-02  0.00D+00 EMaxC= 1.00D-01 BMatC= 1.74D+00 BMatP= 1.74D+00
 IDIUse=3 WtCom= 6.93D-01 WtEn= 3.07D-01
 Coeff-Com:  0.100D+01
 Coeff-En:   0.100D+01
 Coeff:      0.100D+01
 Gap=     0.025 Goal=   None    Shift=    0.000
 Gap=     0.041 Goal=   None    Shift=    0.000
 GapD=    0.025 DampG=0.250 DampE=0.500 DampFc=0.2500 IDamp=-1.
 Damping current iteration by 2.50D-01
 RMSDP=4.50D-03 MaxDP=1.46D-01              OVMax= 7.79D-01

 Cycle   2  Pass 1  IDiag  1:
 RMSU=  1.10D-03    CP:  9.87D-01
 E= -770.003707820323     Delta-E=       -0.169326910036 Rises=F Damp=T
 DIIS: error= 1.68D-02 at cycle   2 NSaved=   2.
 NSaved= 2 IEnMin= 2 EnMin= -770.003707820323     IErMin= 2 ErrMin= 1.68D-02
 ErrMax= 1.68D-02  0.00D+00 EMaxC= 1.00D-01 BMatC= 4.83D-01 BMatP= 1.74D+00
 IDIUse=3 WtCom= 8.32D-01 WtEn= 1.68D-01
 Coeff-Com: -0.734D+00 0.173D+01
 Coeff-En:   0.000D+00 0.100D+01
 Coeff:     -0.611D+00 0.161D+01
 Gap=     0.285 Goal=   None    Shift=    0.000
 Gap=    -0.052 Goal=   None    Shift=    0.000
 RMSDP=2.54D-03 MaxDP=1.58D-01 DE=-1.69D-01 OVMax= 7.69D-01

 Cycle   3  Pass 1  IDiag  1:
 RMSU=  2.29D-03    CP:  9.61D-01  1.91D+00
 E= -770.264530563348     Delta-E=       -0.260822743025 Rises=F Damp=F
 DIIS: error= 1.49D-02 at cycle   3 NSaved=   3.
 NSaved= 3 IEnMin= 3 EnMin= -770.264530563348     IErMin= 3 ErrMin= 1.49D-02
 ErrMax= 1.49D-02  0.00D+00 EMaxC= 1.00D-01 BMatC= 4.77D-01 BMatP= 4.83D-01
 IDIUse=3 WtCom= 8.51D-01 WtEn= 1.49D-01
 Coeff-Com: -0.506D+00 0.112D+01 0.384D+00
 Coeff-En:   0.000D+00 0.000D+00 0.100D+01
 Coeff:     -0.431D+00 0.955D+00 0.475D+00
 Gap=     0.245 Goal=   None    Shift=    0.000
 Gap=     0.062 Goal=   None    Shift=    0.000
 RMSDP=1.65D-03 MaxDP=1.21D-01 DE=-2.61D-01 OVMax= 2.74D-01

 Cycle   4  Pass 1  IDiag  1:
 RMSU=  1.13D-03    CP:  9.63D-01  1.84D+00  4.75D-01
 E= -770.354591038692     Delta-E=       -0.090060475344 Rises=F Damp=F
 DIIS: error= 8.18D-03 at cycle   4 NSaved=   4.
 NSaved= 4 IEnMin= 4 EnMin= -770.354591038692     IErMin= 4 ErrMin= 8.18D-03
 ErrMax= 8.18D-03  0.00D+00 EMaxC= 1.00D-01 BMatC= 8.82D-02 BMatP= 4.77D-01
 IDIUse=3 WtCom= 9.18D-01 WtEn= 8.18D-02
 Coeff-Com: -0.216D+00 0.451D+00 0.288D+00 0.477D+00
 Coeff-En:   0.000D+00 0.000D+00 0.157D+00 0.843D+00
 Coeff:     -0.198D+00 0.414D+00 0.277D+00 0.507D+00
 Gap=     0.222 Goal=   None    Shift=    0.000
 Gap=     0.069 Goal=   None    Shift=    0.000
 RMSDP=7.55D-04 MaxDP=7.56D-02 DE=-9.01D-02 OVMax= 2.60D-01

 Cycle   5  Pass 1  IDiag  1:
 RMSU=  5.34D-04    CP:  9.62D-01  1.89D+00  6.29D-01  6.50D-01
 E= -770.370535197671     Delta-E=       -0.015944158980 Rises=F Damp=F
 DIIS: error= 4.72D-03 at cycle   5 NSaved=   5.
 NSaved= 5 IEnMin= 5 EnMin= -770.370535197671     IErMin= 5 ErrMin= 4.72D-03
 ErrMax= 4.72D-03  0.00D+00 EMaxC= 1.00D-01 BMatC= 4.07D-02 BMatP= 8.82D-02
 IDIUse=3 WtCom= 9.53D-01 WtEn= 4.72D-02
 Coeff-Com: -0.552D-01 0.886D-01 0.752D-01 0.417D+00 0.474D+00
 Coeff-En:   0.000D+00 0.000D+00 0.000D+00 0.283D+00 0.717D+00
 Coeff:     -0.526D-01 0.844D-01 0.717D-01 0.411D+00 0.486D+00
 Gap=     0.223 Goal=   None    Shift=    0.000
 Gap=     0.070 Goal=   None    Shift=    0.000
 RMSDP=3.15D-04 MaxDP=2.41D-02 DE=-1.59D-02 OVMax= 6.06D-02

 Cycle   6  Pass 1  IDiag  1:
 RMSU=  2.48D-04    CP:  9.61D-01  1.90D+00  5.95D-01  7.79D-01  8.13D-01
 E= -770.379134701221     Delta-E=       -0.008599503549 Rises=F Damp=F
 DIIS: error= 1.13D-03 at cycle   6 NSaved=   6.
 NSaved= 6 IEnMin= 6 EnMin= -770.379134701221     IErMin= 6 ErrMin= 1.13D-03
 ErrMax= 1.13D-03  0.00D+00 EMaxC= 1.00D-01 BMatC= 3.49D-03 BMatP= 4.07D-02
 IDIUse=3 WtCom= 9.89D-01 WtEn= 1.13D-02
 Coeff-Com: -0.225D-01 0.279D-01-0.168D-01 0.154D+00 0.137D+00 0.720D+00
 Coeff-En:   0.000D+00 0.000D+00 0.000D+00 0.000D+00 0.000D+00 0.100D+01
 Coeff:     -0.222D-01 0.276D-01-0.166D-01 0.152D+00 0.136D+00 0.724D+00
 Gap=     0.226 Goal=   None    Shift=    0.000
 Gap=     0.075 Goal=   None    Shift=    0.000
 RMSDP=1.73D-04 MaxDP=1.81D-02 DE=-8.60D-03 OVMax= 3.00D-02

 Cycle   7  Pass 1  IDiag  1:
 RMSU=  1.35D-04    CP:  9.61D-01  1.92D+00  5.69D-01  8.26D-01  9.17D-01
                    CP:  1.18D+00
 E= -770.380455395530     Delta-E=       -0.001320694309 Rises=F Damp=F
 DIIS: error= 9.78D-04 at cycle   7 NSaved=   7.
 NSaved= 7 IEnMin= 7 EnMin= -770.380455395530     IErMin= 7 ErrMin= 9.78D-04
 ErrMax= 9.78D-04  0.00D+00 EMaxC= 1.00D-01 BMatC= 1.86D-03 BMatP= 3.49D-03
 IDIUse=3 WtCom= 9.90D-01 WtEn= 9.78D-03
 Coeff-Com: -0.316D-02 0.185D-02-0.364D-01 0.137D-02-0.103D+00 0.501D+00
 Coeff-Com:  0.639D+00
 Coeff-En:   0.000D+00 0.000D+00 0.000D+00 0.000D+00 0.000D+00 0.000D+00
 Coeff-En:   0.100D+01
 Coeff:     -0.313D-02 0.183D-02-0.360D-01 0.135D-02-0.102D+00 0.496D+00
 Coeff:      0.643D+00
 Gap=     0.227 Goal=   None    Shift=    0.000
 Gap=     0.079 Goal=   None    Shift=    0.000
 RMSDP=1.50D-04 MaxDP=1.84D-02 DE=-1.32D-03 OVMax= 3.88D-02

 Cycle   8  Pass 1  IDiag  1:
 RMSU=  7.59D-05    CP:  9.61D-01  1.93D+00  5.52D-01  8.54D-01  9.66D-01
                    CP:  1.61D+00  1.33D+00
 E= -770.381572652225     Delta-E=       -0.001117256696 Rises=F Damp=F
 DIIS: error= 8.63D-04 at cycle   8 NSaved=   8.
 NSaved= 8 IEnMin= 8 EnMin= -770.381572652225     IErMin= 8 ErrMin= 8.63D-04
 ErrMax= 8.63D-04  0.00D+00 EMaxC= 1.00D-01 BMatC= 3.29D-04 BMatP= 1.86D-03
 IDIUse=3 WtCom= 9.91D-01 WtEn= 8.63D-03
 Coeff-Com: -0.149D-02 0.344D-02-0.969D-02-0.717D-02-0.755D-01 0.793D-01
 Coeff-Com:  0.217D+00 0.794D+00
 Coeff-En:   0.000D+00 0.000D+00 0.000D+00 0.000D+00 0.000D+00 0.000D+00
 Coeff-En:   0.000D+00 0.100D+01
 Coeff:     -0.147D-02 0.341D-02-0.960D-02-0.711D-02-0.749D-01 0.786D-01
 Coeff:      0.215D+00 0.796D+00
 Gap=     0.227 Goal=   None    Shift=    0.000
 Gap=     0.080 Goal=   None    Shift=    0.000
 RMSDP=1.38D-04 MaxDP=2.05D-02 DE=-1.12D-03 OVMax= 4.37D-02

 Cycle   9  Pass 1  IDiag  1:
 RMSU=  4.34D-05    CP:  9.60D-01  1.94D+00  5.37D-01  8.72D-01  9.90D-01
                    CP:  1.88D+00  1.93D+00  1.83D+00
 E= -770.382375911882     Delta-E=       -0.000803259657 Rises=F Damp=F
 DIIS: error= 8.75D-04 at cycle   9 NSaved=   9.
 NSaved= 9 IEnMin= 9 EnMin= -770.382375911882     IErMin= 8 ErrMin= 8.63D-04
 ErrMax= 8.75D-04  0.00D+00 EMaxC= 1.00D-01 BMatC= 2.24D-04 BMatP= 3.29D-04
 IDIUse=3 WtCom= 9.91D-01 WtEn= 8.63D-03
 Coeff-Com: -0.263D-02 0.641D-02 0.377D-02 0.713D-02-0.174D-01-0.484D-01
 Coeff-Com: -0.429D-01 0.500D+00 0.594D+00
 Coeff-En:   0.000D+00 0.000D+00 0.000D+00 0.000D+00 0.000D+00 0.000D+00
 Coeff-En:   0.000D+00 0.000D+00 0.100D+01
 Coeff:     -0.261D-02 0.635D-02 0.374D-02 0.707D-02-0.172D-01-0.480D-01
 Coeff:     -0.426D-01 0.496D+00 0.597D+00
 Gap=     0.228 Goal=   None    Shift=    0.000
 Gap=     0.081 Goal=   None    Shift=    0.000
 RMSDP=1.12D-04 MaxDP=1.71D-02 DE=-8.03D-04 OVMax= 3.54D-02

 Cycle  10  Pass 1  IDiag  1:
 RMSU=  1.99D-05    CP:  9.60D-01  1.95D+00  5.26D-01  8.83D-01  9.92D-01
                    CP:  2.07D+00  2.39D+00  2.68D+00  1.67D+00
 E= -770.383044396613     Delta-E=       -0.000668484730 Rises=F Damp=F
 DIIS: error= 9.01D-04 at cycle  10 NSaved=  10.
 NSaved=10 IEnMin=10 EnMin= -770.383044396613     IErMin= 8 ErrMin= 8.63D-04
 ErrMax= 9.01D-04  0.00D+00 EMaxC= 1.00D-01 BMatC= 1.86D-04 BMatP= 2.24D-04
 IDIUse=3 WtCom= 9.91D-01 WtEn= 8.63D-03
 Coeff-Com: -0.265D-02 0.614D-02 0.392D-02 0.104D-01-0.693D-02-0.386D-01
 Coeff-Com: -0.515D-01 0.381D+00 0.431D+00 0.267D+00
 Coeff-En:   0.000D+00 0.000D+00 0.000D+00 0.000D+00 0.000D+00 0.000D+00
 Coeff-En:   0.000D+00 0.000D+00 0.000D+00 0.100D+01
 Coeff:     -0.263D-02 0.609D-02 0.389D-02 0.103D-01-0.687D-02-0.382D-01
 Coeff:     -0.510D-01 0.377D+00 0.428D+00 0.273D+00
 Gap=     0.228 Goal=   None    Shift=    0.000
 Gap=     0.082 Goal=   None    Shift=    0.000
 RMSDP=4.03D-05 MaxDP=6.04D-03 DE=-6.68D-04 OVMax= 1.24D-02

 Cycle  11  Pass 1  IDiag  1:
 RMSU=  2.85D-06    CP:  9.60D-01  1.96D+00  5.21D-01  8.87D-01  9.89D-01
                    CP:  2.13D+00  2.55D+00  3.00D+00  1.99D+00  1.31D+00
 E= -770.383283750954     Delta-E=       -0.000239354341 Rises=F Damp=F
 DIIS: error= 9.08D-04 at cycle  11 NSaved=  11.
 NSaved=11 IEnMin=11 EnMin= -770.383283750954     IErMin= 8 ErrMin= 8.63D-04
 ErrMax= 9.08D-04  0.00D+00 EMaxC= 1.00D-01 BMatC= 1.87D-04 BMatP= 1.86D-04
 IDIUse=3 WtCom= 9.91D-01 WtEn= 8.63D-03
 Coeff-Com: -0.212D-02 0.583D-02 0.628D-02 0.641D-02-0.150D-01-0.895D-01
 Coeff-Com: -0.107D+00 0.512D+00 0.972D+00 0.406D+01-0.435D+01
 Coeff-En:   0.000D+00 0.000D+00 0.000D+00 0.000D+00 0.000D+00 0.000D+00
 Coeff-En:   0.000D+00 0.000D+00 0.000D+00 0.000D+00 0.100D+01
 Coeff:     -0.210D-02 0.578D-02 0.623D-02 0.635D-02-0.149D-01-0.887D-01
 Coeff:     -0.106D+00 0.508D+00 0.963D+00 0.403D+01-0.431D+01
 Gap=     0.228 Goal=   None    Shift=    0.000
 Gap=     0.081 Goal=   None    Shift=    0.000
 RMSDP=2.25D-04 MaxDP=3.32D-02 DE=-2.39D-04 OVMax= 7.03D-02

 Cycle  12  Pass 1  IDiag  1:
 RMSU=  2.18D-05    CP:  9.60D-01  1.94D+00  5.43D-01  8.63D-01  1.01D+00
                    CP:  1.82D+00  1.64D+00  1.25D+00  1.64D-01 -5.63D-01
                    CP: -1.34D+00
 E= -770.381978069642     Delta-E=        0.001305681312 Rises=F Damp=F
 DIIS: error= 8.83D-04 at cycle  12 NSaved=  12.
 NSaved=12 IEnMin=11 EnMin= -770.383283750954     IErMin= 8 ErrMin= 8.63D-04
 ErrMax= 8.83D-04  0.00D+00 EMaxC= 1.00D-01 BMatC= 1.87D-04 BMatP= 1.86D-04
 IDIUse=3 WtCom= 9.91D-01 WtEn= 8.63D-03
 Large coefficients: NSaved= 12 BigCof=   21.20 CofMax=   10.00 Det=-9.15D-08
 Inversion failed.  Reducing to 11 matrices.
 Large coefficients: NSaved= 11 BigCof=   20.96 CofMax=   10.00 Det=-9.46D-08
 Inversion failed.  Reducing to 10 matrices.
 Large coefficients: NSaved= 10 BigCof=   20.65 CofMax=   10.00 Det=-9.58D-08
 Inversion failed.  Reducing to  9 matrices.
 Large coefficients: NSaved=  9 BigCof=   17.71 CofMax=   10.00 Det=-1.10D-07
 Inversion failed.  Reducing to  8 matrices.
 Large coefficients: NSaved=  8 BigCof=   17.84 CofMax=   10.00 Det=-1.10D-07
 Inversion failed.  Reducing to  7 matrices.
 Large coefficients: NSaved=  7 BigCof=   13.48 CofMax=   10.00 Det=-1.25D-07
 Inversion failed.  Reducing to  6 matrices.
 Large coefficients: NSaved=  6 BigCof=   12.39 CofMax=   10.00 Det=-1.30D-07
 Inversion failed.  Reducing to  5 matrices.
 Rare condition: small coef for last iteration:  0.000D+00
 Coeff-Com: -0.196D+00-0.771D-01 0.573D+01-0.573D+01 0.127D+01
 Coeff-En:   0.000D+00 0.000D+00 0.000D+00 0.000D+00 0.100D+01
 Coeff:     -0.196D+00-0.771D-01 0.573D+01-0.573D+01 0.127D+01
 Gap=     0.228 Goal=   None    Shift=    0.000
 Gap=     0.082 Goal=   None    Shift=    0.000
 RMSDP=8.72D-05 MaxDP=1.27D-02 DE= 1.31D-03 OVMax= 2.57D-02

 Cycle  13  Pass 1  IDiag  1:
 RMSU=  1.17D-05    CP:  9.60D-01  1.93D+00  5.46D-01  8.59D-01  1.01D+00
                    CP:  1.74D+00  1.27D+00  6.13D-01 -6.59D-01 -1.42D+00
                    CP: -1.37D+00  2.07D+00
 E= -770.381515422321     Delta-E=        0.000462647321 Rises=F Damp=F
 DIIS: error= 7.87D-04 at cycle  13 NSaved=   6.
 NSaved= 6 IEnMin= 4 EnMin= -770.383283750954     IErMin= 6 ErrMin= 7.87D-04
 ErrMax= 7.87D-04  0.00D+00 EMaxC= 1.00D-01 BMatC= 2.08D-04 BMatP= 1.86D-04
 IDIUse=3 WtCom= 9.91D-01 WtEn= 8.63D-03
 Large coefficients: NSaved=  6 BigCof=   19.61 CofMax=   10.00 Det=-1.19D-07
 Inversion failed.  Reducing to  5 matrices.
 Large coefficients: NSaved=  5 BigCof=   18.76 CofMax=   10.00 Det=-1.39D-07
 Inversion failed.  Reducing to  4 matrices.
 Large coefficients: NSaved=  4 BigCof=   12.08 CofMax=   10.00 Det=-2.21D-07
 Inversion failed.  Reducing to  3 matrices.
 Rare condition: small coef for last iteration:  0.000D+00
 Coeff-Com: -0.482D+00 0.973D+00 0.510D+00
 Coeff-En:   0.000D+00 0.000D+00 0.100D+01
 Coeff:     -0.482D+00 0.973D+00 0.510D+00
 Gap=     0.228 Goal=   None    Shift=    0.000
 Gap=     0.081 Goal=   None    Shift=    0.000
 RMSDP=7.25D-05 MaxDP=1.12D-02 DE= 4.63D-04 OVMax= 2.26D-02

 Cycle  14  Pass 1  IDiag  1:
 RMSU=  4.39D-06    CP:  9.60D-01  1.94D+00  5.41D-01  8.66D-01  1.01D+00
                    CP:  1.82D+00  1.61D+00  1.11D+00 -1.00D-01 -7.23D-01
                    CP: -3.00D+00  1.30D+00  1.00D+00
 E= -770.381912976330     Delta-E=       -0.000397554009 Rises=F Damp=F
 DIIS: error= 8.54D-04 at cycle  14 NSaved=   4.
 NSaved= 4 IEnMin= 1 EnMin= -770.383283750954     IErMin= 3 ErrMin= 7.87D-04
 ErrMax= 8.54D-04  0.00D+00 EMaxC= 1.00D-01 BMatC= 1.85D-04 BMatP= 1.87D-04
 IDIUse=3 WtCom= 9.91D-01 WtEn= 8.54D-03
 Coeff-Com: -0.317D+01 0.248D+01 0.326D+00 0.136D+01
 Coeff-En:   0.000D+00 0.000D+00 0.000D+00 0.100D+01
 Coeff:     -0.314D+01 0.246D+01 0.323D+00 0.136D+01
 Gap=     0.227 Goal=   None    Shift=    0.000
 Gap=     0.083 Goal=   None    Shift=    0.000
 RMSDP=5.42D-04 MaxDP=7.63D-02 DE=-3.98D-04 OVMax= 1.68D-01

 Cycle  15  Pass 1  IDiag  1:
 RMSU=  1.73D-04    CP:  9.60D-01  1.91D+00  5.68D-01  7.78D-01  1.00D+00
                    CP:  1.06D+00 -6.06D-01 -2.60D+00 -3.00D+00 -3.00D+00
                    CP:  3.00D+00  3.00D+00  3.00D+00 -1.88D+00
 E= -770.379110803820     Delta-E=        0.002802172510 Rises=F Damp=F
 DIIS: error= 7.38D-04 at cycle  15 NSaved=   5.
 NSaved= 5 IEnMin= 1 EnMin= -770.383283750954     IErMin= 5 ErrMin= 7.38D-04
 ErrMax= 7.38D-04  0.00D+00 EMaxC= 1.00D-01 BMatC= 4.16D-04 BMatP= 1.85D-04
 IDIUse=3 WtCom= 9.91D-01 WtEn= 8.54D-03
 Rare condition: small coef for last iteration:  0.000D+00
 Coeff-Com: -0.344D+01 0.284D+01 0.368D+00 0.142D+01-0.185D+00
 Coeff-En:   0.000D+00 0.000D+00 0.000D+00 0.000D+00 0.100D+01
 Coeff:     -0.344D+01 0.284D+01 0.368D+00 0.142D+01-0.185D+00
 Gap=     0.227 Goal=   None    Shift=    0.000
 Gap=     0.092 Goal=   None    Shift=    0.000
 RMSDP=3.33D-05 MaxDP=4.28D-03 DE= 2.80D-03 OVMax= 1.09D-02

 Cycle  16  Pass 1  IDiag  1:
 RMSU=  1.03D-05    CP:  9.60D-01  1.91D+00  5.69D-01  7.81D-01  1.01D+00
                    CP:  1.11D+00 -4.82D-01 -2.39D+00 -3.00D+00 -3.00D+00
                    CP:  3.00D+00  3.00D+00  3.00D+00 -2.26D+00  9.01D-01
 E= -770.379211718817     Delta-E=       -0.000100914997 Rises=F Damp=F
 DIIS: error= 7.74D-04 at cycle  16 NSaved=   6.
 NSaved= 6 IEnMin= 1 EnMin= -770.383283750954     IErMin= 5 ErrMin= 7.38D-04
 ErrMax= 7.74D-04  0.00D+00 EMaxC= 1.00D-01 BMatC= 5.19D-04 BMatP= 1.85D-04
 IDIUse=3 WtCom= 9.91D-01 WtEn= 8.54D-03
 Coeff-Com: -0.528D+01 0.414D+01 0.916D+00 0.185D+01-0.283D+01 0.220D+01
 Coeff-En:   0.000D+00 0.000D+00 0.000D+00 0.000D+00 0.000D+00 0.100D+01
 Coeff:     -0.524D+01 0.411D+01 0.908D+00 0.183D+01-0.280D+01 0.219D+01
 Gap=     0.226 Goal=   None    Shift=    0.000
 Gap=     0.101 Goal=   None    Shift=    0.000
 RMSDP=8.43D-05 MaxDP=1.06D-02 DE=-1.01D-04 OVMax= 2.14D-02

 Cycle  17  Pass 1  IDiag  1:
 RMSU=  2.42D-05    CP:  9.60D-01  1.92D+00  5.71D-01  7.64D-01  1.02D+00
                    CP:  1.03D+00 -7.17D-01 -2.84D+00 -3.00D+00 -3.00D+00
                    CP:  3.00D+00  3.00D+00  3.00D+00 -3.00D+00  1.23D+00
                    CP:  1.57D+00
 E= -770.378648865466     Delta-E=        0.000562853350 Rises=F Damp=F
 DIIS: error= 8.95D-04 at cycle  17 NSaved=   7.
 NSaved= 7 IEnMin= 1 EnMin= -770.383283750954     IErMin= 5 ErrMin= 7.38D-04
 ErrMax= 8.95D-04  0.00D+00 EMaxC= 1.00D-01 BMatC= 1.12D-03 BMatP= 1.85D-04
 IDIUse=3 WtCom= 9.91D-01 WtEn= 8.54D-03
 Rare condition: small coef for last iteration:  0.000D+00
 Coeff-Com: -0.418D+01 0.331D+01-0.380D+00 0.148D+01 0.136D+01 0.745D+00
 Coeff-Com: -0.133D+01
 Coeff-En:   0.000D+00 0.000D+00 0.000D+00 0.000D+00 0.000D+00 0.000D+00
 Coeff-En:   0.100D+01
 Coeff:     -0.418D+01 0.331D+01-0.380D+00 0.148D+01 0.136D+01 0.745D+00
 Coeff:     -0.133D+01
 Gap=     0.226 Goal=   None    Shift=    0.000
 Gap=     0.100 Goal=   None    Shift=    0.000
 RMSDP=3.21D-04 MaxDP=3.84D-02 DE= 5.63D-04 OVMax= 8.81D-02

 Cycle  18  Pass 1  IDiag  1:
 RMSU=  1.22D-04    CP:  9.60D-01  1.93D+00  5.62D-01  7.18D-01  9.42D-01
                    CP:  5.52D-01 -1.83D+00 -3.00D+00 -3.00D+00 -3.00D+00
                    CP:  3.00D+00  3.00D+00  3.00D+00 -3.00D+00  2.40D+00
                    CP: -3.00D+00  7.99D-01
 E= -770.377433775273     Delta-E=        0.001215090193 Rises=F Damp=F
 DIIS: error= 1.23D-03 at cycle  18 NSaved=   8.
 NSaved= 8 IEnMin= 1 EnMin= -770.383283750954     IErMin= 5 ErrMin= 7.38D-04
 ErrMax= 1.23D-03  0.00D+00 EMaxC= 1.00D-01 BMatC= 1.55D-03 BMatP= 1.85D-04
 IDIUse=3 WtCom= 9.91D-01 WtEn= 8.54D-03
 Rare condition: small coef for last iteration:  0.000D+00
 Coeff-Com: -0.462D+01 0.381D+01-0.633D+00 0.145D+01 0.138D+01 0.146D+01
 Coeff-Com: -0.217D+01 0.332D+00
 Coeff-En:   0.000D+00 0.000D+00 0.000D+00 0.000D+00 0.000D+00 0.000D+00
 Coeff-En:   0.000D+00 0.100D+01
 Coeff:     -0.462D+01 0.381D+01-0.633D+00 0.145D+01 0.138D+01 0.146D+01
 Coeff:     -0.217D+01 0.332D+00
 Gap=     0.225 Goal=   None    Shift=    0.000
 Gap=     0.109 Goal=   None    Shift=    0.000
 RMSDP=1.54D-04 MaxDP=1.62D-02 DE= 1.22D-03 OVMax= 4.16D-02

 Cycle  19  Pass 1  IDiag  1:
 RMSU=  2.76D-05    CP:  9.60D-01  1.94D+00  5.56D-01  6.92D-01  8.99D-01
                    CP:  3.68D-01 -2.30D+00 -3.00D+00 -3.00D+00 -3.00D+00
                    CP:  3.00D+00  3.00D+00  3.00D+00 -3.00D+00  3.00D+00
                    CP: -3.00D+00  9.97D-01  1.43D+00
 E= -770.376823286320     Delta-E=        0.000610488953 Rises=F Damp=F
 DIIS: error= 1.61D-03 at cycle  19 NSaved=   9.
 NSaved= 9 IEnMin= 1 EnMin= -770.383283750954     IErMin= 5 ErrMin= 7.38D-04
 ErrMax= 1.61D-03  0.00D+00 EMaxC= 1.00D-01 BMatC= 2.16D-03 BMatP= 1.85D-04
 IDIUse=3 WtCom= 9.91D-01 WtEn= 8.54D-03
 Rare condition: small coef for last iteration:  0.000D+00
 Coeff-Com: -0.147D+01 0.133D+01-0.131D+01 0.564D+00 0.439D+01-0.599D+00
 Coeff-Com: -0.249D+01 0.179D+01-0.120D+01
 Coeff-En:   0.000D+00 0.000D+00 0.000D+00 0.000D+00 0.000D+00 0.000D+00
 Coeff-En:   0.000D+00 0.000D+00 0.100D+01
 Coeff:     -0.147D+01 0.133D+01-0.131D+01 0.564D+00 0.439D+01-0.599D+00
 Coeff:     -0.249D+01 0.179D+01-0.120D+01
 Gap=     0.226 Goal=   None    Shift=    0.000
 Gap=     0.095 Goal=   None    Shift=    0.000
 RMSDP=1.06D-04 MaxDP=1.16D-02 DE= 6.10D-04 OVMax= 2.41D-02

 Cycle  20  Pass 1  IDiag  1:
 RMSU=  3.11D-05    CP:  9.60D-01  1.93D+00  5.57D-01  7.09D-01  8.91D-01
                    CP:  4.25D-01 -2.11D+00 -3.00D+00 -3.00D+00 -3.00D+00
                    CP:  3.00D+00  3.00D+00  3.00D+00 -3.00D+00  2.58D+00
                    CP: -3.00D+00 -6.08D-01  1.19D+00  6.51D-01
 E= -770.377617703962     Delta-E=       -0.000794417642 Rises=F Damp=F
 DIIS: error= 9.35D-04 at cycle  20 NSaved=  10.
 NSaved=10 IEnMin= 1 EnMin= -770.383283750954     IErMin= 5 ErrMin= 7.38D-04
 ErrMax= 9.35D-04  0.00D+00 EMaxC= 1.00D-01 BMatC= 7.01D-04 BMatP= 1.85D-04
 IDIUse=3 WtCom= 9.91D-01 WtEn= 8.54D-03
 Coeff-Com:  0.626D+00-0.595D-01-0.118D+01-0.297D+00 0.314D+01-0.819D+00
 Coeff-Com: -0.156D+01 0.157D+01-0.185D+01 0.144D+01
 Coeff-En:   0.000D+00 0.000D+00 0.000D+00 0.000D+00 0.000D+00 0.000D+00
 Coeff-En:   0.000D+00 0.000D+00 0.000D+00 0.100D+01
 Coeff:      0.621D+00-0.590D-01-0.117D+01-0.295D+00 0.311D+01-0.812D+00
 Coeff:     -0.155D+01 0.156D+01-0.184D+01 0.143D+01
 Gap=     0.227 Goal=   None    Shift=    0.000
 Gap=     0.079 Goal=   None    Shift=    0.000
 RMSDP=9.07D-05 MaxDP=7.36D-03 DE=-7.94D-04 OVMax= 1.84D-02

 Cycle  21  Pass 1  IDiag  1:
 Restarting incremental Fock formation.
 E= -770.378008697576     Delta-E=       -0.000390993613 Rises=F Damp=F
 DIIS: error= 3.78D-04 at cycle  21 NSaved=  11.
 NSaved=11 IEnMin= 1 EnMin= -770.383283750954     IErMin=11 ErrMin= 3.78D-04
 ErrMax= 3.78D-04  0.00D+00 EMaxC= 1.00D-01 BMatC= 9.94D-05 BMatP= 1.85D-04
 IDIUse=3 WtCom= 9.96D-01 WtEn= 3.78D-03
 Coeff-Com: -0.615D+00 0.913D+00-0.755D-01-0.339D+00-0.261D+01 0.141D+01
 Coeff-Com:  0.801D+00-0.538D+00-0.555D+00 0.131D+01 0.130D+01
 Coeff-En:   0.000D+00 0.000D+00 0.000D+00 0.000D+00 0.000D+00 0.000D+00
 Coeff-En:   0.000D+00 0.000D+00 0.000D+00 0.000D+00 0.100D+01
 Coeff:     -0.613D+00 0.909D+00-0.752D-01-0.338D+00-0.260D+01 0.140D+01
 Coeff:      0.798D+00-0.536D+00-0.553D+00 0.131D+01 0.130D+01
 Gap=     0.227 Goal=   None    Shift=    0.000
 Gap=     0.081 Goal=   None    Shift=    0.000
 RMSDP=2.57D-04 MaxDP=2.93D-02 DE=-3.91D-04 OVMax= 7.37D-02

 Cycle  22  Pass 1  IDiag  1:
 RMSU=  2.57D-04    CP:  1.00D+00
 E= -770.377545900715     Delta-E=        0.000462796860 Rises=F Damp=F
 DIIS: error= 4.95D-04 at cycle  22 NSaved=  12.
 NSaved=12 IEnMin= 1 EnMin= -770.383283750954     IErMin=11 ErrMin= 3.78D-04
 ErrMax= 4.95D-04  0.00D+00 EMaxC= 1.00D-01 BMatC= 1.69D-04 BMatP= 9.94D-05
 IDIUse=3 WtCom= 9.96D-01 WtEn= 3.78D-03
 Rare condition: small coef for last iteration:  0.000D+00
 Coeff-Com: -0.117D+00 0.133D+00 0.229D+00-0.230D+00-0.199D+01 0.568D+00
 Coeff-Com:  0.118D+01-0.487D+00-0.350D+00 0.243D+00 0.795D+00 0.102D+01
 Coeff-En:   0.000D+00 0.000D+00 0.000D+00 0.000D+00 0.000D+00 0.000D+00
 Coeff-En:   0.000D+00 0.000D+00 0.000D+00 0.000D+00 0.000D+00 0.100D+01
 Coeff:     -0.117D+00 0.133D+00 0.229D+00-0.230D+00-0.199D+01 0.568D+00
 Coeff:      0.118D+01-0.487D+00-0.350D+00 0.243D+00 0.795D+00 0.102D+01
 Gap=     0.226 Goal=   None    Shift=    0.000
 Gap=     0.075 Goal=   None    Shift=    0.000
 RMSDP=1.04D-04 MaxDP=1.41D-02 DE= 4.63D-04 OVMax= 3.09D-02

 Cycle  23  Pass 1  IDiag  1:
 RMSU=  4.65D-05    CP:  1.00D+00  1.36D+00
 E= -770.377549268439     Delta-E=       -0.000003367723 Rises=F Damp=F
 DIIS: error= 2.21D-04 at cycle  23 NSaved=  13.
 NSaved=13 IEnMin= 1 EnMin= -770.383283750954     IErMin=13 ErrMin= 2.21D-04
 ErrMax= 2.21D-04  0.00D+00 EMaxC= 1.00D-01 BMatC= 3.20D-05 BMatP= 9.94D-05
 IDIUse=3 WtCom= 9.98D-01 WtEn= 2.21D-03
 Coeff-Com:  0.207D-01-0.192D+00 0.206D+00 0.166D-01-0.527D+00-0.109D+00
 Coeff-Com:  0.677D+00-0.115D+00-0.132D+00-0.441D+00 0.806D-01 0.665D+00
 Coeff-Com:  0.850D+00
 Coeff-En:   0.000D+00 0.000D+00 0.000D+00 0.000D+00 0.000D+00 0.000D+00
 Coeff-En:   0.000D+00 0.000D+00 0.000D+00 0.000D+00 0.000D+00 0.000D+00
 Coeff-En:   0.100D+01
 Coeff:      0.206D-01-0.191D+00 0.206D+00 0.165D-01-0.526D+00-0.108D+00
 Coeff:      0.675D+00-0.114D+00-0.132D+00-0.440D+00 0.804D-01 0.664D+00
 Coeff:      0.851D+00
 Gap=     0.226 Goal=   None    Shift=    0.000
 Gap=     0.071 Goal=   None    Shift=    0.000
 RMSDP=7.09D-05 MaxDP=9.77D-03 DE=-3.37D-06 OVMax= 2.05D-02

 Cycle  24  Pass 1  IDiag  1:
 RMSU=  7.60D-06    CP:  1.00D+00  1.61D+00  1.67D+00
 E= -770.377544635833     Delta-E=        0.000004632606 Rises=F Damp=F
 DIIS: error= 3.14D-05 at cycle  24 NSaved=  14.
 NSaved=14 IEnMin= 1 EnMin= -770.383283750954     IErMin=14 ErrMin= 3.14D-05
 ErrMax= 3.14D-05  0.00D+00 EMaxC= 1.00D-01 BMatC= 1.33D-06 BMatP= 3.20D-05
 IDIUse=1 WtCom= 1.00D+00 WtEn= 0.00D+00
 Coeff-Com:  0.310D-01-0.101D+00 0.171D-01 0.492D-01 0.203D+00-0.163D+00
 Coeff-Com:  0.591D-01 0.671D-01-0.129D-01-0.235D+00-0.140D+00 0.611D-01
 Coeff-Com:  0.313D+00 0.851D+00
 Coeff:      0.310D-01-0.101D+00 0.171D-01 0.492D-01 0.203D+00-0.163D+00
 Coeff:      0.591D-01 0.671D-01-0.129D-01-0.235D+00-0.140D+00 0.611D-01
 Coeff:      0.313D+00 0.851D+00
 Gap=     0.226 Goal=   None    Shift=    0.000
 Gap=     0.070 Goal=   None    Shift=    0.000
 RMSDP=2.34D-05 MaxDP=3.25D-03 DE= 4.63D-06 OVMax= 6.75D-03

 Cycle  25  Pass 1  IDiag  1:
 RMSU=  2.73D-06    CP:  1.00D+00  1.69D+00  1.86D+00  1.39D+00
 E= -770.377543181416     Delta-E=        0.000001454417 Rises=F Damp=F
 DIIS: error= 1.31D-05 at cycle  25 NSaved=  15.
 NSaved=15 IEnMin= 1 EnMin= -770.383283750954     IErMin=15 ErrMin= 1.31D-05
 ErrMax= 1.31D-05  0.00D+00 EMaxC= 1.00D-01 BMatC= 3.37D-07 BMatP= 1.33D-06
 IDIUse=1 WtCom= 1.00D+00 WtEn= 0.00D+00
 Coeff-Com: -0.261D-01 0.605D-02-0.193D-01 0.304D-01 0.151D+00-0.381D-01
 Coeff-Com: -0.649D-01 0.373D-01 0.294D-01-0.736D-01-0.826D-01-0.504D-01
 Coeff-Com:  0.449D-01 0.487D+00 0.569D+00
 Coeff:     -0.261D-01 0.605D-02-0.193D-01 0.304D-01 0.151D+00-0.381D-01
 Coeff:     -0.649D-01 0.373D-01 0.294D-01-0.736D-01-0.826D-01-0.504D-01
 Coeff:      0.449D-01 0.487D+00 0.569D+00
 Gap=     0.226 Goal=   None    Shift=    0.000
 Gap=     0.070 Goal=   None    Shift=    0.000
 RMSDP=5.44D-06 MaxDP=5.60D-04 DE= 1.45D-06 OVMax= 1.65D-03

 Cycle  26  Pass 1  IDiag  1:
 RMSU=  1.51D-06    CP:  1.00D+00  1.71D+00  1.83D+00  1.57D+00  1.24D+00
 E= -770.377543206843     Delta-E=       -0.000000025427 Rises=F Damp=F
 DIIS: error= 8.54D-06 at cycle  26 NSaved=  16.
 NSaved=16 IEnMin= 1 EnMin= -770.383283750954     IErMin=16 ErrMin= 8.54D-06
 ErrMax= 8.54D-06  0.00D+00 EMaxC= 1.00D-01 BMatC= 9.20D-08 BMatP= 3.37D-07
 IDIUse=1 WtCom= 1.00D+00 WtEn= 0.00D+00
 Coeff-Com: -0.385D-01 0.334D-01-0.256D-02 0.734D-02 0.353D-03 0.269D-01
 Coeff-Com: -0.378D-01 0.705D-02-0.195D-03 0.369D-01 0.753D-02-0.392D-01
 Coeff-Com: -0.516D-01-0.778D-01 0.211D+00 0.917D+00
 Coeff:     -0.385D-01 0.334D-01-0.256D-02 0.734D-02 0.353D-03 0.269D-01
 Coeff:     -0.378D-01 0.705D-02-0.195D-03 0.369D-01 0.753D-02-0.392D-01
 Coeff:     -0.516D-01-0.778D-01 0.211D+00 0.917D+00
 Gap=     0.226 Goal=   None    Shift=    0.000
 Gap=     0.070 Goal=   None    Shift=    0.000
 RMSDP=1.43D-06 MaxDP=1.07D-04 DE=-2.54D-08 OVMax= 3.18D-04

 Cycle  27  Pass 1  IDiag  1:
 RMSU=  5.59D-07    CP:  1.00D+00  1.71D+00  1.81D+00  1.61D+00  1.40D+00
                    CP:  1.25D+00
 E= -770.377543164261     Delta-E=        0.000000042582 Rises=F Damp=F
 DIIS: error= 1.57D-05 at cycle  27 NSaved=  17.
 NSaved=17 IEnMin= 1 EnMin= -770.383283750954     IErMin=16 ErrMin= 8.54D-06
 ErrMax= 1.57D-05  0.00D+00 EMaxC= 1.00D-01 BMatC= 1.82D-07 BMatP= 9.20D-08
 IDIUse=1 WtCom= 1.00D+00 WtEn= 0.00D+00
 Coeff-Com: -0.252D-02 0.183D-02 0.386D-02-0.304D-02-0.126D-01 0.472D-02
 Coeff-Com: -0.353D-02 0.833D-02-0.208D-01 0.346D-01 0.162D-01-0.227D-01
 Coeff-Com: -0.275D-01-0.119D+00 0.311D-01 0.357D+00 0.755D+00
 Coeff:     -0.252D-02 0.183D-02 0.386D-02-0.304D-02-0.126D-01 0.472D-02
 Coeff:     -0.353D-02 0.833D-02-0.208D-01 0.346D-01 0.162D-01-0.227D-01
 Coeff:     -0.275D-01-0.119D+00 0.311D-01 0.357D+00 0.755D+00
 Gap=     0.226 Goal=   None    Shift=    0.000
 Gap=     0.070 Goal=   None    Shift=    0.000
 RMSDP=1.78D-06 MaxDP=1.17D-04 DE= 4.26D-08 OVMax= 3.82D-04

 Cycle  28  Pass 1  IDiag  1:
 RMSU=  3.93D-07    CP:  1.00D+00  1.71D+00  1.85D+00  1.59D+00  1.34D+00
                    CP:  1.07D+00  1.42D+00
 E= -770.377543260987     Delta-E=       -0.000000096725 Rises=F Damp=F
 DIIS: error= 1.88D-06 at cycle  28 NSaved=  18.
 NSaved=18 IEnMin= 1 EnMin= -770.383283750954     IErMin=18 ErrMin= 1.88D-06
 ErrMax= 1.88D-06  0.00D+00 EMaxC= 1.00D-01 BMatC= 6.54D-09 BMatP= 9.20D-08
 IDIUse=1 WtCom= 1.00D+00 WtEn= 0.00D+00
 Coeff-Com:  0.819D-02-0.441D-02 0.111D-02-0.425D-02-0.165D-01 0.818D-03
 Coeff-Com:  0.124D-01-0.232D-02-0.833D-02 0.761D-02 0.987D-02 0.798D-04
 Coeff-Com: -0.625D-02-0.439D-01-0.437D-01-0.103D+00 0.372D+00 0.821D+00
 Coeff:      0.819D-02-0.441D-02 0.111D-02-0.425D-02-0.165D-01 0.818D-03
 Coeff:      0.124D-01-0.232D-02-0.833D-02 0.761D-02 0.987D-02 0.798D-04
 Coeff:     -0.625D-02-0.439D-01-0.437D-01-0.103D+00 0.372D+00 0.821D+00
 Gap=     0.226 Goal=   None    Shift=    0.000
 Gap=     0.070 Goal=   None    Shift=    0.000
 RMSDP=7.72D-07 MaxDP=5.69D-05 DE=-9.67D-08 OVMax= 1.76D-04

 Cycle  29  Pass 1  IDiag  1:
 RMSU=  1.87D-07    CP:  1.00D+00  1.71D+00  1.87D+00  1.59D+00  1.34D+00
                    CP:  9.72D-01  1.62D+00  1.47D+00
 E= -770.377543260367     Delta-E=        0.000000000619 Rises=F Damp=F
 DIIS: error= 3.67D-06 at cycle  29 NSaved=  19.
 NSaved=19 IEnMin= 1 EnMin= -770.383283750954     IErMin=18 ErrMin= 1.88D-06
 ErrMax= 3.67D-06  0.00D+00 EMaxC= 1.00D-01 BMatC= 1.25D-08 BMatP= 6.54D-09
 IDIUse=1 WtCom= 1.00D+00 WtEn= 0.00D+00
 Coeff-Com: -0.220D-02 0.381D-02 0.286D-03-0.222D-03-0.137D-01 0.592D-02
 Coeff-Com:  0.641D-02-0.679D-02 0.449D-02-0.267D-02 0.352D-02 0.916D-02
 Coeff-Com: -0.259D-02-0.135D-01-0.446D-01-0.466D-01 0.458D-01 0.107D+00
 Coeff-Com:  0.946D+00
 Coeff:     -0.220D-02 0.381D-02 0.286D-03-0.222D-03-0.137D-01 0.592D-02
 Coeff:      0.641D-02-0.679D-02 0.449D-02-0.267D-02 0.352D-02 0.916D-02
 Coeff:     -0.259D-02-0.135D-01-0.446D-01-0.466D-01 0.458D-01 0.107D+00
 Coeff:      0.946D+00
 Gap=     0.226 Goal=   None    Shift=    0.000
 Gap=     0.070 Goal=   None    Shift=    0.000
 RMSDP=4.46D-07 MaxDP=2.74D-05 DE= 6.19D-10 OVMax= 8.36D-05

 Cycle  30  Pass 1  IDiag  1:
 RMSU=  9.02D-08    CP:  1.00D+00  1.71D+00  1.86D+00  1.59D+00  1.37D+00
                    CP:  1.02D+00  1.67D+00  1.57D+00  1.40D+00
 E= -770.377543266768     Delta-E=       -0.000000006400 Rises=F Damp=F
 DIIS: error= 4.28D-07 at cycle  30 NSaved=  20.
 NSaved=20 IEnMin= 1 EnMin= -770.383283750954     IErMin=20 ErrMin= 4.28D-07
 ErrMax= 4.28D-07  0.00D+00 EMaxC= 1.00D-01 BMatC= 3.35D-10 BMatP= 6.54D-09
 IDIUse=1 WtCom= 1.00D+00 WtEn= 0.00D+00
 Coeff-Com:  0.136D-02-0.138D-02-0.194D-03-0.586D-04 0.181D-02-0.152D-02
 Coeff-Com:  0.679D-03-0.838D-03 0.187D-02-0.352D-02-0.143D-02 0.540D-02
 Coeff-Com:  0.373D-02 0.770D-02-0.172D-01-0.227D-01-0.508D-01-0.173D+00
 Coeff-Com:  0.363D+00 0.887D+00
 Coeff:      0.136D-02-0.138D-02-0.194D-03-0.586D-04 0.181D-02-0.152D-02
 Coeff:      0.679D-03-0.838D-03 0.187D-02-0.352D-02-0.143D-02 0.540D-02
 Coeff:      0.373D-02 0.770D-02-0.172D-01-0.227D-01-0.508D-01-0.173D+00
 Coeff:      0.363D+00 0.887D+00
 Gap=     0.226 Goal=   None    Shift=    0.000
 Gap=     0.070 Goal=   None    Shift=    0.000
 RMSDP=1.04D-07 MaxDP=8.08D-06 DE=-6.40D-09 OVMax= 1.84D-05

 Cycle  31  Pass 1  IDiag  1:
 RMSU=  5.89D-08    CP:  1.00D+00  1.71D+00  1.86D+00  1.59D+00  1.37D+00
                    CP:  1.02D+00  1.74D+00  1.66D+00  1.61D+00  1.28D+00
 E= -770.377543267077     Delta-E=       -0.000000000310 Rises=F Damp=F
 DIIS: error= 2.15D-07 at cycle  31 NSaved=  20.
 NSaved=20 IEnMin= 1 EnMin= -770.383283750954     IErMin=20 ErrMin= 2.15D-07
 ErrMax= 2.15D-07  0.00D+00 EMaxC= 1.00D-01 BMatC= 1.47D-10 BMatP= 3.35D-10
 IDIUse=1 WtCom= 1.00D+00 WtEn= 0.00D+00
 Coeff-Com:  0.181D-02-0.206D-02-0.379D-03-0.210D-03 0.527D-02-0.272D-02
 Coeff-Com: -0.150D-02 0.130D-02-0.137D-02-0.176D-02 0.110D-02 0.313D-02
 Coeff-Com:  0.905D-02 0.487D-03-0.322D-02-0.439D-01-0.138D+00-0.367D-02
 Coeff-Com:  0.555D+00 0.622D+00
 Coeff:      0.181D-02-0.206D-02-0.379D-03-0.210D-03 0.527D-02-0.272D-02
 Coeff:     -0.150D-02 0.130D-02-0.137D-02-0.176D-02 0.110D-02 0.313D-02
 Coeff:      0.905D-02 0.487D-03-0.322D-02-0.439D-01-0.138D+00-0.367D-02
 Coeff:      0.555D+00 0.622D+00
 Gap=     0.226 Goal=   None    Shift=    0.000
 Gap=     0.070 Goal=   None    Shift=    0.000
 RMSDP=4.76D-08 MaxDP=1.90D-06 DE=-3.10D-10 OVMax= 8.21D-06

 Cycle  32  Pass 1  IDiag  1:
 RMSU=  2.56D-08    CP:  1.00D+00  1.71D+00  1.86D+00  1.59D+00  1.37D+00
                    CP:  1.03D+00  1.76D+00  1.67D+00  1.65D+00  1.49D+00
                    CP:  1.26D+00
 E= -770.377543267160     Delta-E=       -0.000000000083 Rises=F Damp=F
 DIIS: error= 5.77D-08 at cycle  32 NSaved=  20.
 NSaved=20 IEnMin= 1 EnMin= -770.383283750954     IErMin=20 ErrMin= 5.77D-08
 ErrMax= 5.77D-08  0.00D+00 EMaxC= 1.00D-01 BMatC= 7.81D-12 BMatP= 1.47D-10
 IDIUse=1 WtCom= 1.00D+00 WtEn= 0.00D+00
 Coeff-Com: -0.340D-03 0.298D-03 0.533D-04 0.180D-04-0.732D-04 0.107D-03
 Coeff-Com: -0.141D-03 0.312D-03 0.290D-04-0.685D-03-0.961D-04 0.441D-03
 Coeff-Com:  0.281D-02 0.260D-02-0.265D-02 0.470D-02-0.541D-01-0.603D-01
 Coeff-Com:  0.137D+00 0.970D+00
 Coeff:     -0.340D-03 0.298D-03 0.533D-04 0.180D-04-0.732D-04 0.107D-03
 Coeff:     -0.141D-03 0.312D-03 0.290D-04-0.685D-03-0.961D-04 0.441D-03
 Coeff:      0.281D-02 0.260D-02-0.265D-02 0.470D-02-0.541D-01-0.603D-01
 Coeff:      0.137D+00 0.970D+00
 Gap=     0.226 Goal=   None    Shift=    0.000
 Gap=     0.070 Goal=   None    Shift=    0.000
 RMSDP=3.35D-08 MaxDP=2.64D-06 DE=-8.25D-11 OVMax= 1.07D-05

 Cycle  33  Pass 1  IDiag  1:
 RMSU=  6.75D-09    CP:  1.00D+00  1.71D+00  1.86D+00  1.59D+00  1.37D+00
                    CP:  1.03D+00  1.77D+00  1.67D+00  1.67D+00  1.56D+00
                    CP:  1.41D+00  1.04D+00
 E= -770.377543267148     Delta-E=        0.000000000013 Rises=F Damp=F
 DIIS: error= 1.61D-07 at cycle  33 NSaved=  20.
 NSaved=20 IEnMin= 1 EnMin= -770.383283750954     IErMin=19 ErrMin= 5.77D-08
 ErrMax= 1.61D-07  0.00D+00 EMaxC= 1.00D-01 BMatC= 2.09D-11 BMatP= 7.81D-12
 IDIUse=1 WtCom= 1.00D+00 WtEn= 0.00D+00
 Coeff-Com: -0.284D-03 0.257D-03 0.129D-04 0.863D-04-0.994D-04 0.139D-03
 Coeff-Com: -0.628D-04 0.136D-03 0.290D-05-0.572D-03-0.283D-03-0.123D-04
 Coeff-Com:  0.181D-02 0.604D-03 0.178D-01-0.230D-01-0.906D-01-0.647D-03
 Coeff-Com:  0.465D+00 0.630D+00
 Coeff:     -0.284D-03 0.257D-03 0.129D-04 0.863D-04-0.994D-04 0.139D-03
 Coeff:     -0.628D-04 0.136D-03 0.290D-05-0.572D-03-0.283D-03-0.123D-04
 Coeff:      0.181D-02 0.604D-03 0.178D-01-0.230D-01-0.906D-01-0.647D-03
 Coeff:      0.465D+00 0.630D+00
 Gap=     0.226 Goal=   None    Shift=    0.000
 Gap=     0.070 Goal=   None    Shift=    0.000
 RMSDP=1.69D-08 MaxDP=1.14D-06 DE= 1.25D-11 OVMax= 2.87D-06

 Cycle  34  Pass 1  IDiag  1:
 RMSU=  3.28D-09    CP:  1.00D+00  1.71D+00  1.86D+00  1.59D+00  1.37D+00
                    CP:  1.03D+00  1.77D+00  1.68D+00  1.67D+00  1.57D+00
                    CP:  1.42D+00  1.06D+00  1.05D+00
 E= -770.377543267160     Delta-E=       -0.000000000013 Rises=F Damp=F
 DIIS: error= 2.80D-08 at cycle  34 NSaved=  20.
 NSaved=20 IEnMin= 1 EnMin= -770.383283750954     IErMin=20 ErrMin= 2.80D-08
 ErrMax= 2.80D-08  0.00D+00 EMaxC= 1.00D-01 BMatC= 8.56D-13 BMatP= 7.81D-12
 IDIUse=1 WtCom= 1.00D+00 WtEn= 0.00D+00
 Coeff-Com: -0.338D-04 0.376D-04-0.179D-04 0.278D-04-0.137D-04 0.492D-04
 Coeff-Com: -0.148D-04-0.699D-05 0.622D-05-0.817D-04-0.121D-03-0.194D-03
 Coeff-Com: -0.166D-03 0.650D-02 0.514D-02-0.235D-01-0.279D-01-0.138D-01
 Coeff-Com:  0.254D+00 0.800D+00
 Coeff:     -0.338D-04 0.376D-04-0.179D-04 0.278D-04-0.137D-04 0.492D-04
 Coeff:     -0.148D-04-0.699D-05 0.622D-05-0.817D-04-0.121D-03-0.194D-03
 Coeff:     -0.166D-03 0.650D-02 0.514D-02-0.235D-01-0.279D-01-0.138D-01
 Coeff:      0.254D+00 0.800D+00
 Gap=     0.226 Goal=   None    Shift=    0.000
 Gap=     0.070 Goal=   None    Shift=    0.000
 RMSDP=6.68D-09 MaxDP=5.49D-07 DE=-1.27D-11 OVMax= 1.47D-06

 Error on total polarization charges =  0.00986
 SCF Done:  E(UB3LYP) =  -770.377543267     A.U. after   34 cycles
            NFock= 34  Conv=0.67D-08     -V/T= 2.0095
 <Sx>= 0.0000 <Sy>= 0.0000 <Sz>= 0.5000 <S**2>= 0.7541 S= 0.5021
 <L.S>=  0.00000000000    
 KE= 7.631642869757D+02 PE=-4.445790090698D+03 EE= 1.584392942301D+03
 Annihilation of the first spin contaminant:
 S**2 before annihilation     0.7541,   after     0.7500
 Leave Link  502 at Sat May 25 04:17:38 2019, MaxMem=   104857600 cpu:            2569.2 elap:              81.2
 (Enter /opt/software/gaussian/g16.b01/l801.exe)
 DoSCS=F DFT=T ScalE2(SS,OS)=  1.000000  1.000000
 ExpMin= 1.61D-01 ExpMax= 5.48D+03 ExpMxC= 8.25D+02 IAcc=3 IRadAn=         5 AccDes= 0.00D+00
 HarFok:  IExCor=  205 AccDes= 0.00D+00 IRadAn=         5 IDoV=-2 UseB2=F ITyADJ=14
 ICtDFT= 12500011 ScaDFX=  1.000000  1.000000  1.000000  1.000000
 Largest valence mixing into a core orbital is  5.98D-05
 Largest core mixing into a valence orbital is  1.21D-05
 Largest valence mixing into a core orbital is  6.11D-05
 Largest core mixing into a valence orbital is  1.21D-05
 Range of M.O.s used for correlation:    19   355
 NBasis=   355 NAE=    65 NBE=    64 NFC=    18 NFV=     0
 NROrb=    337 NOA=    47 NOB=    46 NVA=   290 NVB=   291

 **** Warning!!: The smallest beta delta epsilon is  0.69909246D-01

 Leave Link  801 at Sat May 25 04:17:39 2019, MaxMem=   104857600 cpu:               4.2 elap:               0.2
 (Enter /opt/software/gaussian/g16.b01/l914.exe)
 UHF ground state
 Ignoring spin specification with unrestricted ground state.
 Two-electron integrals replicated using symmetry.
 MDV=   104857600 DFT=T DoStab=F Mixed=T DoRPA=T DoScal=F NonHer=T
 NEqPCM:  Using non-equilibrium solvation (IEInf=1, Eps=  35.6880, EpsInf=   1.8069)
 Inv3:  Mode=1 IEnd=    16950387.
 Iteration    1 A*A^-1 deviation from unit magnitude is 3.11D-15 for   2031.
 Iteration    1 A*A^-1 deviation from orthogonality  is 2.11D-15 for   2296    770.
 Iteration    1 A^-1*A deviation from unit magnitude is 3.11D-15 for   2031.
 Iteration    1 A^-1*A deviation from orthogonality  is 2.06D-15 for   1680    218.
 Making orbital integer symmetry assigments:
 Orbital symmetries:
 Alpha Orbitals:
       Occupied  (A) (A) (A) (A) (A) (A) (A) (A) (A) (A) (A) (A)
                 (A) (A) (A) (A) (A) (A) (A) (A) (A) (A) (A) (A)
                 (A) (A) (A) (A) (A) (A) (A) (A) (A) (A) (A) (A)
                 (A) (A) (A) (A) (A) (A) (A) (A) (A) (A) (A) (A)
                 (A) (A) (A) (A) (A) (A) (A) (A) (A) (A) (A) (A)
                 (A) (A) (A) (A) (A)
       Virtual   (A) (A) (A) (A) (A) (A) (A) (A) (A) (A) (A) (A)
                 (A) (A) (A) (A) (A) (A) (A) (A) (A) (A) (A) (A)
                 (A) (A) (A) (A) (A) (A) (A) (A) (A) (A) (A) (A)
                 (A) (A) (A) (A) (A) (A) (A) (A) (A) (A) (A) (A)
                 (A) (A) (A) (A) (A) (A) (A) (A) (A) (A) (A) (A)
                 (A) (A) (A) (A) (A) (A) (A) (A) (A) (A) (A) (A)
                 (A) (A) (A) (A) (A) (A) (A) (A) (A) (A) (A) (A)
                 (A) (A) (A) (A) (A) (A) (A) (A) (A) (A) (A) (A)
                 (A) (A) (A) (A) (A) (A) (A) (A) (A) (A) (A) (A)
                 (A) (A) (A) (A) (A) (A) (A) (A) (A) (A) (A) (A)
                 (A) (A) (A) (A) (A) (A) (A) (A) (A) (A) (A) (A)
                 (A) (A) (A) (A) (A) (A) (A) (A) (A) (A) (A) (A)
                 (A) (A) (A) (A) (A) (A) (A) (A) (A) (A) (A) (A)
                 (A) (A) (A) (A) (A) (A) (A) (A) (A) (A) (A) (A)
                 (A) (A) (A) (A) (A) (A) (A) (A) (A) (A) (A) (A)
                 (A) (A) (A) (A) (A) (A) (A) (A) (A) (A) (A) (A)
                 (A) (A) (A) (A) (A) (A) (A) (A) (A) (A) (A) (A)
                 (A) (A) (A) (A) (A) (A) (A) (A) (A) (A) (A) (A)
                 (A) (A) (A) (A) (A) (A) (A) (A) (A) (A) (A) (A)
                 (A) (A) (A) (A) (A) (A) (A) (A) (A) (A) (A) (A)
                 (A) (A) (A) (A) (A) (A) (A) (A) (A) (A) (A) (A)
                 (A) (A) (A) (A) (A) (A) (A) (A) (A) (A) (A) (A)
                 (A) (A) (A) (A) (A) (A) (A) (A) (A) (A) (A) (A)
                 (A) (A) (A) (A) (A) (A) (A) (A) (A) (A) (A) (A)
                 (A) (A)
 Beta  Orbitals:
       Occupied  (A) (A) (A) (A) (A) (A) (A) (A) (A) (A) (A) (A)
                 (A) (A) (A) (A) (A) (A) (A) (A) (A) (A) (A) (A)
                 (A) (A) (A) (A) (A) (A) (A) (A) (A) (A) (A) (A)
                 (A) (A) (A) (A) (A) (A) (A) (A) (A) (A) (A) (A)
                 (A) (A) (A) (A) (A) (A) (A) (A) (A) (A) (A) (A)
                 (A) (A) (A) (A)
       Virtual   (A) (A) (A) (A) (A) (A) (A) (A) (A) (A) (A) (A)
                 (A) (A) (A) (A) (A) (A) (A) (A) (A) (A) (A) (A)
                 (A) (A) (A) (A) (A) (A) (A) (A) (A) (A) (A) (A)
                 (A) (A) (A) (A) (A) (A) (A) (A) (A) (A) (A) (A)
                 (A) (A) (A) (A) (A) (A) (A) (A) (A) (A) (A) (A)
                 (A) (A) (A) (A) (A) (A) (A) (A) (A) (A) (A) (A)
                 (A) (A) (A) (A) (A) (A) (A) (A) (A) (A) (A) (A)
                 (A) (A) (A) (A) (A) (A) (A) (A) (A) (A) (A) (A)
                 (A) (A) (A) (A) (A) (A) (A) (A) (A) (A) (A) (A)
                 (A) (A) (A) (A) (A) (A) (A) (A) (A) (A) (A) (A)
                 (A) (A) (A) (A) (A) (A) (A) (A) (A) (A) (A) (A)
                 (A) (A) (A) (A) (A) (A) (A) (A) (A) (A) (A) (A)
                 (A) (A) (A) (A) (A) (A) (A) (A) (A) (A) (A) (A)
                 (A) (A) (A) (A) (A) (A) (A) (A) (A) (A) (A) (A)
                 (A) (A) (A) (A) (A) (A) (A) (A) (A) (A) (A) (A)
                 (A) (A) (A) (A) (A) (A) (A) (A) (A) (A) (A) (A)
                 (A) (A) (A) (A) (A) (A) (A) (A) (A) (A) (A) (A)
                 (A) (A) (A) (A) (A) (A) (A) (A) (A) (A) (A) (A)
                 (A) (A) (A) (A) (A) (A) (A) (A) (A) (A) (A) (A)
                 (A) (A) (A) (A) (A) (A) (A) (A) (A) (A) (A) (A)
                 (A) (A) (A) (A) (A) (A) (A) (A) (A) (A) (A) (A)
                 (A) (A) (A) (A) (A) (A) (A) (A) (A) (A) (A) (A)
                 (A) (A) (A) (A) (A) (A) (A) (A) (A) (A) (A) (A)
                 (A) (A) (A) (A) (A) (A) (A) (A) (A) (A) (A) (A)
                 (A) (A) (A)
   144 initial guesses have been made.
 Convergence on wavefunction:    0.001000000000000
 Davidson Disk Diagonalization:  ConvIn= 1.00D-03 SkipCon=T Conv= 1.00D-03.
 Max sub-space:  2160 roots to seek:   144 dimension of matrix:        27016
 Iteration     1 Dimension   144 NMult     0 NNew    144
 CISAX will form     3 AO SS matrices at one time.
 NMat=     3 NSing=     3 JSym2X= 0.
 FoFJK:  IHMeth= 1 ICntrl=       0 DoSepK=F KAlg= 0 I1Cent=           0 FoldK=F
 IRaf= 840000000 NMat=       6 IRICut=       1 DoRegI=T DoRafI=F ISym2E= 0 IDoP0=0 IntGTp=1.
 NMat=     3 NSing=     3 JSym2X= 0.
 NMat=     3 NSing=     3 JSym2X= 0.
 NMat=     3 NSing=     3 JSym2X= 0.
 NMat=     3 NSing=     3 JSym2X= 0.
 NMat=     3 NSing=     3 JSym2X= 0.
 NMat=     3 NSing=     3 JSym2X= 0.
 NMat=     3 NSing=     3 JSym2X= 0.
 NMat=     3 NSing=     3 JSym2X= 0.
 NMat=     3 NSing=     3 JSym2X= 0.
 NMat=     3 NSing=     3 JSym2X= 0.
 NMat=     3 NSing=     3 JSym2X= 0.
 NMat=     3 NSing=     3 JSym2X= 0.
 NMat=     3 NSing=     3 JSym2X= 0.
 NMat=     3 NSing=     3 JSym2X= 0.
 NMat=     3 NSing=     3 JSym2X= 0.
 NMat=     3 NSing=     3 JSym2X= 0.
 NMat=     3 NSing=     3 JSym2X= 0.
 NMat=     3 NSing=     3 JSym2X= 0.
 NMat=     3 NSing=     3 JSym2X= 0.
 NMat=     3 NSing=     3 JSym2X= 0.
 NMat=     3 NSing=     3 JSym2X= 0.
 NMat=     3 NSing=     3 JSym2X= 0.
 NMat=     3 NSing=     3 JSym2X= 0.
 NMat=     3 NSing=     3 JSym2X= 0.
 NMat=     3 NSing=     3 JSym2X= 0.
 NMat=     3 NSing=     3 JSym2X= 0.
 NMat=     3 NSing=     3 JSym2X= 0.
 NMat=     3 NSing=     3 JSym2X= 0.
 NMat=     3 NSing=     3 JSym2X= 0.
 NMat=     3 NSing=     3 JSym2X= 0.
 NMat=     3 NSing=     3 JSym2X= 0.
 NMat=     3 NSing=     3 JSym2X= 0.
 NMat=     3 NSing=     3 JSym2X= 0.
 NMat=     3 NSing=     3 JSym2X= 0.
 NMat=     3 NSing=     3 JSym2X= 0.
 NMat=     3 NSing=     3 JSym2X= 0.
 NMat=     3 NSing=     3 JSym2X= 0.
 NMat=     3 NSing=     3 JSym2X= 0.
 NMat=     3 NSing=     3 JSym2X= 0.
 NMat=     3 NSing=     3 JSym2X= 0.
 NMat=     3 NSing=     3 JSym2X= 0.
 NMat=     3 NSing=     3 JSym2X= 0.
 NMat=     3 NSing=     3 JSym2X= 0.
 NMat=     3 NSing=     3 JSym2X= 0.
 NMat=     3 NSing=     3 JSym2X= 0.
 NMat=     3 NSing=     3 JSym2X= 0.
 NMat=     3 NSing=     3 JSym2X= 0.
 New state      2 was old state      5
 New state      3 was old state      2
 New state      4 was old state      3
 New state      5 was old state      4
 New state      8 was old state      9
 New state      9 was old state     10
 New state     10 was old state      8
 New state     12 was old state     18
 New state     13 was old state     22
 New state     15 was old state     12
 New state     16 was old state     13
 New state     18 was old state     26
 New state     19 was old state     29
 New state     20 was old state     16
 New state     22 was old state     15
 New state     23 was old state     28
 New state     24 was old state     23
 New state     25 was old state     30
 New state     26 was old state     20
 New state     28 was old state     34
 New state     29 was old state     43
 New state     30 was old state     19
 New state     31 was old state     41
 New state     32 was old state     37
 New state     33 was old state     40
 New state     34 was old state     35
 New state     35 was old state     42
 New state     36 was old state     48
 Excitation Energies [eV] at current iteration:
 Root      1 :    -0.086492634390692
 Root      2 :     1.428628263922014
 Root      3 :     1.578828253656819
 Root      4 :     1.863212335068164
 Root      5 :     2.111957266116058
 Root      6 :     2.323718250626855
 Root      7 :     3.302843152128203
 Root      8 :     3.782513890199604
 Root      9 :     3.997235465230649
 Root     10 :     4.135740198631209
 Root     11 :     4.156504893855375
 Root     12 :     4.179087308800967
 Root     13 :     4.234152422391562
 Root     14 :     4.555822048346660
 Root     15 :     4.657399125443142
 Root     16 :     4.690317795483230
 Root     17 :     4.721129950173169
 Root     18 :     4.759897578245831
 Root     19 :     4.790377587198064
 Root     20 :     4.831703716050990
 Root     21 :     4.891073969606593
 Root     22 :     4.979862071978018
 Root     23 :     5.053085303427779
 Root     24 :     5.080531643530642
 Root     25 :     5.125162071659261
 Root     26 :     5.306871782453687
 Root     27 :     5.438804545687082
 Root     28 :     5.513251099479043
 Root     29 :     5.535502399407312
 Root     30 :     5.616890530918008
 Root     31 :     5.649710051883111
 Root     32 :     5.725706666943326
 Root     33 :     5.797052054825778
 Root     34 :     5.858610761672288
 Root     35 :     5.868926434857991
 Root     36 :     5.943516586704544
 Root     37 :     5.991182434253374
 Root     38 :     5.996102116200254
 Root     39 :     6.025245652121711
 Root     40 :     6.106082971196410
 Root     41 :     6.123743733148619
 Root     42 :     6.169382951050827
 Root     43 :     6.180206562486996
 Root     44 :     6.225689375167788
 Root     45 :     6.249699943791497
 Root     46 :     6.254687817398673
 Root     47 :     6.306068362240354
 Root     48 :     6.325774423651050
 Root     49 :     6.348236044185206
 Root     50 :     6.363773303432839
 Root     51 :     6.388914025789763
 Root     52 :     6.503563326952136
 Root     53 :     6.510004142776167
 Root     54 :     6.533241964242017
 Root     55 :     6.631288984984102
 Root     56 :     6.694083523062617
 Root     57 :     6.705504186953133
 Root     58 :     6.717007671987159
 Root     59 :     6.736088451979162
 Root     60 :     6.744678354443212
 Root     61 :     6.754766364482151
 Root     62 :     6.777021117633720
 Root     63 :     6.872506921105758
 Root     64 :     6.897850606510326
 Root     65 :     7.032952766002960
 Root     66 :     7.073330603692351
 Root     67 :     7.080291549564139
 Root     68 :     7.111553836504888
 Root     69 :     7.131073573512693
 Root     70 :     7.155078379829823
 Root     71 :     7.255026076638289
 Root     72 :     7.308926170377707
 Root     73 :     7.350755651812621
 Root     74 :     7.524477378527502
 Root     75 :     7.542701048850248
 Root     76 :     7.562858192976012
 Root     77 :     7.575048173007052
 Root     78 :     7.589151801388785
 Root     79 :     7.609551662010697
 Root     80 :     7.637555311546380
 Root     81 :     7.648308987771780
 Root     82 :     7.667038653751668
 Root     83 :     7.761893995494361
 Root     84 :     7.773741811112353
 Root     85 :     7.854488595309234
 Root     86 :     7.859836049430585
[...]
     7  H    0.000010   0.000004  -0.000020  -0.000000   0.000000  -0.000001
     8  C   -0.000021   0.000002  -0.000001   0.000004  -0.000002   0.000000
     9  H    0.000006  -0.000000   0.000000  -0.000000   0.000010  -0.000000
    10  H    0.000005   0.000000  -0.000000   0.000000  -0.000002  -0.000000
    11  H    0.000227  -0.000002   0.000000  -0.000004  -0.000003  -0.000002
    12  C    0.000490   0.000001  -0.000003  -0.000006  -0.000028  -0.000004
    13  C   -0.000024  -0.000000   0.000000   0.000000  -0.000004   0.000000
    14  C   -0.000528   0.000001   0.000000   0.000020   0.000011   0.000007
    15  C   -0.000004   0.000000   0.000000   0.000000   0.000002   0.000000
    16  H   -0.000001  -0.000000   0.000000   0.000000   0.000000   0.000000
    17  C    0.000140  -0.000000  -0.000000  -0.000009   0.000003  -0.000002
    18  H   -0.000296   0.000002   0.000000   0.000017   0.000001   0.000026
    19  C    0.000007  -0.000000  -0.000000  -0.000000  -0.000001  -0.000000
    20  H   -0.000000  -0.000000   0.000000   0.000000  -0.000000   0.000000
    21  H   -0.000013   0.000000   0.000000   0.000002   0.000000   0.000000
    22  H    0.000000   0.000000  -0.000000  -0.000000  -0.000000  -0.000000
    23  C    0.003010  -0.000364   0.000033  -0.000182  -0.000001  -0.000357
    24  C    0.000079  -0.001177   0.000270   0.000004  -0.000002  -0.000881
    25  C    0.021463   0.000068  -0.000004  -0.001051   0.000119  -0.000895
    26  C    0.000068  -0.011143  -0.000007  -0.000059  -0.000004   0.000933
    27  H   -0.000004  -0.000007  -0.001067  -0.000003   0.000000  -0.000000
    28  C   -0.001051  -0.000059  -0.000003  -0.011563   0.000072   0.001056
    29  H    0.000119  -0.000004   0.000000   0.000072  -0.001144   0.000001
    30  C   -0.000895   0.000933  -0.000000   0.001056   0.000001   0.029410
    31  H   -0.000005   0.000012   0.000009   0.000004  -0.000000  -0.000061
    32  H   -0.000057   0.000002  -0.000000   0.000068   0.000007  -0.000069
    33  H    0.000007  -0.000002   0.000000  -0.000009   0.000000   0.000178
    34  O    0.000004   0.000029  -0.000101   0.000000   0.000000   0.000001
    35  H   -0.000005   0.000004  -0.000009   0.000000  -0.000000   0.000000
              31         32         33         34         35
     1  C   -0.000000   0.000000  -0.000000   0.002625  -0.002964
     2  C    0.000001   0.000000  -0.000000  -0.007714  -0.002543
     3  O   -0.000000  -0.000000   0.000000  -0.001082   0.007009
     4  C    0.000001   0.000000  -0.000000  -0.000948  -0.000485
     5  H    0.000000   0.000000  -0.000000  -0.000022  -0.000026
     6  H   -0.000002  -0.000000   0.000000   0.000108   0.000043
     7  H   -0.000000  -0.000000   0.000000   0.000312   0.000683
     8  C   -0.000000  -0.000000   0.000000  -0.000209   0.001122
     9  H    0.000000   0.000000  -0.000000  -0.000004  -0.000030
    10  H    0.000000  -0.000000   0.000000   0.000043  -0.000111
    11  H    0.000000   0.000000  -0.000000   0.000240  -0.000250
    12  C   -0.000000  -0.000000   0.000000   0.000240   0.000288
    13  C    0.000000   0.000000  -0.000000  -0.000003  -0.000015
    14  C    0.000000   0.000001  -0.000000  -0.000008  -0.000005
    15  C    0.000000   0.000000  -0.000000  -0.000000   0.000000
    16  H    0.000000   0.000000  -0.000000   0.000001  -0.000009
    17  C   -0.000000  -0.000001   0.000000   0.000000   0.000000
    18  H    0.000000   0.000002  -0.000000  -0.000002  -0.000002
    19  C   -0.000000  -0.000000   0.000000   0.000000   0.000000
    20  H    0.000000   0.000000  -0.000000   0.000000  -0.000000
    21  H    0.000000   0.000000  -0.000000  -0.000000  -0.000000
    22  H   -0.000000  -0.000000   0.000000   0.000000   0.000000
    23  C    0.000012   0.000019  -0.000011   0.002327  -0.000009
    24  C    0.000011  -0.000004  -0.000003  -0.000349  -0.000014
    25  C   -0.000005  -0.000057   0.000007   0.000004  -0.000005
    26  C    0.000012   0.000002  -0.000002   0.000029   0.000004
    27  H    0.000009  -0.000000   0.000000  -0.000101  -0.000009
    28  C    0.000004   0.000068  -0.000009   0.000000   0.000000
    29  H   -0.000000   0.000007   0.000000   0.000000  -0.000000
    30  C   -0.000061  -0.000069   0.000178   0.000001   0.000000
    31  H    0.000442   0.000000   0.000001  -0.000000  -0.000000
    32  H    0.000000   0.000460  -0.000000  -0.000000  -0.000000
    33  H    0.000001  -0.000000  -0.001386   0.000000   0.000000
    34  O   -0.000000  -0.000000   0.000000   0.022186   0.000042
    35  H   -0.000000  -0.000000   0.000000   0.000042  -0.002090
 Mulliken charges and spin densities:
               1          2
     1  C    0.218539  -0.044753
     2  C    0.226358   0.058407
     3  O   -0.405423   0.824770
     4  C   -0.313422   0.005626
     5  H    0.111213  -0.000532
     6  H    0.105755   0.000443
     7  H    0.113080   0.000844
     8  C   -0.324473  -0.000311
     9  H    0.117944  -0.000114
    10  H    0.112678  -0.000833
    11  H    0.116879   0.002188
    12  C    0.089999   0.087353
    13  C   -0.123652  -0.002379
    14  C   -0.119290  -0.005483
    15  C   -0.102436   0.002230
    16  H    0.110302  -0.000068
    17  C   -0.109246   0.010363
    18  H    0.110784   0.001135
    19  C   -0.094408  -0.003716
    20  H    0.106948   0.000610
    21  H    0.108814   0.000638
    22  H    0.105962   0.000098
    23  C    0.086320  -0.001364
    24  C   -0.110739   0.021315
    25  C   -0.118047   0.021415
    26  C   -0.105592  -0.011804
    27  H    0.111577  -0.000829
    28  C   -0.110382  -0.011657
    29  H    0.105007  -0.000915
    30  C   -0.092443   0.029358
    31  H    0.104299   0.000424
    32  H    0.105448   0.000428
    33  H    0.105399  -0.001225
    34  O   -0.572246   0.017715
    35  H    0.328494   0.000624
 Sum of Mulliken charges =  -0.00000   1.00000
 Mulliken charges and spin densities with hydrogens summed into heavy atoms:
               1          2
     1  C    0.218539  -0.044753
     2  C    0.226358   0.058407
     3  O   -0.405423   0.824770
     4  C    0.016627   0.006380
     8  C    0.023028   0.000929
    12  C    0.089999   0.087353
    13  C   -0.013351  -0.002447
    14  C   -0.008506  -0.004348
    15  C    0.004511   0.002840
    17  C   -0.000432   0.011001
    19  C    0.011554  -0.003618
    23  C    0.086320  -0.001364
    24  C    0.000838   0.020486
    25  C   -0.013040   0.020500
    26  C   -0.001293  -0.011380
    28  C   -0.004934  -0.011229
    30  C    0.012955   0.028133
    34  O   -0.243753   0.018340
 Electronic spatial extent (au):  <R**2>=           4102.3885
 Charge=             -0.0000 electrons
 Dipole moment (field-independent basis, Debye):
    X=             -0.5786    Y=              2.8932    Z=              0.1778  Tot=              2.9558
 Quadrupole moment (field-independent basis, Debye-Ang):
   XX=           -100.0794   YY=           -100.2460   ZZ=           -105.3647
   XY=              0.2855   XZ=             -6.7192   YZ=             -0.4119
 Traceless Quadrupole moment (field-independent basis, Debye-Ang):
   XX=              1.8173   YY=              1.6507   ZZ=             -3.4680
   XY=              0.2855   XZ=             -6.7192   YZ=             -0.4119
 Octapole moment (field-independent basis, Debye-Ang**2):
  XXX=             -9.6795  YYY=              6.0767  ZZZ=              1.8299  XYY=              2.5652
  XXY=             24.4683  XXZ=             -1.6070  XZZ=              1.0504  YZZ=             -8.3069
  YYZ=              1.3693  XYZ=              5.6245
 Hexadecapole moment (field-independent basis, Debye-Ang**3):
 XXXX=          -2956.2321 YYYY=          -1539.9636 ZZZZ=           -691.1075 XXXY=              8.8619
 XXXZ=           -137.3035 YYYX=            -17.6817 YYYZ=             -6.3143 ZZZX=             -1.3311
 ZZZY=              0.4306 XXYY=           -753.6170 XXZZ=           -654.6727 YYZZ=           -388.7841
 XXYZ=             -0.2558 YYXZ=             -5.6788 ZZXY=              0.4624
 N-N= 1.327855318154D+03 E-N=-4.445790089648D+03  KE= 7.631642869757D+02
 Leave Link  601 at Sat May 25 04:44:21 2019, MaxMem=   104857600 cpu:               4.1 elap:               0.2
 (Enter /opt/software/gaussian/g16.b01/l9999.exe)
 Electronic transition elements 
                 1             2             3             4             5 
      1  -0.770385D+03 -0.770327D+03 -0.770321D+03 -0.770311D+03 -0.770307D+03
      2   0.217306D+00  0.404720D+00 -0.451753D+00 -0.502308D+00  0.491168D+00
      3   0.251211D-01 -0.983256D-01 -0.216090D+00 -0.362372D+00  0.552521D+00
      4   0.101489D+00  0.781491D-01 -0.700791D-01 -0.330126D-01  0.139432D+00
      5   0.382249D-02 -0.194834D-01  0.253953D-01  0.336428D-01 -0.330827D-01
      6   0.102877D-02  0.293243D-02  0.138670D-01  0.226602D-01 -0.370491D-01
      7   0.428915D-03 -0.303334D-02  0.311825D-02  0.512314D-03 -0.901173D-02
      8  -0.462785D+00 -0.390041D-01 -0.730718D-02 -0.180643D+00  0.317429D-02
      9  -0.104505D+01  0.739518D-01 -0.862362D-01  0.333438D-01  0.350089D-01
     10   0.934915D-01  0.203398D-01  0.137207D+00  0.372916D-01 -0.644878D-01
     11  -0.118573D-01  0.601470D-02  0.122669D-01  0.117574D+00 -0.137396D+00
     12  -0.299368D-02  0.127353D-01 -0.268175D-01 -0.498177D-01  0.729914D-01
     13   0.104743D-02 -0.591563D-02  0.399670D-02 -0.111854D-01 -0.555794D-02
     14  -0.477241D-02 -0.164441D-01  0.386346D-01  0.313883D-01 -0.473652D-02
     15   0.479980D-02  0.130155D-01  0.327007D-02 -0.167216D-01  0.165987D-01
     16   0.251084D-02 -0.981822D-02  0.781299D-02 -0.221580D-02  0.632685D-02
                 6             7             8             9            10 
      1  -0.770295D+03 -0.770263D+03 -0.770245D+03 -0.770240D+03 -0.770238D+03
      2  -0.120110D+00  0.649531D-01 -0.107502D+00  0.642011D-02 -0.108759D+00
      3  -0.116554D+00  0.233095D+00  0.283991D+00  0.620550D-01 -0.727047D-01
      4   0.319591D-01  0.160175D-01  0.658268D-01  0.119878D-01 -0.109181D-01
      5   0.746459D-02 -0.677284D-02  0.113296D-01 -0.120096D-02  0.147732D-01
      6   0.104866D-01 -0.263469D-01 -0.352270D-01 -0.809340D-02  0.989183D-02
      7   0.117979D-02 -0.167267D-02 -0.105696D-01 -0.184957D-02  0.124197D-02
      8  -0.707785D-01 -0.149540D+00 -0.467585D-01 -0.120740D-01 -0.176688D-01
      9  -0.150999D-01  0.137770D+00 -0.370638D-01 -0.135345D-01  0.175010D-01
     10   0.775877D-01  0.789661D+00 -0.416490D+00 -0.581739D-01  0.570317D-01
     11   0.474751D-01 -0.992523D-01 -0.779227D-01 -0.253394D-01  0.458214D-01
     12  -0.146662D-01  0.124759D+00  0.267491D-01  0.490801D-02 -0.965653D-02
     13  -0.110651D-01 -0.641880D-01 -0.191993D-01 -0.832367D-03 -0.362228D-02
     14   0.134880D+00  0.344529D-01  0.197833D+00  0.215070D-01  0.323985D-01
     15   0.926705D-03  0.262285D-02  0.359403D-01  0.664774D-02 -0.587538D-02
     16   0.118002D-01  0.170721D-01  0.714206D-01  0.113049D-01  0.302176D-02
                11            12            13            14            15 
      1  -0.770233D+03 -0.770226D+03 -0.770226D+03 -0.770212D+03 -0.770208D+03
      2   0.191891D+00  0.610330D-01 -0.832064D-01 -0.100626D+00  0.161564D+00
      3  -0.108705D+00  0.106173D+00  0.132024D-01 -0.657961D-01  0.595659D-01
      4   0.103526D+00 -0.175421D-02  0.865831D-01 -0.735717D-01  0.665660D-01
      5  -0.276822D-01 -0.897858D-02  0.118299D-01  0.177092D-01 -0.276824D-01
      6   0.158908D-01 -0.165804D-01 -0.211232D-02  0.891735D-02 -0.112080D-01
      7  -0.149251D-01 -0.430556D-04 -0.134403D-01  0.116247D-01 -0.104138D-01
      8   0.604243D-01 -0.819901D-01  0.281855D+00 -0.137891D+00  0.843714D-01
      9   0.793006D-01 -0.255207D-01 -0.194469D-01  0.606680D-02 -0.877910D-02
     10  -0.126046D+00 -0.144175D+00  0.189166D+00  0.369103D+00 -0.191637D+00
     11   0.960325D-01 -0.819429D-01  0.149755D-01  0.545100D-01 -0.498242D-01
     12  -0.652063D-01  0.138525D-01  0.736871D-01  0.466420D-01  0.606053D-01
     13  -0.238239D-01  0.713741D-02 -0.635887D-01 -0.374817D-01 -0.108040D-01
     14  -0.103905D+00  0.138417D-01  0.526895D-01 -0.521526D-01  0.237583D-02
     15  -0.438005D-01  0.158065D-01 -0.166069D-02 -0.250744D-01  0.173027D-01
     16   0.278998D-01 -0.268441D-02  0.377765D-01 -0.198603D-01 -0.813616D-02
                16            17            18            19            20 
      1  -0.770207D+03 -0.770206D+03 -0.770204D+03 -0.770204D+03 -0.770201D+03
      2  -0.489157D-01 -0.685483D-01 -0.101045D-02 -0.924162D-02  0.407909D-01
      3  -0.580160D-01 -0.104375D-01 -0.195864D-01  0.143054D-01 -0.560740D-01
      4   0.296881D-02 -0.241976D-01  0.842395D-02  0.338775D-01  0.149582D-01
      5   0.790196D-02  0.117094D-01 -0.112786D-03  0.189326D-02 -0.929834D-02
      6   0.101471D-01  0.259412D-02  0.234220D-02 -0.422262D-02  0.122902D-01
      7  -0.705142D-03  0.407534D-02 -0.122252D-02 -0.555410D-02 -0.246746D-02
      8   0.341410D-01 -0.494262D-01  0.478203D-01  0.138196D-01  0.146502D+00
      9   0.115046D-01  0.674426D-02 -0.321907D-01 -0.329775D-01  0.133709D+00
     10   0.448139D-01  0.533578D-01  0.196338D-01 -0.115332D+00  0.209831D+00
     11   0.410622D-01  0.172312D-01 -0.200162D-01 -0.294602D-02  0.583387D-01
     12  -0.112695D-01 -0.307187D-01  0.405938D-01  0.453327D-01 -0.794855D-01
     13  -0.242120D-01  0.113382D-01 -0.291936D-01 -0.358642D-01  0.347371D-01
     14   0.444735D-02 -0.287116D-02  0.228823D-01  0.770768D-02  0.101776D-01
     15  -0.432083D-02 -0.832018D-02  0.106450D-01 -0.842428D-03 -0.319814D-02
     16   0.475173D-02  0.229442D-02  0.983522D-02  0.118145D-02 -0.212711D-01
                21            22            23            24            25 
      1  -0.770199D+03 -0.770195D+03 -0.770193D+03 -0.770191D+03 -0.770190D+03
      2  -0.533620D-01 -0.295227D-01 -0.121776D-01 -0.261969D-01  0.817939D-02
      3  -0.360147D-01 -0.202275D-01 -0.299148D-01 -0.117301D-01 -0.108711D-01
      4  -0.246635D-01 -0.117130D-02  0.805117D-02 -0.349725D-01 -0.339465D-02
      5   0.918813D-02  0.628972D-02  0.226362D-02  0.447660D-02 -0.156116D-02
      6   0.802454D-02  0.322351D-02  0.578703D-02  0.158326D-02  0.229607D-02
      7   0.388552D-02  0.176142D-02 -0.113318D-02  0.101209D-01  0.765756D-03
      8  -0.757457D-02  0.678917D-02 -0.910549D-02  0.107786D+00  0.173959D-01
      9   0.686569D-02  0.645119D-01 -0.199466D-01 -0.918018D-01 -0.248210D-01
     10   0.634043D-01  0.313878D+00 -0.352167D-01  0.374365D-01  0.358478D-01
     11   0.130660D-01 -0.246256D-01 -0.203725D-01  0.728452D-02 -0.127902D-01
     12  -0.572780D-01 -0.258217D-01  0.176912D-01 -0.151941D-01  0.659151D-02
     13  -0.985065D-02  0.341670D-01 -0.168671D-02 -0.118061D-01  0.196946D-03
     14  -0.229447D-01  0.230582D-01 -0.444534D-02  0.265459D-01 -0.892687D-02
     15  -0.527739D-02 -0.122849D-01  0.116010D-01 -0.784851D-02  0.607079D-02
     16   0.128949D-01 -0.257636D-01 -0.521637D-02 -0.411698D-01 -0.490406D-02
                26            27            28            29            30 
      1  -0.770184D+03 -0.770180D+03 -0.770177D+03 -0.770176D+03 -0.770173D+03
      2   0.112112D-03  0.224887D+00 -0.659873D+00 -0.892361D-01 -0.511213D+00
      3  -0.112384D+00 -0.283699D-01  0.259082D+00  0.713917D-01 -0.201063D+00
      4  -0.311117D-02 -0.477743D-02  0.684962D-01 -0.108236D+00 -0.486009D-02
      5  -0.545504D-04 -0.453857D-01  0.130910D+00  0.150959D-01  0.103271D+00
      6   0.229534D-01  0.546651D-02 -0.512993D-01 -0.130443D-01  0.407560D-01
      7   0.137461D-02  0.141263D-02 -0.130668D-01  0.225052D-01  0.212349D-02
      8   0.330987D-02  0.193687D-01 -0.220168D+00 -0.815263D-01 -0.191490D+00
      9  -0.113755D+00  0.505934D-01 -0.102493D+00 -0.824487D-01  0.144738D+00
     10  -0.241460D-01 -0.216539D+00  0.365304D+00 -0.665777D-01  0.321882D+00
     11  -0.516572D-01  0.798532D-01 -0.412907D+00 -0.462160D-01  0.381897D+00
     12   0.962436D-01 -0.203273D-01  0.348040D-01 -0.394003D-01 -0.129784D-01
     13  -0.172208D-01 -0.244314D-01  0.114332D+00  0.690627D-01 -0.106532D+00
     14  -0.447987D-02 -0.116525D+00  0.419542D+00  0.545667D-01  0.324924D+00
     15   0.451976D-01 -0.108616D-01  0.398508D-01  0.225270D-01 -0.691192D-01
     16  -0.445327D-02 -0.152385D-01  0.813824D-01 -0.537308D-01  0.190954D-01
                31            32            33            34            35 
      1  -0.770172D+03 -0.770169D+03 -0.770166D+03 -0.770163D+03 -0.770163D+03
      2  -0.324204D-01 -0.210297D+00  0.749331D-01  0.317006D+00 -0.449441D+00
      3   0.247375D+00 -0.105748D+00 -0.320643D+00  0.236362D+00  0.509785D-01
      4  -0.193627D-01  0.411932D-02  0.829886D-02  0.149198D-01  0.207455D-01
      5   0.630724D-02  0.439184D-01 -0.145090D-01 -0.645331D-01  0.918666D-01
      6  -0.504509D-01  0.218803D-01  0.684414D-01 -0.523158D-01 -0.115994D-01
      7   0.425850D-02 -0.739105D-03  0.223323D-03 -0.132737D-02 -0.731936D-02
      8  -0.205760D-02 -0.839025D-01 -0.349531D-01 -0.423874D-01  0.248281D-01
      9  -0.210951D+00  0.130778D+00 -0.125906D+00  0.151699D+00  0.634503D-01
     10  -0.100064D-01  0.175554D+00 -0.881602D-01 -0.721870D-01 -0.453821D-01
     11  -0.493161D+00  0.282791D+00 -0.136578D+00  0.153046D+00  0.102717D+00
     12   0.347596D-01 -0.287216D-01  0.163281D+00 -0.158693D+00 -0.507319D-01
     13   0.140335D+00 -0.759833D-01 -0.301188D-01  0.129043D-01 -0.112393D-01
     14  -0.126607D-01  0.149360D+00 -0.128117D+00 -0.229190D+00  0.287733D+00
     15   0.808720D-01 -0.614484D-01  0.123910D+00 -0.111291D+00 -0.579079D-01
     16  -0.101123D-02  0.170082D-01 -0.348690D-01 -0.322799D-01  0.248929D-01
                36 
      1  -0.770161D+03
      2   0.483920D+00
      3   0.187277D+00
      4  -0.737432D-01
      5  -0.987486D-01
      6  -0.414610D-01
      7   0.191857D-01
      8   0.557073D-01
      9   0.380452D-01
     10   0.347206D+00
     11   0.131991D-01
     12  -0.970785D-01
     13   0.264819D-01
     14  -0.130522D+00
     15  -0.460994D-01
     16   0.344944D-01
 1\1\GINC-GRA790\SP\UB3LYP TD-FC\6-31G(d,p)\C16H17O2(2)\RZK\25-May-2019
 \0\\#p td=(50-50,nstates=36) ub3lyp/6-31g(d,p) scrf=(iefpcm,solvent=ac
 etonitrile) guess=(mix,always) empiricaldispersion=gd3\\Title Card Req
 uired\\0,2\C,0,-0.586193,-1.28297,-0.505397\C,0,0.612727,-1.272973,0.5
 54081\O,0,-1.199044,-2.500819,-0.378169\C,0,0.003962,-1.337416,-1.9584
 8\H,0,-0.812043,-1.426327,-2.676258\H,0,0.561905,-0.419206,-2.145955\H
 ,0,0.677268,-2.188312,-2.045004\C,0,0.019284,-1.317885,1.974754\H,0,-0
 .608147,-0.455464,2.202626\H,0,-0.596253,-2.21717,2.073016\H,0,0.83399
 7,-1.367013,2.700676\C,0,-1.569284,-0.120938,-0.346342\C,0,-2.76856,-0
 .336286,0.347747\C,0,-1.314897,1.158396,-0.860664\C,0,-3.686757,0.6974
 4,0.530288\H,0,-2.978084,-1.325132,0.741794\C,0,-2.232139,2.195005,-0.
 678649\H,0,-0.395936,1.359658,-1.398388\C,0,-3.42079,1.969561,0.017989
 \H,0,-4.608725,0.509377,1.072681\H,0,-2.015648,3.178823,-1.08432\H,0,-
 4.133388,2.776678,0.159309\C,0,1.560951,-0.098917,0.358254\C,0,2.71690
 2,-0.248219,-0.424459\C,0,1.306074,1.153924,0.937111\C,0,3.588639,0.82
 2436,-0.625145\H,0,2.930374,-1.213801,-0.865958\C,0,2.176031,2.225718,
 0.734989\H,0,0.418429,1.306167,1.5392\C,0,3.32122,2.065396,-0.047746\H
 ,0,4.478426,0.683352,-1.232261\H,0,1.956772,3.186427,1.19134\H,0,3.998
 718,2.899614,-0.203764\O,0,1.354877,-2.469638,0.343086\H,0,0.682637,-3
 .157645,0.201944\\Version=ES64L-G16RevB.01\State=2-A\HF=-770.3775433\S
 2=0.754106\S2-1=0.\S2A=0.750013\RMSD=6.680e-09\PG=C01 [X(C16H17O2)]\\@


 AN OPTIMIST IS A GUY
 THAT HAS NEVER HAD
 MUCH EXPERIENCE
   (CERTAIN MAXIMS OF ARCHY  -- DON MARQUIS)
 Job cpu time:       0 days 14 hours 57 minutes 37.0 seconds.
 Elapsed time:       0 days  0 hours 28 minutes  5.6 seconds.
 File lengths (MBytes):  RWF=   2180 Int=      0 D2E=      0 Chk=    178 Scr=      1
 Normal termination of Gaussian 16 at Sat May 25 04:44:21 2019.
