 Entering Gaussian System, Link 0=g16
 Initial command:
 /opt/software/gaussian/g16.b01/l1.exe "/localscratch/rzk.15153369.0/Gau-28247.inp" -scrdir="/localscratch/rzk.15153369.0/"
 Entering Link 1 = /opt/software/gaussian/g16.b01/l1.exe PID=     28252.
  
 Copyright (c) 1988-2017, Gaussian, Inc.  All Rights Reserved.
  
 This is part of the Gaussian(R) 16 program.  It is based on
 the Gaussian(R) 09 system (copyright 2009, Gaussian, Inc.),
 the Gaussian(R) 03 system (copyright 2003, Gaussian, Inc.),
 the Gaussian(R) 98 system (copyright 1998, Gaussian, Inc.),
 the Gaussian(R) 94 system (copyright 1995, Gaussian, Inc.),
 the Gaussian 92(TM) system (copyright 1992, Gaussian, Inc.),
 the Gaussian 90(TM) system (copyright 1990, Gaussian, Inc.),
 the Gaussian 88(TM) system (copyright 1988, Gaussian, Inc.),
 the Gaussian 86(TM) system (copyright 1986, Carnegie Mellon
 University), and the Gaussian 82(TM) system (copyright 1983,
 Carnegie Mellon University). Gaussian is a federally registered
 trademark of Gaussian, Inc.
  
 This software contains proprietary and confidential information,
 including trade secrets, belonging to Gaussian, Inc.
  
 This software is provided under written license and may be
 used, copied, transmitted, or stored only in accord with that
 written license.
  
 The following legend is applicable only to US Government
 contracts under FAR:
  
                    RESTRICTED RIGHTS LEGEND
  
 Use, reproduction and disclosure by the US Government is
 subject to restrictions as set forth in subparagraphs (a)
 and (c) of the Commercial Computer Software - Restricted
 Rights clause in FAR 52.227-19.
  
 Gaussian, Inc.
 340 Quinnipiac St., Bldg. 40, Wallingford CT 06492
  
  
 ---------------------------------------------------------------
 Warning -- This program may not be used in any manner that
 competes with the business of Gaussian, Inc. or will provide
 assistance to any competitor of Gaussian, Inc.  The licensee
 of this program is prohibited from giving any competitor of
 Gaussian, Inc. access to this program.  By using this program,
 the user acknowledges that Gaussian, Inc. is engaged in the
 business of creating and licensing software in the field of
 computational chemistry and represents and warrants to the
 licensee that it is not a competitor of Gaussian, Inc. and that
 it will not use this program in any manner prohibited above.
 ---------------------------------------------------------------
  

 Cite this work as:
 Gaussian 16, Revision B.01,
 M. J. Frisch, G. W. Trucks, H. B. Schlegel, G. E. Scuseria, 
 M. A. Robb, J. R. Cheeseman, G. Scalmani, V. Barone, 
 G. A. Petersson, H. Nakatsuji, X. Li, M. Caricato, A. V. Marenich, 
 J. Bloino, B. G. Janesko, R. Gomperts, B. Mennucci, H. P. Hratchian, 
 J. V. Ortiz, A. F. Izmaylov, J. L. Sonnenberg, D. Williams-Young, 
 F. Ding, F. Lipparini, F. Egidi, J. Goings, B. Peng, A. Petrone, 
 T. Henderson, D. Ranasinghe, V. G. Zakrzewski, J. Gao, N. Rega, 
 G. Zheng, W. Liang, M. Hada, M. Ehara, K. Toyota, R. Fukuda, 
 J. Hasegawa, M. Ishida, T. Nakajima, Y. Honda, O. Kitao, H. Nakai, 
 T. Vreven, K. Throssell, J. A. Montgomery, Jr., J. E. Peralta, 
 F. Ogliaro, M. J. Bearpark, J. J. Heyd, E. N. Brothers, K. N. Kudin, 
 V. N. Staroverov, T. A. Keith, R. Kobayashi, J. Normand, 
 K. Raghavachari, A. P. Rendell, J. C. Burant, S. S. Iyengar, 
 J. Tomasi, M. Cossi, J. M. Millam, M. Klene, C. Adamo, R. Cammi, 
 J. W. Ochterski, R. L. Martin, K. Morokuma, O. Farkas, 
 J. B. Foresman, and D. J. Fox, Gaussian, Inc., Wallingford CT, 2016.
 
 ******************************************
 Gaussian 16:  ES64L-G16RevB.01 20-Dec-2017
                25-May-2019 
 ******************************************
 %NProcShared=32
 Will use up to   32 processors via shared memory.
 %chk=AH-A_6.chk
 ----------------------------------------------------------------------
 #p td=(50-50,nstates=36) ub3lyp/6-31g(d,p) scrf=(iefpcm,solvent=aceton
 itrile) guess=(mix,always) empiricaldispersion=gd3
 ----------------------------------------------------------------------
 1/38=1,172=1/1;
 2/12=2,17=6,18=5,40=1/2;
 3/5=1,6=6,7=101,11=2,25=1,30=1,70=2201,72=2,74=-5,116=2,124=31/1,2,3,8;
 4/13=-1/1;
 5/5=2,38=5,53=2/2;
 8/6=1,10=2,108=36/1;
 9/41=36,42=1,48=2,70=2/14;
 6/7=2,8=2,9=2,10=2/1;
 99/5=1,9=1/99;
 Leave Link    1 at Sat May 25 04:19:35 2019, MaxMem=           0 cpu:               2.3 elap:               0.1
 (Enter /opt/software/gaussian/g16.b01/l101.exe)
 -------------------
 Title Card Required
 -------------------
 Symbolic Z-matrix:
 Charge =  0 Multiplicity = 2
 C                    -1.08188  -1.44211  -0.94368 
 C                     0.76774  -1.28117   1.01668 
 O                    -1.48333  -2.48589  -0.40804 
 C                    -0.08982  -1.51552  -2.08483 
 H                    -0.60771  -1.27136  -3.01965 
 H                     0.73658  -0.81173  -1.9715 
 H                     0.30655  -2.52871  -2.14602 
 C                    -0.2371   -1.21492   2.12337 
 H                    -0.6605   -0.21886   2.24743 
 H                    -1.06164  -1.90414   1.91737 
 H                     0.22457  -1.51753   3.07333 
 C                    -1.68556  -0.12594  -0.59251 
 C                    -2.7988   -0.10196   0.26638 
 C                    -1.17745   1.08935  -1.08196 
 C                    -3.38441   1.10536   0.63374 
 H                    -3.188    -1.04491   0.63382 
 C                    -1.76272   2.29867  -0.7102 
 H                    -0.31399   1.09893  -1.73652 
 C                    -2.86518   2.31063   0.14787 
 H                    -4.24443   1.11126   1.29655 
 H                    -1.35421   3.23185  -1.08546 
 H                    -3.31898   3.25401   0.43647 
 C                     1.62032  -0.21192   0.6119 
 C                     2.68761  -0.4403   -0.30369 
 C                     1.41859   1.12237   1.06243 
 C                     3.48941   0.60475  -0.74245 
 H                     2.86392  -1.44912  -0.65762 
 C                     2.22779   2.15769   0.614 
 H                     0.61668   1.34403   1.75663 
 C                     3.26896   1.91333  -0.29135 
 H                     4.29578   0.40158  -1.44163 
 H                     2.0457    3.16756   0.97043 
 H                     3.89732   2.72759  -0.63845 
 O                     1.11823  -2.53288   0.59829 
 H                     0.29823  -3.05019   0.48857 
 
 ITRead=  0  0  0  0  0  0  0  0  0  0  0  0  0  0  0  0  0  0  0  0
 ITRead=  0  0  0  0  0  0  0  0  0  0  0  0  0  0  0
 MicOpt= -1 -1 -1 -1 -1 -1 -1 -1 -1 -1 -1 -1 -1 -1 -1 -1 -1 -1 -1 -1
 MicOpt= -1 -1 -1 -1 -1 -1 -1 -1 -1 -1 -1 -1 -1 -1 -1
 NAtoms=     35 NQM=       35 NQMF=       0 NMMI=      0 NMMIF=      0
                NMic=       0 NMicF=      0.
                    Isotopes and Nuclear Properties:
 (Nuclear quadrupole moments (NQMom) in fm**2, nuclear magnetic moments (NMagM)
  in nuclear magnetons)

  Atom         1           2           3           4           5           6           7           8           9          10
 IAtWgt=          12          12          16          12           1           1           1          12           1           1
 AtmWgt=  12.0000000  12.0000000  15.9949146  12.0000000   1.0078250   1.0078250   1.0078250  12.0000000   1.0078250   1.0078250
 NucSpn=           0           0           0           0           1           1           1           0           1           1
 AtZEff=  -0.0000000  -0.0000000  -0.0000000  -0.0000000  -0.0000000  -0.0000000  -0.0000000  -0.0000000  -0.0000000  -0.0000000
 NQMom=    0.0000000   0.0000000   0.0000000   0.0000000   0.0000000   0.0000000   0.0000000   0.0000000   0.0000000   0.0000000
 NMagM=    0.0000000   0.0000000   0.0000000   0.0000000   2.7928460   2.7928460   2.7928460   0.0000000   2.7928460   2.7928460
 AtZNuc=   6.0000000   6.0000000   8.0000000   6.0000000   1.0000000   1.0000000   1.0000000   6.0000000   1.0000000   1.0000000

  Atom        11          12          13          14          15          16          17          18          19          20
 IAtWgt=           1          12          12          12          12           1          12           1          12           1
 AtmWgt=   1.0078250  12.0000000  12.0000000  12.0000000  12.0000000   1.0078250  12.0000000   1.0078250  12.0000000   1.0078250
 NucSpn=           1           0           0           0           0           1           0           1           0           1
 AtZEff=  -0.0000000  -0.0000000  -0.0000000  -0.0000000  -0.0000000  -0.0000000  -0.0000000  -0.0000000  -0.0000000  -0.0000000
 NQMom=    0.0000000   0.0000000   0.0000000   0.0000000   0.0000000   0.0000000   0.0000000   0.0000000   0.0000000   0.0000000
 NMagM=    2.7928460   0.0000000   0.0000000   0.0000000   0.0000000   2.7928460   0.0000000   2.7928460   0.0000000   2.7928460
 AtZNuc=   1.0000000   6.0000000   6.0000000   6.0000000   6.0000000   1.0000000   6.0000000   1.0000000   6.0000000   1.0000000

  Atom        21          22          23          24          25          26          27          28          29          30
 IAtWgt=           1           1          12          12          12          12           1          12           1          12
 AtmWgt=   1.0078250   1.0078250  12.0000000  12.0000000  12.0000000  12.0000000   1.0078250  12.0000000   1.0078250  12.0000000
 NucSpn=           1           1           0           0           0           0           1           0           1           0
 AtZEff=  -0.0000000  -0.0000000  -0.0000000  -0.0000000  -0.0000000  -0.0000000  -0.0000000  -0.0000000  -0.0000000  -0.0000000
 NQMom=    0.0000000   0.0000000   0.0000000   0.0000000   0.0000000   0.0000000   0.0000000   0.0000000   0.0000000   0.0000000
 NMagM=    2.7928460   2.7928460   0.0000000   0.0000000   0.0000000   0.0000000   2.7928460   0.0000000   2.7928460   0.0000000
 AtZNuc=   1.0000000   1.0000000   6.0000000   6.0000000   6.0000000   6.0000000   1.0000000   6.0000000   1.0000000   6.0000000

  Atom        31          32          33          34          35
 IAtWgt=           1           1           1          16           1
 AtmWgt=   1.0078250   1.0078250   1.0078250  15.9949146   1.0078250
 NucSpn=           1           1           1           0           1
 AtZEff=  -0.0000000  -0.0000000  -0.0000000  -0.0000000  -0.0000000
 NQMom=    0.0000000   0.0000000   0.0000000   0.0000000   0.0000000
 NMagM=    2.7928460   2.7928460   2.7928460   0.0000000   2.7928460
 AtZNuc=   1.0000000   1.0000000   1.0000000   8.0000000   1.0000000
 Leave Link  101 at Sat May 25 04:19:35 2019, MaxMem=   104857600 cpu:               4.3 elap:               0.2
 (Enter /opt/software/gaussian/g16.b01/l202.exe)
                          Input orientation:                          
 ---------------------------------------------------------------------
 Center     Atomic      Atomic             Coordinates (Angstroms)
 Number     Number       Type             X           Y           Z
 ---------------------------------------------------------------------
      1          6           0       -1.081880   -1.442111   -0.943681
      2          6           0        0.767735   -1.281172    1.016682
      3          8           0       -1.483332   -2.485886   -0.408036
      4          6           0       -0.089820   -1.515520   -2.084828
      5          1           0       -0.607707   -1.271358   -3.019654
      6          1           0        0.736579   -0.811731   -1.971497
      7          1           0        0.306548   -2.528708   -2.146024
      8          6           0       -0.237100   -1.214919    2.123371
      9          1           0       -0.660499   -0.218864    2.247431
     10          1           0       -1.061636   -1.904139    1.917366
     11          1           0        0.224568   -1.517530    3.073325
     12          6           0       -1.685559   -0.125935   -0.592508
     13          6           0       -2.798798   -0.101960    0.266378
     14          6           0       -1.177448    1.089348   -1.081960
     15          6           0       -3.384405    1.105362    0.633736
     16          1           0       -3.188000   -1.044913    0.633818
     17          6           0       -1.762724    2.298670   -0.710199
     18          1           0       -0.313989    1.098934   -1.736524
     19          6           0       -2.865178    2.310632    0.147868
     20          1           0       -4.244431    1.111263    1.296547
     21          1           0       -1.354212    3.231850   -1.085461
     22          1           0       -3.318983    3.254008    0.436466
     23          6           0        1.620318   -0.211921    0.611901
     24          6           0        2.687605   -0.440297   -0.303686
     25          6           0        1.418588    1.122368    1.062433
     26          6           0        3.489408    0.604745   -0.742445
     27          1           0        2.863916   -1.449116   -0.657619
     28          6           0        2.227790    2.157691    0.614002
     29          1           0        0.616677    1.344031    1.756626
     30          6           0        3.268964    1.913325   -0.291353
     31          1           0        4.295782    0.401579   -1.441632
     32          1           0        2.045701    3.167561    0.970432
     33          1           0        3.897320    2.727585   -0.638449
     34          8           0        1.118229   -2.532876    0.598289
     35          1           0        0.298225   -3.050195    0.488567
 ---------------------------------------------------------------------
                    Distance matrix (angstroms):
                    1          2          3          4          5
     1  C    0.000000
     2  C    2.700000   0.000000
     3  O    1.239978   2.923775   0.000000
     4  C    1.513865   3.226404   2.386444   0.000000
     5  H    2.136273   4.264264   3.010373   1.096231   0.000000
     6  H    2.181875   3.024989   3.189861   1.091374   1.765501
     7  H    2.134023   3.430998   2.495217   1.089680   1.783261
     8  C    3.189369   1.496277   3.094588   4.221492   5.156670
     9  H    3.443413   2.164046   3.587192   4.558010   5.371472
    10  H    2.898184   2.132116   2.433876   4.136787   4.998063
    11  H    4.224788   2.140251   3.996813   5.167725   6.154484
    12  C    1.489990   3.153207   2.375772   2.589276   2.892196
    13  C    2.491597   3.830621   2.805065   3.855500   4.119026
    14  C    2.537034   3.715831   3.651032   2.995666   3.106798
    15  C    3.778821   4.804421   4.194810   5.011377   5.167795
    16  H    2.661205   3.981236   2.463282   4.148642   4.478509
    17  C    3.809397   4.711752   4.802222   4.385916   4.405990
    18  H    2.770409   3.796732   3.997897   2.647062   2.711269
    19  C    4.295895   5.182080   5.022461   5.227522   5.287724
    20  H    4.641128   5.560924   4.844456   5.966111   6.126356
    21  H    4.684034   5.411934   5.759174   5.013476   4.957545
    22  H    5.381725   6.132355   6.085161   6.287513   6.306720
    23  C    3.351877   1.426199   3.980431   3.449100   4.390295
    24  C    3.952498   2.477164   4.646723   3.470254   4.350428
    25  C    4.105288   2.490524   4.858283   4.374814   5.147740
    26  C    5.012663   3.749495   5.864467   4.371314   5.048940
    27  H    3.956158   2.688022   4.476131   3.281142   4.202734
    28  C    5.132141   3.757618   6.031567   5.113461   5.744726
    29  H    4.235486   2.731671   4.874840   4.840758   5.581418
    30  C    5.533021   4.262853   6.476958   5.123959   5.710903
    31  H    5.706698   4.617583   6.542472   4.829335   5.416002
    32  H    5.890218   4.628883   6.805565   5.985508   6.531873
    33  H    6.501689   5.348261   7.495651   5.999436   6.477419
    34  O    2.899641   1.365526   2.789806   3.113441   4.202356
    35  H    2.557725   1.904938   2.072749   3.021286   4.036408
                    6          7          8          9         10
     6  H    0.000000
     7  H    1.778594   0.000000
     8  C    4.228304   4.499925   0.000000
     9  H    4.483600   5.056976   1.089396   0.000000
    10  H    4.421559   4.332800   1.094222   1.763521   0.000000
    11  H    5.119623   5.317030   1.098692   1.775381   1.772013
    12  C    2.870310   3.486434   3.264953   3.020701   3.138592
    13  C    4.243907   4.620818   3.354012   2.917286   2.998557
    14  C    2.840577   4.052753   4.058084   3.614346   4.239143
    15  C    5.238797   5.878492   4.184285   3.431800   4.012488
    16  H    4.716393   4.705426   3.309906   3.110364   2.628153
    17  C    4.184732   5.444911   4.764657   4.037382   5.005919
    18  H    2.193068   3.703045   4.500957   4.210529   4.788354
    19  C    5.216657   6.224227   4.820676   3.958172   4.914080
    20  H    6.260070   6.768463   4.706746   3.939288   4.428120
    21  H    4.637566   6.088263   5.596275   4.847353   5.956589
    22  H    6.227046   7.297502   5.684625   4.733706   5.821955
    23  C    2.795481   3.834011   2.596257   2.806623   3.429390
    24  C    2.593465   3.664028   3.878730   4.215096   4.597033
    25  C    3.662049   4.986099   3.054473   2.743306   4.005267
    26  C    3.330922   4.681790   5.040927   5.180677   5.837902
    27  H    2.580329   3.149762   4.171936   4.730152   4.716731
    28  C    4.210224   5.768124   4.441664   4.081460   5.386793
    29  H    4.308200   5.506811   2.722437   2.077188   3.659669
    30  C    4.081885   5.652200   5.282924   5.141239   6.181065
    31  H    3.797473   4.999674   5.989101   6.209578   6.730611
    32  H    5.118937   6.721937   5.074109   4.519084   6.022821
    33  H    4.928900   6.541792   6.345425   6.146835   7.250952
    34  O    3.116376   2.861835   2.428951   3.352342   2.624326
    35  H    3.354816   2.685719   2.515431   3.468312   2.281257
                   11         12         13         14         15
    11  H    0.000000
    12  C    4.361588   0.000000
    13  C    4.361597   1.406258   0.000000
    14  C    5.101750   1.405223   2.421984   0.000000
    15  C    5.084864   2.430194   1.391227   2.795448   0.000000
    16  H    4.221396   2.146095   1.084274   3.397246   2.159226
    17  C    5.729552   2.428686   2.791089   1.393992   2.420743
    18  H    5.501870   2.165706   3.409991   1.083562   3.878869
    19  C    5.723605   2.806513   2.416413   2.419183   1.399407
    20  H    5.480825   3.412772   2.150119   3.881258   1.085817
    21  H    6.507277   3.409914   3.876672   2.149784   3.405771
    22  H    6.502104   3.892413   3.400301   3.402579   2.158674
    23  C    3.116302   3.519491   4.433967   3.519938   5.175226
    24  C    4.316386   4.393951   5.526306   4.228967   6.335387
    25  C    3.526816   3.732669   4.463074   3.367330   4.822117
    26  C    5.451911   5.228447   6.407706   4.704217   7.028072
    27  H    4.570643   4.738435   5.893635   4.791293   6.872734
    28  C    4.854731   4.688807   5.522088   3.951366   5.710037
    29  H    3.174268   3.602710   3.997149   3.367687   4.162512
    30  C    5.688600   5.366244   6.417957   4.590706   6.765790
    31  H    6.375155   6.064299   7.314637   5.527987   7.986722
    32  H    5.448739   5.216531   5.886818   4.349709   5.818254
    33  H    6.729590   6.270026   7.325506   5.351055   7.567931
    34  O    2.820525   3.882343   4.621971   4.605852   5.788933
    35  H    3.005904   3.695324   4.281706   4.666903   5.554412
                   16         17         18         19         20
    16  H    0.000000
    17  C    3.875221   0.000000
    18  H    4.298202   2.142789   0.000000
    19  C    3.405884   1.397078   3.395248   0.000000
    20  H    2.490853   3.405266   4.964680   2.158770   0.000000
    21  H    4.960786   1.085601   2.460747   2.157026   4.303977
    22  H    4.305441   2.156259   4.289081   1.085903   2.487479
    23  C    4.879988   4.415426   3.312851   5.167037   6.051019
    24  C    5.980569   5.241433   3.664945   6.213285   7.281566
    25  C    5.108960   3.827095   3.291889   4.538618   5.667867
    26  C    7.014503   5.518633   3.962101   6.639538   8.014132
    27  H    6.201361   5.954365   4.213748   6.899785   7.804031
    28  C    6.291887   4.206850   3.620301   5.116541   6.591701
    29  H    4.630693   3.557824   3.623301   3.955469   4.888376
    30  C    7.162367   5.063774   3.948329   6.162667   7.721129
    31  H    7.899799   6.390575   4.671537   7.579600   8.996472
    32  H    6.726803   4.252481   4.144269   5.052492   6.625743
    33  H    8.127248   5.676726   4.646870   6.820815   8.523193
    34  O    4.556194   5.775454   4.548917   6.287287   6.521153
    35  H    4.024428   5.856185   4.747748   6.233912   6.213396
                   21         22         23         24         25
    21  H    0.000000
    22  H    2.485373   0.000000
    23  C    4.856792   6.036567   0.000000
    24  C    5.516532   7.090473   1.424625   0.000000
    25  C    4.092894   5.232619   1.422674   2.432819   0.000000
    26  C    5.520869   7.400177   2.448406   1.388348   2.795320
    27  H    6.315623   7.845039   2.165380   1.083545   3.414686
    28  C    4.107643   5.656865   2.446239   2.793407   1.388449
    29  H    3.940269   4.569492   2.176850   3.423077   1.083559
    30  C    4.872666   6.762263   2.837353   2.424390   2.425333
    31  H    6.329275   8.345553   3.428044   2.142407   3.881768
    32  H    3.973693   5.391885   3.424966   3.879698   2.141156
    33  H    5.294591   7.314888   3.922857   3.407485   3.407907
    34  O    6.494617   7.294043   2.374681   2.766837   3.696817
    35  H    6.683727   7.268417   3.133519   3.626068   4.358304
                   26         27         28         29         30
    26  C    0.000000
    27  H    2.148670   0.000000
    28  C    2.417286   3.876949   0.000000
    29  H    3.878722   4.322075   2.136192   0.000000
    30  C    1.401592   3.406497   1.401223   3.398962   0.000000
    31  H    1.086452   2.467790   3.403844   4.965167   2.159369
    32  H    3.403860   4.963238   1.086295   2.446522   2.159070
    33  H    2.164176   4.302688   2.163503   4.291063   1.085507
    34  O    4.155084   2.408166   4.820041   4.077218   5.018548
    35  H    5.005759   3.234187   5.555271   4.584605   5.836959
                   31         32         33         34         35
    31  H    0.000000
    32  H    4.304831   0.000000
    33  H    2.492825   2.492101   0.000000
    34  O    4.782170   5.787372   6.076621   0.000000
    35  H    5.623244   6.476601   6.899739   0.975738   0.000000
 Stoichiometry    C16H17O2(2)
 Framework group  C1[X(C16H17O2)]
 Deg. of freedom    99
 Full point group                 C1      NOp   1
 Largest Abelian subgroup         C1      NOp   1
 Largest concise Abelian subgroup C1      NOp   1
                         Standard orientation:                         
 ---------------------------------------------------------------------
 Center     Atomic      Atomic             Coordinates (Angstroms)
 Number     Number       Type             X           Y           Z
 ---------------------------------------------------------------------
      1          6           0       -1.081880   -1.442111   -0.943681
      2          6           0        0.767735   -1.281172    1.016682
      3          8           0       -1.483332   -2.485886   -0.408036
      4          6           0       -0.089820   -1.515520   -2.084828
      5          1           0       -0.607707   -1.271358   -3.019654
      6          1           0        0.736579   -0.811731   -1.971497
      7          1           0        0.306548   -2.528708   -2.146024
      8          6           0       -0.237100   -1.214919    2.123371
      9          1           0       -0.660499   -0.218864    2.247431
     10          1           0       -1.061636   -1.904139    1.917366
     11          1           0        0.224568   -1.517530    3.073325
     12          6           0       -1.685559   -0.125935   -0.592508
     13          6           0       -2.798798   -0.101960    0.266378
     14          6           0       -1.177448    1.089348   -1.081960
     15          6           0       -3.384405    1.105362    0.633736
     16          1           0       -3.188000   -1.044913    0.633818
     17          6           0       -1.762724    2.298670   -0.710199
     18          1           0       -0.313989    1.098934   -1.736524
     19          6           0       -2.865178    2.310632    0.147868
     20          1           0       -4.244431    1.111263    1.296547
     21          1           0       -1.354212    3.231850   -1.085461
     22          1           0       -3.318983    3.254008    0.436466
     23          6           0        1.620318   -0.211921    0.611901
     24          6           0        2.687605   -0.440297   -0.303686
     25          6           0        1.418588    1.122368    1.062433
     26          6           0        3.489408    0.604745   -0.742445
     27          1           0        2.863916   -1.449116   -0.657619
     28          6           0        2.227790    2.157691    0.614002
     29          1           0        0.616677    1.344031    1.756626
     30          6           0        3.268964    1.913325   -0.291353
     31          1           0        4.295782    0.401579   -1.441632
     32          1           0        2.045701    3.167561    0.970432
     33          1           0        3.897320    2.727585   -0.638449
     34          8           0        1.118229   -2.532876    0.598289
     35          1           0        0.298225   -3.050195    0.488567
 ---------------------------------------------------------------------
 Rotational constants (GHZ):           0.5681181           0.3853873           0.2966811
 Leave Link  202 at Sat May 25 04:19:35 2019, MaxMem=   104857600 cpu:               1.8 elap:               0.1
 (Enter /opt/software/gaussian/g16.b01/l301.exe)
 Standard basis: 6-31G(d,p) (6D, 7F)
 Ernie: Thresh=  0.10000D-02 Tol=  0.10000D-05 Strict=F.
 There are   355 symmetry adapted cartesian basis functions of A   symmetry.
 There are   355 symmetry adapted basis functions of A   symmetry.
   355 basis functions,   623 primitive gaussians,   355 cartesian basis functions
    65 alpha electrons       64 beta electrons
       nuclear repulsion energy      1309.5628033275 Hartrees.
 IExCor=  402 DFT=T Ex+Corr=B3LYP ExCW=0 ScaHFX=  0.200000
 ScaDFX=  0.800000  0.720000  1.000000  0.810000 ScalE2=  1.000000  1.000000
 IRadAn=      5 IRanWt=     -1 IRanGd=            0 ICorTp=0 IEmpDi=131
 NAtoms=   35 NActive=   35 NUniq=   35 SFac= 1.00D+00 NAtFMM=   60 NAOKFM=F Big=F
 Integral buffers will be    131072 words long.
 Raffenetti 2 integral format.
 Two-electron integral symmetry is turned on.
 R6Disp:  Grimme-D3 Dispersion energy=       -0.0418175519 Hartrees.
 Nuclear repulsion after empirical dispersion term =     1309.5209857756 Hartrees.
 ------------------------------------------------------------------------------
 Polarizable Continuum Model (PCM)
 =================================
 Model                : PCM.
 Atomic radii         : UFF (Universal Force Field).
 Polarization charges : Total charges.
 Charge compensation  : None.
 Solution method      : On-the-fly selection.
 Cavity type          : Scaled VdW (van der Waals Surface) (Alpha=1.100).
 Cavity algorithm     : GePol (No added spheres)
                        Default sphere list used, NSphG=   35.
                        Lebedev-Laikov grids with approx.  5.0 points / Ang**2.
                        Smoothing algorithm: York/Karplus (Gamma=1.0000).
                        Polarization charges: spherical gaussians, with
                                              point-specific exponents (IZeta= 3).
                        Self-potential: point-specific (ISelfS= 7).
                        Self-field    : sphere-specific E.n sum rule (ISelfD= 2).
 Solvent              : Acetonitrile, Eps=  35.688000 Eps(inf)=   1.806874
 ------------------------------------------------------------------------------
 GePol: Number of generator spheres                  =      35
 GePol: Total number of spheres                      =      35
 GePol: Number of exposed spheres                    =      35 (100.00%)
 GePol: Number of points                             =    2427
 GePol: Average weight of points                     =       0.13
 GePol: Minimum weight of points                     =   0.26D-11
 GePol: Maximum weight of points                     =    0.20577
 GePol: Number of points with low weight             =     144
 GePol: Fraction of low-weight points (<1% of avg)   =       5.93%
 GePol: Cavity surface area                          =    313.539 Ang**2
 GePol: Cavity volume                                =    358.178 Ang**3
 Leave Link  301 at Sat May 25 04:19:35 2019, MaxMem=   104857600 cpu:               3.4 elap:               0.2
 (Enter /opt/software/gaussian/g16.b01/l302.exe)
 NPDir=0 NMtPBC=     1 NCelOv=     1 NCel=       1 NClECP=     1 NCelD=      1
         NCelK=      1 NCelE2=     1 NClLst=     1 CellRange=     0.0.
 One-electron integrals computed using PRISM.
 One-electron integral symmetry used in STVInt
 PrsmSu:  requested number of processors reduced to:  28 ShMem   1 Linda.
 NBasis=   355 RedAO= T EigKep=  4.55D-04  NBF=   355
 NBsUse=   355 1.00D-06 EigRej= -1.00D+00 NBFU=   355
 Precomputing XC quadrature grid using
 IXCGrd= 4 IRadAn=           5 IRanWt=          -1 IRanGd=           0 AccXCQ= 0.00D+00.
 Generated NRdTot=       0 NPtTot=           0 NUsed=           0 NTot=          32
 NSgBfM=   354   354   354   354   354 MxSgAt=    35 MxSgA2=    35.
 Leave Link  302 at Sat May 25 04:19:36 2019, MaxMem=   104857600 cpu:              16.2 elap:               0.6
 (Enter /opt/software/gaussian/g16.b01/l303.exe)
 DipDrv:  MaxL=1.
 Leave Link  303 at Sat May 25 04:19:36 2019, MaxMem=   104857600 cpu:               1.7 elap:               0.1
 (Enter /opt/software/gaussian/g16.b01/l308.exe)
 Leave Link  308 at Sat May 25 04:19:37 2019, MaxMem=   104857600 cpu:               2.6 elap:               0.1
 (Enter /opt/software/gaussian/g16.b01/l401.exe)
 ExpMin= 1.61D-01 ExpMax= 5.48D+03 ExpMxC= 8.25D+02 IAcc=3 IRadAn=         5 AccDes= 0.00D+00
 Harris functional with IExCor=  402 and IRadAn=       5 diagonalized for initial guess.
 HarFok:  IExCor=  402 AccDes= 0.00D+00 IRadAn=         5 IDoV= 1 UseB2=F ITyADJ=14
 ICtDFT=  3500011 ScaDFX=  1.000000  1.000000  1.000000  1.000000
 FoFCou: FMM=F IPFlag=           0 FMFlag=      100000 FMFlg1=           0
         NFxFlg=           0 DoJE=T BraDBF=F KetDBF=T FulRan=T
         wScrn=  0.000000 ICntrl=       500 IOpCl=  0 I1Cent=   200000004 NGrid=           0
         NMat0=    1 NMatS0=      1 NMatT0=    0 NMatD0=    1 NMtDS0=    0 NMtDT0=    0
 Petite list used in FoFCou.
 Harris En= -770.476389904208    
 JPrj=0 DoOrth=F DoCkMO=T.
 Mixing orbitals, IMix= 1 IMixAn=  0 NRI=1 NE=   65 Coef=  7.07106781D-01  7.07106781D-01
 Mixing orbitals, IMix= 1 IMixAn=  0 NRI=1 NE=   64 Coef= -7.07106781D-01  7.07106781D-01
 Initial guess <Sx>= 0.0000 <Sy>= 0.0000 <Sz>= 0.5000 <S**2>= 1.0000 S= 0.6180
 Leave Link  401 at Sat May 25 04:19:38 2019, MaxMem=   104857600 cpu:              27.8 elap:               0.9
 (Enter /opt/software/gaussian/g16.b01/l502.exe)
 Integral symmetry usage will be decided dynamically.
 UHF open shell SCF:
 Using DIIS extrapolation, IDIIS=  1040.
 NGot=   104857600 LenX=   104590331 LenY=   104463865
 Requested convergence on RMS density matrix=1.00D-08 within 128 cycles.
 Requested convergence on MAX density matrix=1.00D-06.
 Requested convergence on             energy=1.00D-06.
 No special actions if energy rises.
 Fock matrices will be formed incrementally for  20 cycles.

 Cycle   1  Pass 1  IDiag  1:
 FoFJK:  IHMeth= 1 ICntrl=       0 DoSepK=F KAlg= 0 I1Cent=           0 FoldK=F
 IRaf= 840000000 NMat=       1 IRICut=       1 DoRegI=T DoRafI=F ISym2E= 0 IDoP0=0 IntGTp=1.
 FoFCou: FMM=F IPFlag=           0 FMFlag=      100000 FMFlg1=           0
         NFxFlg=           0 DoJE=F BraDBF=F KetDBF=F FulRan=T
         wScrn=  0.000000 ICntrl=         0 IOpCl=  1 I1Cent=           0 NGrid=           0
         NMat0=    1 NMatS0=      1 NMatT0=    0 NMatD0=    1 NMtDS0=    0 NMtDT0=    0
 Symmetry not used in FoFCou.
 Inv3:  Mode=1 IEnd=    17670987.
 Iteration    1 A*A^-1 deviation from unit magnitude is 3.33D-15 for    485.
 Iteration    1 A*A^-1 deviation from orthogonality  is 2.94D-15 for   1732   1399.
 Iteration    1 A^-1*A deviation from unit magnitude is 3.55D-15 for    485.
 Iteration    1 A^-1*A deviation from orthogonality  is 6.24D-14 for   2001   1982.
 E= -769.870063134598    
 DIIS: error= 2.80D-02 at cycle   1 NSaved=   1.
 NSaved= 1 IEnMin= 1 EnMin= -769.870063134598     IErMin= 1 ErrMin= 2.80D-02
 ErrMax= 2.80D-02  0.00D+00 EMaxC= 1.00D-01 BMatC= 1.82D+00 BMatP= 1.82D+00
 IDIUse=3 WtCom= 7.20D-01 WtEn= 2.80D-01
 Coeff-Com:  0.100D+01
 Coeff-En:   0.100D+01
 Coeff:      0.100D+01
 Gap=     0.002 Goal=   None    Shift=    0.000
 Gap=    -0.005 Goal=   None    Shift=    0.000
 GapD=   -0.005 DampG=0.250 DampE=0.500 DampFc=0.2500 IDamp=-1.
 Damping current iteration by 2.50D-01
 RMSDP=4.57D-03 MaxDP=1.53D-01              OVMax= 6.07D-01

 Cycle   2  Pass 1  IDiag  1:
 RMSU=  1.12D-03    CP:  9.86D-01
 E= -770.053692834741     Delta-E=       -0.183629700143 Rises=F Damp=T
 DIIS: error= 1.59D-02 at cycle   2 NSaved=   2.
 NSaved= 2 IEnMin= 2 EnMin= -770.053692834741     IErMin= 2 ErrMin= 1.59D-02
 ErrMax= 1.59D-02  0.00D+00 EMaxC= 1.00D-01 BMatC= 4.84D-01 BMatP= 1.82D+00
 IDIUse=3 WtCom= 8.41D-01 WtEn= 1.59D-01
 Coeff-Com: -0.831D+00 0.183D+01
 Coeff-En:   0.000D+00 0.100D+01
 Coeff:     -0.698D+00 0.170D+01
 Gap=     0.074 Goal=   None    Shift=    0.000
 Gap=     0.138 Goal=   None    Shift=    0.000
 RMSDP=2.08D-03 MaxDP=4.82D-02 DE=-1.84D-01 OVMax= 1.99D-01

 Cycle   3  Pass 1  IDiag  1:
 RMSU=  1.46D-03    CP:  9.56D-01  2.24D+00
 E= -770.391535135319     Delta-E=       -0.337842300578 Rises=F Damp=F
 DIIS: error= 6.84D-03 at cycle   3 NSaved=   3.
 NSaved= 3 IEnMin= 3 EnMin= -770.391535135319     IErMin= 3 ErrMin= 6.84D-03
 ErrMax= 6.84D-03  0.00D+00 EMaxC= 1.00D-01 BMatC= 1.45D-01 BMatP= 4.84D-01
 IDIUse=3 WtCom= 9.32D-01 WtEn= 6.84D-02
 Coeff-Com: -0.447D+00 0.953D+00 0.495D+00
 Coeff-En:   0.000D+00 0.000D+00 0.100D+01
 Coeff:     -0.417D+00 0.888D+00 0.529D+00
 Gap=     0.094 Goal=   None    Shift=    0.000
 Gap=     0.145 Goal=   None    Shift=    0.000
 RMSDP=8.25D-04 MaxDP=3.85D-02 DE=-3.38D-01 OVMax= 8.94D-02

 Cycle   4  Pass 1  IDiag  1:
 RMSU=  7.16D-04    CP:  9.60D-01  2.28D+00  7.24D-01
 E= -770.419024438298     Delta-E=       -0.027489302978 Rises=F Damp=F
 DIIS: error= 3.76D-03 at cycle   4 NSaved=   4.
 NSaved= 4 IEnMin= 4 EnMin= -770.419024438298     IErMin= 4 ErrMin= 3.76D-03
 ErrMax= 3.76D-03  0.00D+00 EMaxC= 1.00D-01 BMatC= 3.50D-02 BMatP= 1.45D-01
 IDIUse=3 WtCom= 9.62D-01 WtEn= 3.76D-02
 Coeff-Com: -0.429D-01 0.108D+00 0.324D+00 0.611D+00
 Coeff-En:   0.000D+00 0.000D+00 0.198D+00 0.802D+00
 Coeff:     -0.413D-01 0.104D+00 0.320D+00 0.618D+00
 Gap=     0.098 Goal=   None    Shift=    0.000
 Gap=     0.157 Goal=   None    Shift=    0.000
 RMSDP=3.34D-04 MaxDP=1.72D-02 DE=-2.75D-02 OVMax= 3.50D-02

 Cycle   5  Pass 1  IDiag  1:
 RMSU=  2.01D-04    CP:  9.58D-01  2.26D+00  8.42D-01  7.19D-01
 E= -770.427011867003     Delta-E=       -0.007987428705 Rises=F Damp=F
 DIIS: error= 8.86D-04 at cycle   5 NSaved=   5.
 NSaved= 5 IEnMin= 5 EnMin= -770.427011867003     IErMin= 5 ErrMin= 8.86D-04
 ErrMax= 8.86D-04  0.00D+00 EMaxC= 1.00D-01 BMatC= 2.03D-03 BMatP= 3.50D-02
 IDIUse=3 WtCom= 9.91D-01 WtEn= 8.86D-03
 Coeff-Com:  0.577D-02-0.424D-02 0.120D+00 0.302D+00 0.577D+00
 Coeff-En:   0.000D+00 0.000D+00 0.000D+00 0.000D+00 0.100D+01
 Coeff:      0.572D-02-0.421D-02 0.119D+00 0.299D+00 0.580D+00
 Gap=     0.101 Goal=   None    Shift=    0.000
 Gap=     0.161 Goal=   None    Shift=    0.000
 RMSDP=9.22D-05 MaxDP=4.04D-03 DE=-7.99D-03 OVMax= 9.25D-03

 Cycle   6  Pass 1  IDiag  1:
 RMSU=  8.29D-05    CP:  9.58D-01  2.27D+00  8.47D-01  7.64D-01  8.89D-01
 E= -770.427574567895     Delta-E=       -0.000562700893 Rises=F Damp=F
 DIIS: error= 5.24D-04 at cycle   6 NSaved=   6.
 NSaved= 6 IEnMin= 6 EnMin= -770.427574567895     IErMin= 6 ErrMin= 5.24D-04
 ErrMax= 5.24D-04  0.00D+00 EMaxC= 1.00D-01 BMatC= 3.84D-04 BMatP= 2.03D-03
 IDIUse=3 WtCom= 9.95D-01 WtEn= 5.24D-03
 Coeff-Com:  0.104D-01-0.205D-01-0.572D-02 0.188D-01 0.288D+00 0.709D+00
 Coeff-En:   0.000D+00 0.000D+00 0.000D+00 0.000D+00 0.000D+00 0.100D+01
 Coeff:      0.104D-01-0.204D-01-0.569D-02 0.187D-01 0.286D+00 0.711D+00
 Gap=     0.103 Goal=   None    Shift=    0.000
 Gap=     0.161 Goal=   None    Shift=    0.000
 RMSDP=5.13D-05 MaxDP=3.33D-03 DE=-5.63D-04 OVMax= 9.17D-03

 Cycle   7  Pass 1  IDiag  1:
 RMSU=  3.71D-05    CP:  9.58D-01  2.27D+00  8.49D-01  7.85D-01  1.05D+00
                    CP:  9.44D-01
 E= -770.427760205203     Delta-E=       -0.000185637308 Rises=F Damp=F
 DIIS: error= 2.86D-04 at cycle   7 NSaved=   7.
 NSaved= 7 IEnMin= 7 EnMin= -770.427760205203     IErMin= 7 ErrMin= 2.86D-04
 ErrMax= 2.86D-04  0.00D+00 EMaxC= 1.00D-01 BMatC= 6.79D-05 BMatP= 3.84D-04
 IDIUse=3 WtCom= 9.97D-01 WtEn= 2.86D-03
 Coeff-Com: -0.495D-03 0.535D-04-0.262D-01-0.670D-01-0.749D-01 0.216D+00
 Coeff-Com:  0.952D+00
 Coeff-En:   0.000D+00 0.000D+00 0.000D+00 0.000D+00 0.000D+00 0.000D+00
 Coeff-En:   0.100D+01
 Coeff:     -0.493D-03 0.534D-04-0.261D-01-0.668D-01-0.747D-01 0.216D+00
 Coeff:      0.952D+00
 Gap=     0.103 Goal=   None    Shift=    0.000
 Gap=     0.162 Goal=   None    Shift=    0.000
 RMSDP=3.20D-05 MaxDP=1.74D-03 DE=-1.86D-04 OVMax= 5.27D-03

 Cycle   8  Pass 1  IDiag  1:
 RMSU=  1.99D-05    CP:  9.58D-01  2.27D+00  8.53D-01  7.91D-01  1.11D+00
                    CP:  1.18D+00  1.18D+00
 E= -770.427816592576     Delta-E=       -0.000056387373 Rises=F Damp=F
 DIIS: error= 1.41D-04 at cycle   8 NSaved=   8.
 NSaved= 8 IEnMin= 8 EnMin= -770.427816592576     IErMin= 8 ErrMin= 1.41D-04
 ErrMax= 1.41D-04  0.00D+00 EMaxC= 1.00D-01 BMatC= 2.26D-05 BMatP= 6.79D-05
 IDIUse=3 WtCom= 9.99D-01 WtEn= 1.41D-03
 Coeff-Com: -0.205D-02 0.361D-02-0.124D-01-0.396D-01-0.950D-01-0.330D-01
 Coeff-Com:  0.491D+00 0.687D+00
 Coeff-En:   0.000D+00 0.000D+00 0.000D+00 0.000D+00 0.000D+00 0.000D+00
 Coeff-En:   0.000D+00 0.100D+01
 Coeff:     -0.205D-02 0.361D-02-0.123D-01-0.395D-01-0.949D-01-0.330D-01
 Coeff:      0.490D+00 0.688D+00
 Gap=     0.103 Goal=   None    Shift=    0.000
 Gap=     0.162 Goal=   None    Shift=    0.000
 RMSDP=1.52D-05 MaxDP=9.79D-04 DE=-5.64D-05 OVMax= 2.35D-03

 Cycle   9  Pass 1  IDiag  1:
 RMSU=  1.07D-05    CP:  9.58D-01  2.27D+00  8.52D-01  7.92D-01  1.13D+00
                    CP:  1.23D+00  1.42D+00  1.04D+00
 E= -770.427831818658     Delta-E=       -0.000015226082 Rises=F Damp=F
 DIIS: error= 8.68D-05 at cycle   9 NSaved=   9.
 NSaved= 9 IEnMin= 9 EnMin= -770.427831818658     IErMin= 9 ErrMin= 8.68D-05
 ErrMax= 8.68D-05  0.00D+00 EMaxC= 1.00D-01 BMatC= 5.07D-06 BMatP= 2.26D-05
 IDIUse=1 WtCom= 1.00D+00 WtEn= 0.00D+00
 Coeff-Com: -0.681D-03 0.137D-02 0.213D-02 0.189D-02-0.150D-01-0.716D-01
 Coeff-Com: -0.491D-01 0.293D+00 0.838D+00
 Coeff:     -0.681D-03 0.137D-02 0.213D-02 0.189D-02-0.150D-01-0.716D-01
 Coeff:     -0.491D-01 0.293D+00 0.838D+00
 Gap=     0.103 Goal=   None    Shift=    0.000
 Gap=     0.162 Goal=   None    Shift=    0.000
 RMSDP=9.06D-06 MaxDP=5.13D-04 DE=-1.52D-05 OVMax= 1.95D-03

 Cycle  10  Pass 1  IDiag  1:
 RMSU=  5.11D-06    CP:  9.58D-01  2.27D+00  8.52D-01  7.90D-01  1.13D+00
                    CP:  1.26D+00  1.51D+00  1.32D+00  1.22D+00
 E= -770.427836466494     Delta-E=       -0.000004647836 Rises=F Damp=F
 DIIS: error= 5.18D-05 at cycle  10 NSaved=  10.
 NSaved=10 IEnMin=10 EnMin= -770.427836466494     IErMin=10 ErrMin= 5.18D-05
 ErrMax= 5.18D-05  0.00D+00 EMaxC= 1.00D-01 BMatC= 1.94D-06 BMatP= 5.07D-06
 IDIUse=1 WtCom= 1.00D+00 WtEn= 0.00D+00
 Coeff-Com:  0.124D-03-0.105D-03 0.552D-02 0.144D-01 0.225D-01-0.361D-01
 Coeff-Com: -0.196D+00-0.340D-01 0.491D+00 0.733D+00
 Coeff:      0.124D-03-0.105D-03 0.552D-02 0.144D-01 0.225D-01-0.361D-01
 Coeff:     -0.196D+00-0.340D-01 0.491D+00 0.733D+00
 Gap=     0.103 Goal=   None    Shift=    0.000
 Gap=     0.162 Goal=   None    Shift=    0.000
 RMSDP=5.71D-06 MaxDP=3.31D-04 DE=-4.65D-06 OVMax= 1.02D-03

 Cycle  11  Pass 1  IDiag  1:
 RMSU=  2.39D-06    CP:  9.58D-01  2.27D+00  8.52D-01  7.90D-01  1.13D+00
                    CP:  1.27D+00  1.57D+00  1.48D+00  1.53D+00  1.02D+00
 E= -770.427838151935     Delta-E=       -0.000001685441 Rises=F Damp=F
 DIIS: error= 1.93D-05 at cycle  11 NSaved=  11.
 NSaved=11 IEnMin=11 EnMin= -770.427838151935     IErMin=11 ErrMin= 1.93D-05
 ErrMax= 1.93D-05  0.00D+00 EMaxC= 1.00D-01 BMatC= 2.99D-07 BMatP= 1.94D-06
 IDIUse=1 WtCom= 1.00D+00 WtEn= 0.00D+00
 Coeff-Com:  0.224D-03-0.432D-03 0.117D-02 0.407D-02 0.106D-01 0.391D-02
 Coeff-Com: -0.542D-01-0.772D-01-0.505D-01 0.260D+00 0.903D+00
 Coeff:      0.224D-03-0.432D-03 0.117D-02 0.407D-02 0.106D-01 0.391D-02
 Coeff:     -0.542D-01-0.772D-01-0.505D-01 0.260D+00 0.903D+00
 Gap=     0.103 Goal=   None    Shift=    0.000
 Gap=     0.162 Goal=   None    Shift=    0.000
 RMSDP=3.04D-06 MaxDP=1.85D-04 DE=-1.69D-06 OVMax= 5.89D-04

 Cycle  12  Pass 1  IDiag  1:
 RMSU=  1.20D-06    CP:  9.58D-01  2.27D+00  8.52D-01  7.90D-01  1.13D+00
                    CP:  1.27D+00  1.58D+00  1.56D+00  1.69D+00  1.29D+00
                    CP:  1.13D+00
 E= -770.427838490194     Delta-E=       -0.000000338259 Rises=F Damp=F
 DIIS: error= 9.63D-06 at cycle  12 NSaved=  12.
 NSaved=12 IEnMin=12 EnMin= -770.427838490194     IErMin=12 ErrMin= 9.63D-06
 ErrMax= 9.63D-06  0.00D+00 EMaxC= 1.00D-01 BMatC= 1.14D-07 BMatP= 2.99D-07
 IDIUse=1 WtCom= 1.00D+00 WtEn= 0.00D+00
 Coeff-Com:  0.109D-03-0.237D-03-0.515D-03-0.763D-03 0.108D-02 0.966D-02
 Coeff-Com:  0.116D-01-0.359D-01-0.135D+00-0.124D-01 0.499D+00 0.663D+00
 Coeff:      0.109D-03-0.237D-03-0.515D-03-0.763D-03 0.108D-02 0.966D-02
 Coeff:      0.116D-01-0.359D-01-0.135D+00-0.124D-01 0.499D+00 0.663D+00
 Gap=     0.103 Goal=   None    Shift=    0.000
 Gap=     0.162 Goal=   None    Shift=    0.000
 RMSDP=1.13D-06 MaxDP=6.77D-05 DE=-3.38D-07 OVMax= 2.01D-04

 Cycle  13  Pass 1  IDiag  1:
 RMSU=  5.10D-07    CP:  9.58D-01  2.27D+00  8.52D-01  7.90D-01  1.13D+00
                    CP:  1.27D+00  1.59D+00  1.58D+00  1.73D+00  1.36D+00
                    CP:  1.37D+00  8.89D-01
 E= -770.427838553402     Delta-E=       -0.000000063208 Rises=F Damp=F
 DIIS: error= 3.22D-06 at cycle  13 NSaved=  13.
 NSaved=13 IEnMin=13 EnMin= -770.427838553402     IErMin=13 ErrMin= 3.22D-06
 ErrMax= 3.22D-06  0.00D+00 EMaxC= 1.00D-01 BMatC= 1.99D-08 BMatP= 1.14D-07
 IDIUse=1 WtCom= 1.00D+00 WtEn= 0.00D+00
 Coeff-Com:  0.735D-05-0.207D-04-0.483D-03-0.123D-02-0.180D-02 0.388D-02
 Coeff-Com:  0.182D-01-0.189D-02-0.558D-01-0.609D-01 0.410D-01 0.323D+00
 Coeff-Com:  0.736D+00
 Coeff:      0.735D-05-0.207D-04-0.483D-03-0.123D-02-0.180D-02 0.388D-02
 Coeff:      0.182D-01-0.189D-02-0.558D-01-0.609D-01 0.410D-01 0.323D+00
 Coeff:      0.736D+00
 Gap=     0.103 Goal=   None    Shift=    0.000
 Gap=     0.162 Goal=   None    Shift=    0.000
 RMSDP=4.77D-07 MaxDP=2.37D-05 DE=-6.32D-08 OVMax= 7.74D-05

 Cycle  14  Pass 1  IDiag  1:
 RMSU=  2.58D-07    CP:  9.58D-01  2.27D+00  8.52D-01  7.90D-01  1.13D+00
                    CP:  1.27D+00  1.59D+00  1.59D+00  1.75D+00  1.40D+00
                    CP:  1.45D+00  1.07D+00  9.45D-01
 E= -770.427838564022     Delta-E=       -0.000000010620 Rises=F Damp=F
 DIIS: error= 1.51D-06 at cycle  14 NSaved=  14.
 NSaved=14 IEnMin=14 EnMin= -770.427838564022     IErMin=14 ErrMin= 1.51D-06
 ErrMax= 1.51D-06  0.00D+00 EMaxC= 1.00D-01 BMatC= 4.72D-09 BMatP= 1.99D-08
 IDIUse=1 WtCom= 1.00D+00 WtEn= 0.00D+00
 Coeff-Com: -0.142D-04 0.298D-04-0.158D-03-0.493D-03-0.120D-02 0.164D-03
 Coeff-Com:  0.734D-02 0.537D-02-0.200D-02-0.267D-01-0.785D-01 0.365D-01
 Coeff-Com:  0.383D+00 0.677D+00
 Coeff:     -0.142D-04 0.298D-04-0.158D-03-0.493D-03-0.120D-02 0.164D-03
 Coeff:      0.734D-02 0.537D-02-0.200D-02-0.267D-01-0.785D-01 0.365D-01
 Coeff:      0.383D+00 0.677D+00
 Gap=     0.103 Goal=   None    Shift=    0.000
 Gap=     0.162 Goal=   None    Shift=    0.000
 RMSDP=1.81D-07 MaxDP=7.98D-06 DE=-1.06D-08 OVMax= 2.45D-05

 Cycle  15  Pass 1  IDiag  1:
 RMSU=  1.10D-07    CP:  9.58D-01  2.27D+00  8.52D-01  7.90D-01  1.13D+00
                    CP:  1.27D+00  1.59D+00  1.59D+00  1.75D+00  1.41D+00
                    CP:  1.47D+00  1.12D+00  1.14D+00  9.76D-01
 E= -770.427838566197     Delta-E=       -0.000000002176 Rises=F Damp=F
 DIIS: error= 8.14D-07 at cycle  15 NSaved=  15.
 NSaved=15 IEnMin=15 EnMin= -770.427838566197     IErMin=15 ErrMin= 8.14D-07
 ErrMax= 8.14D-07  0.00D+00 EMaxC= 1.00D-01 BMatC= 9.58D-10 BMatP= 4.72D-09
 IDIUse=1 WtCom= 1.00D+00 WtEn= 0.00D+00
 Coeff-Com: -0.763D-05 0.188D-04 0.489D-04 0.872D-04-0.129D-03-0.858D-03
 Coeff-Com: -0.103D-02 0.258D-02 0.132D-01 0.281D-02-0.499D-01-0.596D-01
 Coeff-Com:  0.140D-01 0.336D+00 0.743D+00
 Coeff:     -0.763D-05 0.188D-04 0.489D-04 0.872D-04-0.129D-03-0.858D-03
 Coeff:     -0.103D-02 0.258D-02 0.132D-01 0.281D-02-0.499D-01-0.596D-01
 Coeff:      0.140D-01 0.336D+00 0.743D+00
 Gap=     0.103 Goal=   None    Shift=    0.000
 Gap=     0.162 Goal=   None    Shift=    0.000
 RMSDP=9.42D-08 MaxDP=4.81D-06 DE=-2.18D-09 OVMax= 1.40D-05

 Cycle  16  Pass 1  IDiag  1:
 RMSU=  5.70D-08    CP:  9.58D-01  2.27D+00  8.52D-01  7.90D-01  1.13D+00
                    CP:  1.27D+00  1.59D+00  1.59D+00  1.75D+00  1.41D+00
                    CP:  1.48D+00  1.15D+00  1.20D+00  1.16D+00  9.73D-01
 E= -770.427838566784     Delta-E=       -0.000000000586 Rises=F Damp=F
 DIIS: error= 4.04D-07 at cycle  16 NSaved=  16.
 NSaved=16 IEnMin=16 EnMin= -770.427838566784     IErMin=16 ErrMin= 4.04D-07
 ErrMax= 4.04D-07  0.00D+00 EMaxC= 1.00D-01 BMatC= 1.30D-10 BMatP= 9.58D-10
 IDIUse=1 WtCom= 1.00D+00 WtEn= 0.00D+00
 Coeff-Com:  0.162D-05-0.286D-05 0.396D-04 0.114D-03 0.190D-03-0.236D-03
 Coeff-Com: -0.168D-02-0.387D-03 0.397D-02 0.585D-02 0.165D-02-0.221D-01
 Coeff-Com: -0.729D-01-0.436D-01 0.207D+00 0.922D+00
 Coeff:      0.162D-05-0.286D-05 0.396D-04 0.114D-03 0.190D-03-0.236D-03
 Coeff:     -0.168D-02-0.387D-03 0.397D-02 0.585D-02 0.165D-02-0.221D-01
 Coeff:     -0.729D-01-0.436D-01 0.207D+00 0.922D+00
 Gap=     0.103 Goal=   None    Shift=    0.000
 Gap=     0.162 Goal=   None    Shift=    0.000
 RMSDP=5.06D-08 MaxDP=3.02D-06 DE=-5.86D-10 OVMax= 9.61D-06

 Cycle  17  Pass 1  IDiag  1:
 RMSU=  2.74D-08    CP:  9.58D-01  2.27D+00  8.52D-01  7.90D-01  1.13D+00
                    CP:  1.27D+00  1.59D+00  1.59D+00  1.75D+00  1.41D+00
                    CP:  1.48D+00  1.16D+00  1.24D+00  1.24D+00  1.21D+00
                    CP:  1.21D+00
 E= -770.427838566940     Delta-E=       -0.000000000156 Rises=F Damp=F
 DIIS: error= 2.51D-07 at cycle  17 NSaved=  17.
 NSaved=17 IEnMin=17 EnMin= -770.427838566940     IErMin=17 ErrMin= 2.51D-07
 ErrMax= 2.51D-07  0.00D+00 EMaxC= 1.00D-01 BMatC= 4.15D-11 BMatP= 1.30D-10
 IDIUse=1 WtCom= 1.00D+00 WtEn= 0.00D+00
 Coeff-Com:  0.721D-06-0.198D-05 0.465D-05 0.199D-04 0.855D-04 0.808D-04
 Coeff-Com: -0.346D-03-0.536D-03-0.126D-02 0.121D-02 0.102D-01 0.393D-02
 Coeff-Com: -0.273D-01-0.762D-01-0.703D-01 0.308D+00 0.852D+00
 Coeff:      0.721D-06-0.198D-05 0.465D-05 0.199D-04 0.855D-04 0.808D-04
 Coeff:     -0.346D-03-0.536D-03-0.126D-02 0.121D-02 0.102D-01 0.393D-02
 Coeff:     -0.273D-01-0.762D-01-0.703D-01 0.308D+00 0.852D+00
 Gap=     0.103 Goal=   None    Shift=    0.000
 Gap=     0.162 Goal=   None    Shift=    0.000
 RMSDP=2.77D-08 MaxDP=1.75D-06 DE=-1.56D-10 OVMax= 4.67D-06

 Cycle  18  Pass 1  IDiag  1:
 RMSU=  1.60D-08    CP:  9.58D-01  2.27D+00  8.52D-01  7.90D-01  1.13D+00
                    CP:  1.27D+00  1.59D+00  1.59D+00  1.75D+00  1.41D+00
                    CP:  1.48D+00  1.16D+00  1.24D+00  1.27D+00  1.30D+00
                    CP:  1.50D+00  1.26D+00
 E= -770.427838566988     Delta-E=       -0.000000000048 Rises=F Damp=F
 DIIS: error= 1.56D-07 at cycle  18 NSaved=  18.
 NSaved=18 IEnMin=18 EnMin= -770.427838566988     IErMin=18 ErrMin= 1.56D-07
 ErrMax= 1.56D-07  0.00D+00 EMaxC= 1.00D-01 BMatC= 2.34D-11 BMatP= 4.15D-11
 IDIUse=1 WtCom= 1.00D+00 WtEn= 0.00D+00
 Coeff-Com:  0.151D-06-0.828D-06-0.150D-04-0.400D-04-0.280D-04 0.159D-03
 Coeff-Com:  0.538D-03-0.885D-04-0.255D-02-0.207D-02 0.516D-02 0.118D-01
 Coeff-Com:  0.176D-01-0.237D-01-0.138D+00-0.250D+00 0.558D+00 0.823D+00
 Coeff:      0.151D-06-0.828D-06-0.150D-04-0.400D-04-0.280D-04 0.159D-03
 Coeff:      0.538D-03-0.885D-04-0.255D-02-0.207D-02 0.516D-02 0.118D-01
 Coeff:      0.176D-01-0.237D-01-0.138D+00-0.250D+00 0.558D+00 0.823D+00
 Gap=     0.103 Goal=   None    Shift=    0.000
 Gap=     0.162 Goal=   None    Shift=    0.000
 RMSDP=2.26D-08 MaxDP=1.40D-06 DE=-4.84D-11 OVMax= 4.72D-06

 Cycle  19  Pass 1  IDiag  1:
 RMSU=  7.98D-09    CP:  9.58D-01  2.27D+00  8.52D-01  7.90D-01  1.13D+00
                    CP:  1.27D+00  1.59D+00  1.59D+00  1.75D+00  1.41D+00
                    CP:  1.48D+00  1.16D+00  1.25D+00  1.28D+00  1.37D+00
                    CP:  1.71D+00  1.77D+00  1.05D+00
 E= -770.427838567012     Delta-E=       -0.000000000024 Rises=F Damp=F
 DIIS: error= 6.45D-08 at cycle  19 NSaved=  19.
 NSaved=19 IEnMin=19 EnMin= -770.427838567012     IErMin=19 ErrMin= 6.45D-08
 ErrMax= 6.45D-08  0.00D+00 EMaxC= 1.00D-01 BMatC= 3.70D-12 BMatP= 2.34D-11
 IDIUse=1 WtCom= 1.00D+00 WtEn= 0.00D+00
 Coeff-Com:  0.107D-08-0.716D-07-0.719D-05-0.221D-04-0.329D-04 0.431D-04
 Coeff-Com:  0.295D-03 0.133D-03-0.700D-03-0.115D-02-0.490D-03 0.346D-02
 Coeff-Com:  0.140D-01 0.985D-02-0.379D-01-0.180D+00 0.255D-01 0.324D+00
 Coeff-Com:  0.843D+00
 Coeff:      0.107D-08-0.716D-07-0.719D-05-0.221D-04-0.329D-04 0.431D-04
 Coeff:      0.295D-03 0.133D-03-0.700D-03-0.115D-02-0.490D-03 0.346D-02
 Coeff:      0.140D-01 0.985D-02-0.379D-01-0.180D+00 0.255D-01 0.324D+00
 Coeff:      0.843D+00
 Gap=     0.103 Goal=   None    Shift=    0.000
 Gap=     0.162 Goal=   None    Shift=    0.000
 RMSDP=1.00D-08 MaxDP=5.85D-07 DE=-2.39D-11 OVMax= 1.76D-06

 Cycle  20  Pass 1  IDiag  1:
 RMSU=  3.69D-09    CP:  9.58D-01  2.27D+00  8.52D-01  7.90D-01  1.13D+00
                    CP:  1.27D+00  1.59D+00  1.59D+00  1.75D+00  1.41D+00
                    CP:  1.48D+00  1.16D+00  1.25D+00  1.29D+00  1.40D+00
                    CP:  1.80D+00  1.97D+00  1.31D+00  1.07D+00
 E= -770.427838567019     Delta-E=       -0.000000000007 Rises=F Damp=F
 DIIS: error= 2.81D-08 at cycle  20 NSaved=  20.
 NSaved=20 IEnMin=20 EnMin= -770.427838567019     IErMin=20 ErrMin= 2.81D-08
 ErrMax= 2.81D-08  0.00D+00 EMaxC= 1.00D-01 BMatC= 1.31D-12 BMatP= 3.70D-12
 IDIUse=1 WtCom= 1.00D+00 WtEn= 0.00D+00
 Coeff-Com: -0.176D-06 0.514D-06 0.674D-07-0.214D-05-0.119D-04-0.146D-04
 Coeff-Com:  0.291D-04 0.949D-04 0.236D-03-0.130D-03-0.155D-02-0.944D-03
 Coeff-Com:  0.364D-02 0.116D-01 0.138D-01-0.375D-01-0.128D+00-0.336D-01
 Coeff-Com:  0.464D+00 0.708D+00
 Coeff:     -0.176D-06 0.514D-06 0.674D-07-0.214D-05-0.119D-04-0.146D-04
 Coeff:      0.291D-04 0.949D-04 0.236D-03-0.130D-03-0.155D-02-0.944D-03
 Coeff:      0.364D-02 0.116D-01 0.138D-01-0.375D-01-0.128D+00-0.336D-01
 Coeff:      0.464D+00 0.708D+00
 Gap=     0.103 Goal=   None    Shift=    0.000
 Gap=     0.162 Goal=   None    Shift=    0.000
 RMSDP=4.24D-09 MaxDP=2.52D-07 DE=-6.82D-12 OVMax= 7.84D-07

 Error on total polarization charges =  0.00973
 SCF Done:  E(UB3LYP) =  -770.427838567     A.U. after   20 cycles
            NFock= 20  Conv=0.42D-08     -V/T= 2.0095
 <Sx>= 0.0000 <Sy>= 0.0000 <Sz>= 0.5000 <S**2>= 0.7709 S= 0.5104
 <L.S>=  0.00000000000    
 KE= 7.631410500800D+02 PE=-4.409199974438D+03 EE= 1.566110100015D+03
 Annihilation of the first spin contaminant:
 S**2 before annihilation     0.7709,   after     0.7503
 Leave Link  502 at Sat May 25 04:20:28 2019, MaxMem=   104857600 cpu:            1579.8 elap:              50.3
 (Enter /opt/software/gaussian/g16.b01/l801.exe)
 DoSCS=F DFT=T ScalE2(SS,OS)=  1.000000  1.000000
 ExpMin= 1.61D-01 ExpMax= 5.48D+03 ExpMxC= 8.25D+02 IAcc=3 IRadAn=         5 AccDes= 0.00D+00
 HarFok:  IExCor=  205 AccDes= 0.00D+00 IRadAn=         5 IDoV=-2 UseB2=F ITyADJ=14
 ICtDFT= 12500011 ScaDFX=  1.000000  1.000000  1.000000  1.000000
 Largest valence mixing into a core orbital is  5.81D-05
 Largest core mixing into a valence orbital is  1.21D-05
 Largest valence mixing into a core orbital is  6.37D-05
 Largest core mixing into a valence orbital is  1.22D-05
 Range of M.O.s used for correlation:    19   355
 NBasis=   355 NAE=    65 NBE=    64 NFC=    18 NFV=     0
 NROrb=    337 NOA=    47 NOB=    46 NVA=   290 NVB=   291
 Leave Link  801 at Sat May 25 04:20:28 2019, MaxMem=   104857600 cpu:               4.2 elap:               0.2
 (Enter /opt/software/gaussian/g16.b01/l914.exe)
 UHF ground state
 Ignoring spin specification with unrestricted ground state.
 Two-electron integrals replicated using symmetry.
 MDV=   104857600 DFT=T DoStab=F Mixed=T DoRPA=T DoScal=F NonHer=T
 NEqPCM:  Using non-equilibrium solvation (IEInf=1, Eps=  35.6880, EpsInf=   1.8069)
 Inv3:  Mode=1 IEnd=    17670987.
 Iteration    1 A*A^-1 deviation from unit magnitude is 3.55D-15 for    635.
 Iteration    1 A*A^-1 deviation from orthogonality  is 3.19D-15 for   2237    633.
 Iteration    1 A^-1*A deviation from unit magnitude is 3.77D-15 for    635.
 Iteration    1 A^-1*A deviation from orthogonality  is 2.98D-15 for   1680   1596.
 Making orbital integer symmetry assigments:
 Orbital symmetries:
 Alpha Orbitals:
       Occupied  (A) (A) (A) (A) (A) (A) (A) (A) (A) (A) (A) (A)
                 (A) (A) (A) (A) (A) (A) (A) (A) (A) (A) (A) (A)
                 (A) (A) (A) (A) (A) (A) (A) (A) (A) (A) (A) (A)
                 (A) (A) (A) (A) (A) (A) (A) (A) (A) (A) (A) (A)
                 (A) (A) (A) (A) (A) (A) (A) (A) (A) (A) (A) (A)
                 (A) (A) (A) (A) (A)
       Virtual   (A) (A) (A) (A) (A) (A) (A) (A) (A) (A) (A) (A)
                 (A) (A) (A) (A) (A) (A) (A) (A) (A) (A) (A) (A)
                 (A) (A) (A) (A) (A) (A) (A) (A) (A) (A) (A) (A)
                 (A) (A) (A) (A) (A) (A) (A) (A) (A) (A) (A) (A)
                 (A) (A) (A) (A) (A) (A) (A) (A) (A) (A) (A) (A)
                 (A) (A) (A) (A) (A) (A) (A) (A) (A) (A) (A) (A)
                 (A) (A) (A) (A) (A) (A) (A) (A) (A) (A) (A) (A)
                 (A) (A) (A) (A) (A) (A) (A) (A) (A) (A) (A) (A)
                 (A) (A) (A) (A) (A) (A) (A) (A) (A) (A) (A) (A)
                 (A) (A) (A) (A) (A) (A) (A) (A) (A) (A) (A) (A)
                 (A) (A) (A) (A) (A) (A) (A) (A) (A) (A) (A) (A)
                 (A) (A) (A) (A) (A) (A) (A) (A) (A) (A) (A) (A)
                 (A) (A) (A) (A) (A) (A) (A) (A) (A) (A) (A) (A)
                 (A) (A) (A) (A) (A) (A) (A) (A) (A) (A) (A) (A)
                 (A) (A) (A) (A) (A) (A) (A) (A) (A) (A) (A) (A)
                 (A) (A) (A) (A) (A) (A) (A) (A) (A) (A) (A) (A)
                 (A) (A) (A) (A) (A) (A) (A) (A) (A) (A) (A) (A)
                 (A) (A) (A) (A) (A) (A) (A) (A) (A) (A) (A) (A)
                 (A) (A) (A) (A) (A) (A) (A) (A) (A) (A) (A) (A)
                 (A) (A) (A) (A) (A) (A) (A) (A) (A) (A) (A) (A)
                 (A) (A) (A) (A) (A) (A) (A) (A) (A) (A) (A) (A)
                 (A) (A) (A) (A) (A) (A) (A) (A) (A) (A) (A) (A)
                 (A) (A) (A) (A) (A) (A) (A) (A) (A) (A) (A) (A)
                 (A) (A) (A) (A) (A) (A) (A) (A) (A) (A) (A) (A)
                 (A) (A)
 Beta  Orbitals:
       Occupied  (A) (A) (A) (A) (A) (A) (A) (A) (A) (A) (A) (A)
                 (A) (A) (A) (A) (A) (A) (A) (A) (A) (A) (A) (A)
                 (A) (A) (A) (A) (A) (A) (A) (A) (A) (A) (A) (A)
                 (A) (A) (A) (A) (A) (A) (A) (A) (A) (A) (A) (A)
                 (A) (A) (A) (A) (A) (A) (A) (A) (A) (A) (A) (A)
                 (A) (A) (A) (A)
       Virtual   (A) (A) (A) (A) (A) (A) (A) (A) (A) (A) (A) (A)
                 (A) (A) (A) (A) (A) (A) (A) (A) (A) (A) (A) (A)
                 (A) (A) (A) (A) (A) (A) (A) (A) (A) (A) (A) (A)
                 (A) (A) (A) (A) (A) (A) (A) (A) (A) (A) (A) (A)
                 (A) (A) (A) (A) (A) (A) (A) (A) (A) (A) (A) (A)
                 (A) (A) (A) (A) (A) (A) (A) (A) (A) (A) (A) (A)
                 (A) (A) (A) (A) (A) (A) (A) (A) (A) (A) (A) (A)
                 (A) (A) (A) (A) (A) (A) (A) (A) (A) (A) (A) (A)
                 (A) (A) (A) (A) (A) (A) (A) (A) (A) (A) (A) (A)
                 (A) (A) (A) (A) (A) (A) (A) (A) (A) (A) (A) (A)
                 (A) (A) (A) (A) (A) (A) (A) (A) (A) (A) (A) (A)
                 (A) (A) (A) (A) (A) (A) (A) (A) (A) (A) (A) (A)
                 (A) (A) (A) (A) (A) (A) (A) (A) (A) (A) (A) (A)
                 (A) (A) (A) (A) (A) (A) (A) (A) (A) (A) (A) (A)
                 (A) (A) (A) (A) (A) (A) (A) (A) (A) (A) (A) (A)
                 (A) (A) (A) (A) (A) (A) (A) (A) (A) (A) (A) (A)
                 (A) (A) (A) (A) (A) (A) (A) (A) (A) (A) (A) (A)
                 (A) (A) (A) (A) (A) (A) (A) (A) (A) (A) (A) (A)
                 (A) (A) (A) (A) (A) (A) (A) (A) (A) (A) (A) (A)
                 (A) (A) (A) (A) (A) (A) (A) (A) (A) (A) (A) (A)
                 (A) (A) (A) (A) (A) (A) (A) (A) (A) (A) (A) (A)
                 (A) (A) (A) (A) (A) (A) (A) (A) (A) (A) (A) (A)
                 (A) (A) (A) (A) (A) (A) (A) (A) (A) (A) (A) (A)
                 (A) (A) (A) (A) (A) (A) (A) (A) (A) (A) (A) (A)
                 (A) (A) (A)
   144 initial guesses have been made.
 Convergence on wavefunction:    0.001000000000000
 Davidson Disk Diagonalization:  ConvIn= 1.00D-03 SkipCon=T Conv= 1.00D-03.
 Max sub-space:  2160 roots to seek:   144 dimension of matrix:        27016
 Iteration     1 Dimension   144 NMult     0 NNew    144
 CISAX will form     3 AO SS matrices at one time.
 NMat=     3 NSing=     3 JSym2X= 0.
 FoFJK:  IHMeth= 1 ICntrl=       0 DoSepK=F KAlg= 0 I1Cent=           0 FoldK=F
 IRaf= 840000000 NMat=       6 IRICut=       1 DoRegI=T DoRafI=F ISym2E= 0 IDoP0=0 IntGTp=1.
 NMat=     3 NSing=     3 JSym2X= 0.
 NMat=     3 NSing=     3 JSym2X= 0.
 NMat=     3 NSing=     3 JSym2X= 0.
 NMat=     3 NSing=     3 JSym2X= 0.
 NMat=     3 NSing=     3 JSym2X= 0.
 NMat=     3 NSing=     3 JSym2X= 0.
 NMat=     3 NSing=     3 JSym2X= 0.
 NMat=     3 NSing=     3 JSym2X= 0.
 NMat=     3 NSing=     3 JSym2X= 0.
 NMat=     3 NSing=     3 JSym2X= 0.
 NMat=     3 NSing=     3 JSym2X= 0.
 NMat=     3 NSing=     3 JSym2X= 0.
 NMat=     3 NSing=     3 JSym2X= 0.
 NMat=     3 NSing=     3 JSym2X= 0.
 NMat=     3 NSing=     3 JSym2X= 0.
 NMat=     3 NSing=     3 JSym2X= 0.
 NMat=     3 NSing=     3 JSym2X= 0.
 NMat=     3 NSing=     3 JSym2X= 0.
 NMat=     3 NSing=     3 JSym2X= 0.
 NMat=     3 NSing=     3 JSym2X= 0.
 NMat=     3 NSing=     3 JSym2X= 0.
 NMat=     3 NSing=     3 JSym2X= 0.
 NMat=     3 NSing=     3 JSym2X= 0.
 NMat=     3 NSing=     3 JSym2X= 0.
 NMat=     3 NSing=     3 JSym2X= 0.
 NMat=     3 NSing=     3 JSym2X= 0.
 NMat=     3 NSing=     3 JSym2X= 0.
 NMat=     3 NSing=     3 JSym2X= 0.
 NMat=     3 NSing=     3 JSym2X= 0.
 NMat=     3 NSing=     3 JSym2X= 0.
 NMat=     3 NSing=     3 JSym2X= 0.
 NMat=     3 NSing=     3 JSym2X= 0.
 NMat=     3 NSing=     3 JSym2X= 0.
 NMat=     3 NSing=     3 JSym2X= 0.
 NMat=     3 NSing=     3 JSym2X= 0.
 NMat=     3 NSing=     3 JSym2X= 0.
 NMat=     3 NSing=     3 JSym2X= 0.
 NMat=     3 NSing=     3 JSym2X= 0.
 NMat=     3 NSing=     3 JSym2X= 0.
 NMat=     3 NSing=     3 JSym2X= 0.
 NMat=     3 NSing=     3 JSym2X= 0.
 NMat=     3 NSing=     3 JSym2X= 0.
 NMat=     3 NSing=     3 JSym2X= 0.
 NMat=     3 NSing=     3 JSym2X= 0.
 NMat=     3 NSing=     3 JSym2X= 0.
 NMat=     3 NSing=     3 JSym2X= 0.
 NMat=     3 NSing=     3 JSym2X= 0.
 New state      3 was old state      6
 New state      4 was old state      5
 New state      5 was old state      3
 New state      6 was old state      9
 New state      7 was old state      4
 New state      8 was old state     11
 New state      9 was old state      7
 New state     10 was old state      8
 New state     11 was old state     10
 New state     13 was old state     31
 New state     14 was old state     30
 New state     15 was old state     17
 New state     16 was old state     20
 New state     17 was old state     15
 New state     18 was old state     14
 New state     20 was old state     18
 New state     21 was old state     24
 New state     22 was old state     21
 New state     23 was old state     35
 New state     24 was old state     16
 New state     25 was old state     38
 New state     28 was old state     25
 New state     29 was old state     33
 New state     30 was old state     71
 New state     31 was old state     22
 New state     32 was old state     48
 New state     33 was old state     42
 New state     34 was old state     81
 New state     35 was old state     32
 New state     36 was old state     37
 Excitation Energies [eV] at current iteration:
 Root      1 :     2.342051583019870
 Root      2 :     3.168285425882198
 Root      3 :     3.240659421863516
 Root      4 :     3.401600602395275
 Root      5 :     3.482284448838781
 Root      6 :     3.568977793858844
 Root      7 :     3.752307058023232
 Root      8 :     3.884066031844064
 Root      9 :     3.921867748047692
 Root     10 :     4.364573079563747
 Root     11 :     4.477545919258403
 Root     12 :     4.544577172210485
 Root     13 :     4.586968091640449
 Root     14 :     4.692691251051225
 Root     15 :     4.721516638935809
 Root     16 :     4.729818210956626
 Root     17 :     4.752182603048102
 Root     18 :     4.918799858006585
 Root     19 :     5.051312315938908
 Root     20 :     5.165218907250466
 Root     21 :     5.207268341546190
 Root     22 :     5.228372448283376
 Root     23 :     5.542789982105921
 Root     24 :     5.648870258870172
 Root     25 :     5.705327018879615
 Root     26 :     5.772804785725575
 Root     27 :     5.837465652087774
 Root     28 :     5.844923436565990
 Root     29 :     5.902065922888548
 Root     30 :     5.908141037510075
 Root     31 :     6.000606950672005
 Root     32 :     6.101003710907454
 Root     33 :     6.150223086223925
 Root     34 :     6.163286221210258
 Root     35 :     6.192920362553881
 Root     36 :     6.207493589195082
 Root     37 :     6.286360603370677
 Root     38 :     6.292422582632834
 Root     39 :     6.328889150374964
 Root     40 :     6.345855553535724
 Root     41 :     6.377558401583525
 Root     42 :     6.397033876137066
 Root     43 :     6.412908955056508
 Root     44 :     6.430066406891690
 Root     45 :     6.439940042265370
 Root     46 :     6.461952632570257
 Root     47 :     6.478882364610709
 Root     48 :     6.515146743241458
 Root     49 :     6.568913814019187
 Root     50 :     6.578927711295356
 Root     51 :     6.589927222367722
 Root     52 :     6.595654726354067
 Root     53 :     6.622011036147189
 Root     54 :     6.659492496340228
 Root     55 :     6.697242947564255
 Root     56 :     6.727596885675870
 Root     57 :     6.745438268485659
 Root     58 :     6.904612526200082
 Root     59 :     6.928580103213946
 Root     60 :     6.977251663025739
 Root     61 :     6.991009866712768
 Root     62 :     7.005095535355893
 Root     63 :     7.037032455608704
 Root     64 :     7.073965951385094
 Root     65 :     7.129460493939922
 Root     66 :     7.136241653229461
 Root     67 :     7.144663535321430
 Root     68 :     7.181856545031599
 Root     69 :     7.192576909846068
 Root     70 :     7.256239932324863
 Root     71 :     7.291059926110685
 Root     72 :     7.310419046697369
 Root     73 :     7.323298340326151
 Root     74 :     7.348311935529291
 Root     75 :     7.381181653643557
 Root     76 :     7.431893863064886
 Root     77 :     7.442657446250630
 Root     78 :     7.462231055121643
 Root     79 :     7.480309280383527
 Root     80 :     7.511738802365757
 Root     81 :     7.574850343971303
 Root     82 :     7.583380117669253
 Root     83 :     7.604778107515433
 Root     84 :     7.605745497167166
 Root     85 :     7.636470270449653
 Root     86 :     7.658542502362657
 Root     87 :     7.701768565525317
 Root     88 :     7.713582624007403
 Root     89 :     7.735609683680388
 Root     90 :     7.784213267242724
 Root     91 :     7.791591895161501
 Root     92 :     7.810945420461228
 Root     93 :     7.849183530234519
 Root     94 :     7.866874460705631
 Root     95 :     7.875323528943885
 Root     96 :     7.893108356451159
 Root     97 :     7.920479902401518
 Root     98 :     7.952913906119615
 Root     99 :     7.972406254200541
 Root    100 :     7.992898662108581
 Root    101 :     8.017530315354438
 Root    102 :     8.039672479813046
 Root    103 :     8.072987126086378
 Root    104 :     8.107865114398683
 Root    105 :     8.131294598741265
 Root    106 :     8.163645822789226
 Root    107 :     8.193053172741497
 Root    108 :     8.219476640669466
 Root    109 :     8.228688590117711
 Root    110 :     8.246867490027281
 Root    111 :     8.266180861206903
 Root    112 :     8.273016362154200
 Root    113 :     8.295151456771801
 Root    114 :     8.309100230516908
 Root    115 :     8.333245148479577
 Root    116 :     8.339068021869059
 Root    117 :     8.382290296199193
 Root    118 :     8.395816318255351
 Root    119 :     8.404229350121224
 Root    120 :     8.422418459024472
 Root    121 :     8.430178364055031
 Root    122 :     8.444383693062168
 Root    123 :     8.467148828255876
 Root    124 :     8.474105973065068
 Root    125 :     8.481043483309852
 Root    126 :     8.502194311974261
 Root    127 :     8.517817611608528
 Root    128 :     8.526746413002357
 Root    129 :     8.531812492655925
 Root    130 :     8.569391447334842
 Root    131 :     8.596425110843636
 Root    132 :     8.667352317957333
 Root    133 :     8.682115153083922
 Root    134 :     8.706364988409501
 Root    135 :     8.708322736842765
 Root    136 :     8.714143971590197
 Root    137 :     8.756975457505362
 Root    138 :     8.779701266038526
 Root    139 :     8.842825696074755
 Root    140 :     8.854720146964056
 Root    141 :     8.952608491069164
 Root    142 :     9.009131199449074
 Root    143 :     9.361081951503696
 Root    144 :     9.504366669552025
 Iteration     2 Dimension   216 NMult   144 NNew     72
 CISAX will form     3 AO SS matrices at one time.
 NMat=     3 NSing=     3 JSym2X= 0.
 NMat=     3 NSing=     3 JSym2X= 0.
 NMat=     3 NSing=     3 JSym2X= 0.
 NMat=     3 NSing=     3 JSym2X= 0.
 NMat=     3 NSing=     3 JSym2X= 0.
 NMat=     3 NSing=     3 JSym2X= 0.
 NMat=     3 NSing=     3 JSym2X= 0.
 NMat=     3 NSing=     3 JSym2X= 0.
 NMat=     3 NSing=     3 JSym2X= 0.
 NMat=     3 NSing=     3 JSym2X= 0.
 NMat=     3 NSing=     3 JSym2X= 0.
 NMat=     3 NSing=     3 JSym2X= 0.
 NMat=     3 NSing=     3 JSym2X= 0.
 NMat=     3 NSing=     3 JSym2X= 0.
 NMat=     3 NSing=     3 JSym2X= 0.
 NMat=     3 NSing=     3 JSym2X= 0.
 NMat=     3 NSing=     3 JSym2X= 0.
 NMat=     3 NSing=     3 JSym2X= 0.
 NMat=     3 NSing=     3 JSym2X= 0.
 NMat=     3 NSing=     3 JSym2X= 0.
 NMat=     3 NSing=     3 JSym2X= 0.
 NMat=     3 NSing=     3 JSym2X= 0.
 NMat=     3 NSing=     3 JSym2X= 0.
 NMat=     3 NSing=     3 JSym2X= 0.
 Root      1 not converged, maximum delta is    0.039782634209159
 Root      2 not converged, maximum delta is    0.050064878919587
 Root      3 not converged, maximum delta is    0.095455846706027
 Root      4 not converged, maximum delta is    0.286492612381407
 New state      5 was old state      6
 Root      5 not converged, maximum delta is    0.396630796433423
 New state      6 was old state      5
 Root      6 not converged, maximum delta is    0.306546292351445
 Root      7 not converged, maximum delta is    0.184169233263139
 Root      8 not converged, maximum delta is    0.345790972073876
 Root      9 not converged, maximum delta is    0.283536510188150
 Root     10 not converged, maximum delta is    0.226280751509785
 New state     11 was old state     13
 Root     11 not converged, maximum delta is    0.325008718596405
 New state     12 was old state     11
 Root     12 not converged, maximum delta is    0.362570659104986
 New state     13 was old state     12
 Root     13 not converged, maximum delta is    0.292908990602428
 Root     14 not converged, maximum delta is    0.178823197740134
 New state     15 was old state     16
 Root     15 not converged, maximum delta is    0.181677461842718
 New state     16 was old state     15
 Root     16 not converged, maximum delta is    0.100204494674678
 Root     17 not converged, maximum delta is    0.096129718978198
 Root     18 not converged, maximum delta is    0.119429333204920
 Root     19 not converged, maximum delta is    0.222732822605034
 New state     20 was old state     22
 Root     20 not converged, maximum delta is    0.296367018536602
 New state     21 was old state     20
 Root     21 not converged, maximum delta is    0.595010379090284
 New state     22 was old state     21
 Root     22 not converged, maximum delta is    0.095405106225684
 New state     23 was old state     24
 Root     23 not converged, maximum delta is    0.274636989616462
 New state     24 was old state     25
 Root     24 not converged, maximum delta is    0.205740335773927
 New state     25 was old state     26
 Root     25 not converged, maximum delta is    0.754298477547422
 New state     26 was old state     23
 Root     26 not converged, maximum delta is    0.099892168773485
 Root     27 not converged, maximum delta is    0.749211674760403
 Root     28 not converged, maximum delta is    0.464489278539403
 New state     29 was old state     30
 Root     29 not converged, maximum delta is    0.351341757603736
 New state     30 was old state     29
 Root     30 not converged, maximum delta is    0.578217819020905
 Root     31 not converged, maximum delta is    0.164708823275587
 New state     32 was old state     33
 Root     32 not converged, maximum delta is    0.301773462664906
 New state     33 was old state     32
 Root     33 not converged, maximum delta is    0.199239119965986
 Root     34 not converged, maximum delta is    0.085784820345262
 New state     35 was old state     36
 Root     35 not converged, maximum delta is    0.339339429611010
 New state     36 was old state     35
 Root     36 not converged, maximum delta is    0.320621577671233
 Excitation Energies [eV] at current iteration:
 Root      1 :     2.149832268690032   Change is   -0.192219314329838
 Root      2 :     3.097014637421017   Change is   -0.071270788461180
 Root      3 :     3.167816301104612   Change is   -0.072843120758904
 Root      4 :     3.263925581102176   Change is   -0.137675021293099
 Root      5 :     3.331590132711385   Change is   -0.237387661147459
 Root      6 :     3.451600524887580   Change is   -0.030683923951201
 Root      7 :     3.651407894813190   Change is   -0.100899163210042
 Root      8 :     3.814285905035075   Change is   -0.069780126808989
 Root      9 :     3.848436979990133   Change is   -0.073430768057559
 Root     10 :     4.181497842997363   Change is   -0.183075236566384
 Root     11 :     4.326793029966516   Change is   -0.260175061673934
 Root     12 :     4.368364491969039   Change is   -0.109181427289364
 Root     13 :     4.434528432311287   Change is   -0.110048739899199
 Root     14 :     4.599266156185100   Change is   -0.093425094866125
 Root     15 :     4.618938684823923   Change is   -0.110879526132704
 Root     16 :     4.697548429242361   Change is   -0.023968209693447
 Root     17 :     4.727569684922720   Change is   -0.024612918125382
 Root     18 :     4.844487659612151   Change is   -0.074312198394434
 Root     19 :     5.003253114386105   Change is   -0.048059201552803
 Root     20 :     5.080247922585119   Change is   -0.148124525698256
 Root     21 :     5.082307574481986   Change is   -0.082911332768481
 Root     22 :     5.166576790321565   Change is   -0.040691551224625
 Root     23 :     5.208973650039272   Change is   -0.439896608830899
 Root     24 :     5.348224248989494   Change is   -0.357102769890120
 Root     25 :     5.451051524509203   Change is   -0.321753261216373
 Root     26 :     5.489157113735999   Change is   -0.053632868369921
 Root     27 :     5.747896669020268   Change is   -0.089568983067506
 Root     28 :     5.824582129934271   Change is   -0.020341306631719
 Root     29 :     5.826602841780732   Change is   -0.081538195729343
 Root     30 :     5.850614311017098   Change is   -0.051451611871450
 Root     31 :     5.974356711857810   Change is   -0.026250238814195
 Root     32 :     6.008677891936880   Change is   -0.141545194287045
 Root     33 :     6.038530392017545   Change is   -0.062473318889909
 Root     34 :     6.112028954864424   Change is   -0.051257266345835
 Root     35 :     6.147547183485739   Change is   -0.059946405709343
 Root     36 :     6.164389092800995   Change is   -0.028531269752885
 Iteration     3 Dimension   288 NMult   216 NNew     72
 CISAX will form     3 AO SS matrices at one time.
 NMat=     3 NSing=     3 JSym2X= 0.
 NMat=     3 NSing=     3 JSym2X= 0.
 NMat=     3 NSing=     3 JSym2X= 0.
 NMat=     3 NSing=     3 JSym2X= 0.
 NMat=     3 NSing=     3 JSym2X= 0.
 NMat=     3 NSing=     3 JSym2X= 0.
 NMat=     3 NSing=     3 JSym2X= 0.
 NMat=     3 NSing=     3 JSym2X= 0.
 NMat=     3 NSing=     3 JSym2X= 0.
 NMat=     3 NSing=     3 JSym2X= 0.
 NMat=     3 NSing=     3 JSym2X= 0.
 NMat=     3 NSing=     3 JSym2X= 0.
 NMat=     3 NSing=     3 JSym2X= 0.
 NMat=     3 NSing=     3 JSym2X= 0.
 NMat=     3 NSing=     3 JSym2X= 0.
 NMat=     3 NSing=     3 JSym2X= 0.
 NMat=     3 NSing=     3 JSym2X= 0.
 NMat=     3 NSing=     3 JSym2X= 0.
 NMat=     3 NSing=     3 JSym2X= 0.
 NMat=     3 NSing=     3 JSym2X= 0.
 NMat=     3 NSing=     3 JSym2X= 0.
 NMat=     3 NSing=     3 JSym2X= 0.
 NMat=     3 NSing=     3 JSym2X= 0.
 NMat=     3 NSing=     3 JSym2X= 0.
 Root      1 not converged, maximum delta is    0.004026931729890
 Root      2 not converged, maximum delta is    0.005026312741050
 Root      3 not converged, maximum delta is    0.008028259709437
 Root      4 not converged, maximum delta is    0.009900121687631
 Root      5 not converged, maximum delta is    0.008896781648933
 Root      6 not converged, maximum delta is    0.007347117191901
 Root      7 not converged, maximum delta is    0.008740629036186
 Root      8 not converged, maximum delta is    0.021918450632418
 Root      9 not converged, maximum delta is    0.017109862325066
 Root     10 not converged, maximum delta is    0.008652637518007
 Root     11 not converged, maximum delta is    0.009157877230441
 Root     12 not converged, maximum delta is    0.008925959432470
 Root     13 not converged, maximum delta is    0.012457017268416
 Root     14 not converged, maximum delta is    0.038185329959084
 Root     15 not converged, maximum delta is    0.021749175723681
 Root     16 not converged, maximum delta is    0.004144636142893
 Root     17 not converged, maximum delta is    0.004654138996995
 Root     18 not converged, maximum delta is    0.011197989047644
 Root     19 not converged, maximum delta is    0.021014220664182
 Root     20 not converged, maximum delta is    0.356168177509800
 Root     21 not converged, maximum delta is    0.516067908039283
 Root     22 not converged, maximum delta is    0.015646937934176
 Root     23 not converged, maximum delta is    0.026747723643408
 Root     24 not converged, maximum delta is    0.025751558103602
 Root     25 not converged, maximum delta is    0.018728657060937
 Root     26 not converged, maximum delta is    0.010976687889464
 Root     27 not converged, maximum delta is    0.004448475670901
 New state     28 was old state     29
 Root     28 not converged, maximum delta is    0.338904529903564
 New state     29 was old state     28
 Root     29 not converged, maximum delta is    0.427859375241386
 Root     30 not converged, maximum delta is    0.004137497544358
 Root     31 not converged, maximum delta is    0.042131403489092
 Root     32 not converged, maximum delta is    0.053274446961395
 Root     33 not converged, maximum delta is    0.034477487919158
 Root     34 not converged, maximum delta is    0.015973814605287
 Root     35 not converged, maximum delta is    0.053998233521206
 Root     36 not converged, maximum delta is    0.023749595052893
 Excitation Energies [eV] at current iteration:
 Root      1 :     2.143032972242495   Change is   -0.006799296447538
 Root      2 :     3.093245387733796   Change is   -0.003769249687221
 Root      3 :     3.165963250191672   Change is   -0.001853050912940
 Root      4 :     3.257959848020786   Change is   -0.005965733081390
 Root      5 :     3.325407151408994   Change is   -0.006182981302391
 Root      6 :     3.449969942686059   Change is   -0.001630582201521
 Root      7 :     3.646810712985056   Change is   -0.004597181828134
 Root      8 :     3.810961626309383   Change is   -0.003324278725692
 Root      9 :     3.846285822412626   Change is   -0.002151157577508
 Root     10 :     4.174356416300870   Change is   -0.007141426696493
 Root     11 :     4.320736371489719   Change is   -0.006056658476796
 Root     12 :     4.363897537963220   Change is   -0.004466954005818
 Root     13 :     4.429629634457927   Change is   -0.004898797853360
 Root     14 :     4.594996530769348   Change is   -0.004269625415751
 Root     15 :     4.613526253891989   Change is   -0.005412430931933
 Root     16 :     4.696667510725117   Change is   -0.000880918517244
 Root     17 :     4.726753562089928   Change is   -0.000816122832792
 Root     18 :     4.840446888944005   Change is   -0.004040770668146
 Root     19 :     4.999929803461458   Change is   -0.003323310924646
 Root     20 :     5.068156061030938   Change is   -0.012091861554182
 Root     21 :     5.077723158157317   Change is   -0.004584416324668
 Root     22 :     5.164788385907481   Change is   -0.001788404414084
 Root     23 :     5.195200181659663   Change is   -0.013773468379610
 Root     24 :     5.320295002084882   Change is   -0.027929246904612
 Root     25 :     5.441397440801643   Change is   -0.009654083707559
 Root     26 :     5.485289407115229   Change is   -0.003867706620770
 Root     27 :     5.742763625837429   Change is   -0.005133043182839
 Root     28 :     5.819851931305695   Change is   -0.006750910475037
 Root     29 :     5.824280670220017   Change is   -0.000301459714254
 Root     30 :     5.850045454522398   Change is   -0.000568856494699
 Root     31 :     5.970520106746325   Change is   -0.003836605111485
 Root     32 :     5.996945875023493   Change is   -0.011732016913387
 Root     33 :     6.031555132113072   Change is   -0.006975259904474
 Root     34 :     6.108489011972810   Change is   -0.003539942891614
 Root     35 :     6.138150090438217   Change is   -0.009397093047522
 Root     36 :     6.161958365924182   Change is   -0.002430726876814
 Iteration     4 Dimension   360 NMult   288 NNew     72
 CISAX will form     3 AO SS matrices at one time.
 NMat=     3 NSing=     3 JSym2X= 0.
 NMat=     3 NSing=     3 JSym2X= 0.
 NMat=     3 NSing=     3 JSym2X= 0.
 NMat=     3 NSing=     3 JSym2X= 0.
 NMat=     3 NSing=     3 JSym2X= 0.
 NMat=     3 NSing=     3 JSym2X= 0.
 NMat=     3 NSing=     3 JSym2X= 0.
 NMat=     3 NSing=     3 JSym2X= 0.
 NMat=     3 NSing=     3 JSym2X= 0.
 NMat=     3 NSing=     3 JSym2X= 0.
 NMat=     3 NSing=     3 JSym2X= 0.
 NMat=     3 NSing=     3 JSym2X= 0.
 NMat=     3 NSing=     3 JSym2X= 0.
 NMat=     3 NSing=     3 JSym2X= 0.
[...]
     7  H    0.000008   0.000001  -0.000003   0.000000  -0.000000  -0.000001
     8  C    0.000323   0.000011  -0.000018  -0.000017   0.000030  -0.000000
     9  H    0.000018   0.000000   0.000000   0.000008   0.000013  -0.000000
    10  H    0.000062   0.000000   0.000000  -0.000000  -0.000011  -0.000000
    11  H    0.000714  -0.000001   0.000000   0.000004   0.000028  -0.000002
    12  C   -0.000736  -0.000000  -0.000000  -0.000010   0.000005   0.000010
    13  C    0.000174  -0.000000  -0.000000   0.000000  -0.000005  -0.000000
    14  C    0.002820   0.000013   0.000000   0.000048   0.000000  -0.000105
    15  C    0.000003   0.000000  -0.000000   0.000000  -0.000001  -0.000000
    16  H    0.000000  -0.000000   0.000000  -0.000000   0.000000  -0.000000
    17  C    0.000052   0.000000  -0.000000  -0.000008  -0.000011  -0.000004
    18  H    0.000089  -0.000030   0.000000  -0.000064   0.000001  -0.000004
    19  C   -0.000155  -0.000000   0.000000  -0.000002   0.000007   0.000001
    20  H   -0.000000   0.000000   0.000000   0.000000   0.000000   0.000000
    21  H   -0.000003   0.000000  -0.000000  -0.000011   0.000000   0.000000
    22  H    0.000000  -0.000000  -0.000000   0.000000  -0.000000  -0.000000
    23  C   -0.012252   0.000414   0.000957   0.000747   0.000594   0.001085
    24  C    0.006766   0.002147   0.000595   0.000802  -0.000014  -0.010281
    25  C    0.222321   0.000575   0.000018   0.004706   0.000958  -0.009806
    26  C    0.000575  -0.109784   0.000481  -0.000180  -0.000015  -0.002261
    27  H    0.000018   0.000481  -0.010772  -0.000015   0.000001   0.000005
    28  C    0.004706  -0.000180  -0.000015  -0.109210   0.000325  -0.005352
    29  H    0.000958  -0.000015   0.000001   0.000325  -0.010598   0.000014
    30  C   -0.009806  -0.002261   0.000005  -0.005352   0.000014   0.252144
    31  H   -0.000006   0.000407   0.000037  -0.000000  -0.000000  -0.000496
    32  H   -0.000463  -0.000001  -0.000000   0.000468   0.000030  -0.000459
    33  H    0.000012   0.000094   0.000003   0.000097   0.000003   0.001266
    34  O    0.000307   0.000002   0.000057   0.000001  -0.000000  -0.000003
    35  H    0.000028   0.000002   0.000001  -0.000000  -0.000000  -0.000000
              31         32         33         34         35
     1  C    0.000000  -0.000000  -0.000000  -0.004640  -0.002551
     2  C   -0.000003  -0.000003   0.000000  -0.077138  -0.011544
     3  O   -0.000000   0.000000   0.000000   0.002335   0.003562
     4  C    0.000000   0.000000  -0.000000  -0.000025   0.000121
     5  H    0.000000  -0.000000  -0.000000  -0.000040  -0.000018
     6  H   -0.000004  -0.000000   0.000000   0.000616   0.000133
     7  H   -0.000000  -0.000000   0.000000   0.000525   0.000341
     8  C    0.000000   0.000000  -0.000000   0.000727   0.001079
     9  H   -0.000000  -0.000000   0.000000  -0.000009   0.000078
    10  H   -0.000000   0.000000   0.000000  -0.000561   0.002677
    11  H    0.000000  -0.000000  -0.000000   0.002623  -0.001136
    12  C    0.000000  -0.000000  -0.000000   0.000064   0.000113
    13  C   -0.000000   0.000000   0.000000   0.000014   0.000028
    14  C   -0.000000  -0.000001   0.000000   0.000033   0.000016
    15  C    0.000000   0.000000  -0.000000   0.000000   0.000000
    16  H   -0.000000  -0.000000   0.000000   0.000000   0.000002
    17  C   -0.000000  -0.000001   0.000000  -0.000000  -0.000000
    18  H   -0.000000  -0.000000   0.000000   0.000002   0.000000
    19  C    0.000000  -0.000000  -0.000000  -0.000000  -0.000000
    20  H    0.000000  -0.000000  -0.000000  -0.000000  -0.000000
    21  H    0.000000   0.000000  -0.000000  -0.000000  -0.000000
    22  H   -0.000000   0.000000   0.000000   0.000000   0.000000
    23  C   -0.000000  -0.000015  -0.000032  -0.000291   0.000127
    24  C   -0.000440  -0.000006   0.000012   0.002141   0.000120
    25  C   -0.000006  -0.000463   0.000012   0.000307   0.000028
    26  C    0.000407  -0.000001   0.000094   0.000002   0.000002
    27  H    0.000037  -0.000000   0.000003   0.000057   0.000001
    28  C   -0.000000   0.000468   0.000097   0.000001  -0.000000
    29  H   -0.000000   0.000030   0.000003  -0.000000  -0.000000
    30  C   -0.000496  -0.000459   0.001266  -0.000003  -0.000000
    31  H    0.004311  -0.000000   0.000062   0.000000  -0.000000
    32  H   -0.000000   0.004213   0.000065   0.000000   0.000000
    33  H    0.000062   0.000065  -0.011992   0.000000   0.000000
    34  O    0.000000   0.000000   0.000000   0.142463  -0.000958
    35  H   -0.000000   0.000000   0.000000  -0.000958   0.016137
 Mulliken charges and spin densities:
               1          2
     1  C    0.377373   0.030640
     2  C    0.232560   0.575723
     3  O   -0.553125   0.038831
     4  C   -0.382554  -0.002365
     5  H    0.141537   0.000742
     6  H    0.140667   0.001732
     7  H    0.125093   0.000253
     8  C   -0.364649  -0.044146
     9  H    0.131073   0.002849
    10  H    0.128902   0.014407
    11  H    0.132931   0.033575
    12  C    0.069433  -0.015455
    13  C   -0.114349   0.026970
    14  C   -0.114284   0.021472
    15  C   -0.101441  -0.013310
    16  H    0.110034  -0.001246
    17  C   -0.106935  -0.013507
    18  H    0.109287  -0.000893
    19  C   -0.090498   0.029014
    20  H    0.107617   0.000467
    21  H    0.108429   0.000485
    22  H    0.109513  -0.001310
    23  C    0.100620  -0.154836
    24  C   -0.138553   0.204653
    25  C   -0.132497   0.199114
    26  C   -0.100348  -0.108289
    27  H    0.105628  -0.008937
    28  C   -0.108675  -0.107775
    29  H    0.096958  -0.008668
    30  C   -0.107012   0.225924
    31  H    0.099315   0.003869
    32  H    0.099652   0.003826
    33  H    0.098058  -0.010410
    34  O   -0.550422   0.068245
    35  H    0.340662   0.008356
 Sum of Mulliken charges =  -0.00000   1.00000
 Mulliken charges and spin densities with hydrogens summed into heavy atoms:
               1          2
     1  C    0.377373   0.030640
     2  C    0.232560   0.575723
     3  O   -0.553125   0.038831
     4  C    0.024743   0.000361
     8  C    0.028257   0.006686
    12  C    0.069433  -0.015455
    13  C   -0.004315   0.025724
    14  C   -0.004997   0.020578
    15  C    0.006176  -0.012842
    17  C    0.001493  -0.013022
    19  C    0.019015   0.027703
    23  C    0.100620  -0.154836
    24  C   -0.032924   0.195716
    25  C   -0.035539   0.190447
    26  C   -0.001033  -0.104420
    28  C   -0.009024  -0.103948
    30  C   -0.008953   0.215514
    34  O   -0.209761   0.076601
 Electronic spatial extent (au):  <R**2>=           4086.3095
 Charge=             -0.0000 electrons
 Dipole moment (field-independent basis, Debye):
    X=             -0.7374    Y=              3.2287    Z=             -0.1886  Tot=              3.3172
 Quadrupole moment (field-independent basis, Debye-Ang):
   XX=           -104.9369   YY=           -102.8627   ZZ=           -100.0303
   XY=             -2.9007   XZ=             -7.8265   YZ=             -0.0157
 Traceless Quadrupole moment (field-independent basis, Debye-Ang):
   XX=             -2.3270   YY=             -0.2527   ZZ=              2.5797
   XY=             -2.9007   XZ=             -7.8265   YZ=             -0.0157
 Octapole moment (field-independent basis, Debye-Ang**2):
  XXX=            -11.7618  YYY=             20.2462  ZZZ=             -1.2916  XYY=              2.7532
  XXY=             18.8524  XXZ=             -1.4021  XZZ=             -3.4965  YZZ=            -13.6869
  YYZ=              3.7969  XYZ=             -0.7694
 Hexadecapole moment (field-independent basis, Debye-Ang**3):
 XXXX=          -2844.9078 YYYY=          -1651.6383 ZZZZ=           -798.6823 XXXY=            -10.3533
 XXXZ=           -143.6530 YYYX=            -32.3461 YYYZ=            -11.3071 ZZZX=             -1.8621
 ZZZY=             -0.2818 XXYY=           -755.8653 XXZZ=           -625.7967 YYZZ=           -416.7721
 XXYZ=              8.1748 YYXZ=            -25.3213 ZZXY=              2.8953
 N-N= 1.309520985776D+03 E-N=-4.409199976665D+03  KE= 7.631410500800D+02
 Leave Link  601 at Sat May 25 04:50:07 2019, MaxMem=   104857600 cpu:               4.5 elap:               0.2
 (Enter /opt/software/gaussian/g16.b01/l9999.exe)
 Electronic transition elements 
                 1             2             3             4             5 
      1  -0.770349D+03 -0.770314D+03 -0.770311D+03 -0.770308D+03 -0.770306D+03
      2  -0.142920D+01 -0.346349D-01  0.584512D-01  0.405065D+00 -0.889878D-01
      3  -0.408599D-01  0.785342D-01 -0.709899D-01 -0.352846D-01  0.157276D-01
      4  -0.509602D+00  0.598863D-01 -0.489612D-01  0.826219D-01  0.152412D-01
      5   0.107582D+00  0.385622D-02 -0.847698D-02 -0.449437D-01  0.120360D-01
      6   0.333503D-02 -0.127327D-01  0.780111D-02  0.482827D-02 -0.251383D-03
      7   0.394616D-01 -0.597873D-02  0.580496D-02 -0.993095D-02 -0.308779D-02
      8  -0.168696D+00 -0.260780D+00 -0.288016D-02  0.168925D+00  0.278262D-01
      9   0.485803D-01  0.544965D-01 -0.346179D+00  0.392799D-01 -0.115901D+00
     10   0.348453D+00 -0.280532D+00  0.218414D+00 -0.368336D+00  0.154587D+00
     11   0.561790D-01  0.862014D-01  0.159763D-01 -0.545367D-02 -0.168298D-02
     12  -0.488602D-01 -0.254415D-01  0.188885D-02  0.250673D-01  0.128101D-01
     13   0.118230D-01 -0.183004D-01 -0.129157D-01 -0.307322D-01 -0.321140D-01
     14   0.136742D+00 -0.287792D-01 -0.400460D-01 -0.192250D+00  0.552880D-01
     15  -0.876040D-02 -0.359046D-01  0.752573D-03  0.981987D-03  0.142601D-01
     16  -0.790854D-01 -0.151213D-01 -0.157330D-01  0.296088D-02  0.234153D-01
                 6             7             8             9            10 
      1  -0.770301D+03 -0.770294D+03 -0.770288D+03 -0.770286D+03 -0.770274D+03
      2  -0.665418D-01  0.211186D+00  0.648203D-01  0.106242D-01 -0.789769D+00
      3   0.331912D-01 -0.192841D+00 -0.629455D-01 -0.737660D-02 -0.255826D+00
      4   0.442986D-01 -0.199776D+00 -0.108908D+00  0.320220D-01  0.247284D+00
      5   0.112438D-01 -0.291839D-01 -0.104044D-01 -0.299168D-02  0.118123D+00
      6  -0.866762D-02  0.281852D-01  0.111869D-01 -0.179912D-02  0.380941D-01
      7  -0.756171D-02  0.295738D-01  0.160369D-01 -0.498449D-02 -0.384113D-01
      8  -0.549936D-02  0.463776D+00  0.775118D-01 -0.173388D+00 -0.348373D+00
      9   0.554627D-01 -0.203447D+00 -0.482024D+00 -0.412654D+00  0.244907D+00
     10  -0.117660D+00  0.930719D+00  0.266751D+00  0.143446D+00  0.709406D+00
     11   0.129369D+00 -0.748412D-01 -0.255284D+00  0.187316D+00  0.431949D+00
     12  -0.394027D-01  0.270253D-01  0.649055D-01 -0.294301D-01 -0.810087D-01
     13  -0.398476D-01 -0.790798D-02  0.451626D-01 -0.806191D-01 -0.132182D+00
     14   0.706943D-02  0.185062D+00  0.300364D-01 -0.562137D-01  0.561870D+00
     15  -0.448751D-01  0.654623D-01  0.868204D-01 -0.549671D-01 -0.566738D-01
     16  -0.484806D-02  0.958569D-01 -0.129891D-01 -0.196868D-01  0.157300D+00
                11            12            13            14            15 
      1  -0.770269D+03 -0.770267D+03 -0.770265D+03 -0.770259D+03 -0.770258D+03
      2   0.150363D+00  0.116397D+00  0.465616D+00 -0.598612D-01  0.246399D+00
      3   0.362124D+00  0.400792D+00  0.488704D+00  0.677551D+00  0.904053D-01
      4  -0.405459D-01 -0.235369D-01 -0.198802D+00 -0.316604D-01 -0.350669D+00
      5  -0.232060D-01 -0.167253D-01 -0.754627D-01  0.105743D-01 -0.366013D-01
      6  -0.547550D-01 -0.593152D-01 -0.781562D-01 -0.109653D+00 -0.170052D-01
      7   0.542403D-02  0.219456D-02  0.326028D-01  0.402958D-02  0.594834D-01
      8  -0.140667D-02 -0.816041D-02  0.241376D+00 -0.849420D-01  0.570585D-01
      9  -0.206434D+00 -0.304782D+00  0.622714D-01 -0.193215D+00 -0.109776D+00
     10  -0.239259D+00 -0.311206D+00 -0.408035D-01  0.121776D+00 -0.294749D+00
     11  -0.388065D+00 -0.546641D+00 -0.603480D-01 -0.424634D+00 -0.175480D+00
     12   0.587436D-01  0.813399D-01 -0.454379D-01  0.611901D-02  0.158688D-01
     13   0.108120D+00  0.133647D+00  0.592595D-01  0.129880D+00  0.754557D-01
     14  -0.757251D-01 -0.108273D+00 -0.204341D+00  0.119189D+00 -0.403108D+00
     15   0.627644D-01  0.118538D+00 -0.485334D-01  0.614875D-01  0.215858D-01
     16  -0.566542D-01 -0.697422D-01 -0.205774D-01 -0.130616D-01 -0.218177D+00
                16            17            18            19            20 
      1  -0.770255D+03 -0.770254D+03 -0.770250D+03 -0.770244D+03 -0.770242D+03
      2  -0.919082D-01 -0.392668D-01 -0.562528D-01  0.259618D+00  0.215209D+00
      3   0.355743D-02  0.797858D-01 -0.421108D+00  0.418818D+00 -0.340907D+00
      4  -0.660913D-02 -0.524457D-01 -0.161961D-01 -0.244559D+00 -0.148315D-01
      5   0.159669D-01  0.572980D-02  0.761438D-02 -0.467562D-01 -0.363352D-01
      6   0.116919D-02 -0.134309D-01  0.760721D-01 -0.750239D-01  0.600285D-01
      7   0.894138D-03  0.896927D-02  0.249553D-02  0.445011D-01  0.751945D-02
      8   0.163162D-01  0.106905D-01  0.870779D-01  0.842988D-01 -0.922911D-01
      9   0.103352D+00  0.146751D+00 -0.105683D+00 -0.161942D+00 -0.302851D+00
     10   0.126522D-01  0.695375D-01  0.129920D+00 -0.729226D-01 -0.268304D+00
     11  -0.157672D+00  0.182052D-01 -0.137747D+00 -0.419160D+00  0.224560D+00
     12   0.244608D-01 -0.189819D-01  0.123177D+00  0.216018D-01 -0.117025D+00
     13   0.602292D-01  0.171968D-01 -0.301146D-01  0.132023D+00  0.242182D-01
     14   0.620423D-01  0.614750D-01  0.106541D+00 -0.134757D+00 -0.413134D-01
     15   0.468372D-01 -0.131684D-01  0.113210D+00  0.687055D-01 -0.377822D-01
     16  -0.751548D-02  0.104209D-01  0.329540D-01 -0.776177D-01 -0.398463D-02
                21            22            23            24            25 
      1  -0.770241D+03 -0.770238D+03 -0.770237D+03 -0.770232D+03 -0.770228D+03
      2   0.309577D+00 -0.536606D-01  0.142024D+00  0.240313D+00  0.459172D+00
      3   0.155159D+00 -0.874754D-01  0.125097D+01  0.172464D+00 -0.386301D+00
      4  -0.347652D+00  0.899507D-01 -0.782037D-01 -0.894016D-01 -0.386003D+00
      5  -0.607630D-01  0.115471D-01 -0.250042D-01 -0.444480D-01 -0.928930D-01
      6  -0.291483D-01  0.165898D-01 -0.231572D+00 -0.321985D-01  0.726768D-01
      7   0.647943D-01 -0.171382D-01  0.158963D-01  0.159864D-01  0.769593D-01
      8   0.269492D+00 -0.732611D-01 -0.187440D+00 -0.674351D-01  0.269863D+00
      9  -0.479115D-01  0.642553D-01 -0.597543D+00  0.720852D-01  0.949309D-01
     10   0.832733D-01  0.477629D-01  0.220262D-01 -0.113340D+00 -0.721394D+00
     11  -0.883362D-01  0.878085D-01 -0.117208D+01 -0.189121D+00  0.930198D-01
     12  -0.153904D-01  0.107008D-01  0.947238D-02  0.825456D-01  0.285979D-01
     13   0.479422D-01 -0.423818D-01  0.303537D+00 -0.143700D-01  0.230772D-01
     14  -0.668055D-01  0.534968D-01  0.103155D+00 -0.145438D+00 -0.873638D+00
     15   0.656131D-02 -0.110216D-01  0.208885D+00  0.311418D-01 -0.372565D-01
     16  -0.122124D-01  0.280080D-01 -0.537591D-01 -0.363900D-01 -0.256143D+00
                26            27            28            29            30 
      1  -0.770226D+03 -0.770217D+03 -0.770214D+03 -0.770214D+03 -0.770213D+03
      2   0.231375D-01  0.331262D-03 -0.195271D-01 -0.277801D-01  0.116825D+00
      3  -0.838240D-01 -0.289157D-01  0.534470D-01  0.275203D-01 -0.908724D-01
      4  -0.278853D-01  0.332012D-01  0.187101D-01  0.120889D-01 -0.550547D-01
      5  -0.478143D-02  0.682482D-02  0.247756D-02  0.577776D-02 -0.253859D-01
      6   0.178966D-01 -0.354402D-02 -0.103638D-01 -0.557157D-02  0.177227D-01
      7   0.627553D-02  0.328397D-02 -0.475199D-02 -0.200634D-02  0.858982D-02
      8   0.425291D-03 -0.109019D+00  0.140767D+00  0.142517D-01  0.222177D-01
      9  -0.499754D-01 -0.669401D-02  0.170461D+00  0.362992D-01 -0.438991D-01
     10   0.186837D+00  0.103586D+00 -0.184103D-01  0.450752D-01 -0.202203D+00
     11  -0.474095D-01  0.815672D-01 -0.222249D-01  0.206001D-03  0.253911D-01
     12   0.425921D-01 -0.130960D-01  0.108939D+00  0.704161D-02  0.229575D-01
     13  -0.151991D-01  0.145402D+00 -0.879106D-01 -0.116105D-01 -0.314534D-02
     14   0.133186D+00  0.559394D-02 -0.624669D-01  0.334857D-01 -0.185062D+00
     15   0.458056D-01  0.865336D-01  0.143036D-01 -0.118267D-02  0.721511D-02
     16   0.582634D-01 -0.544800D-01  0.574772D-02  0.119356D-01 -0.546906D-01
                31            32            33            34            35 
      1  -0.770208D+03 -0.770207D+03 -0.770206D+03 -0.770203D+03 -0.770202D+03
      2  -0.563333D+00 -0.153006D+00  0.418912D+00  0.177659D-01  0.313745D+00
      3   0.442666D-01 -0.661575D-01 -0.864545D-01  0.353934D-01  0.628964D-01
      4   0.231163D+00  0.106649D+00 -0.235585D+00  0.128687D-02 -0.183802D+00
      5   0.124004D+00  0.360482D-01 -0.926066D-01 -0.306002D-02 -0.704240D-01
      6  -0.992748D-02  0.150232D-01  0.174243D-01 -0.785165D-02 -0.150330D-01
      7  -0.539831D-01 -0.247718D-01  0.550957D-01 -0.183610D-03  0.423826D-01
      8  -0.231270D+00 -0.220196D+00  0.208356D+00 -0.936639D-01  0.205514D+00
      9  -0.669780D-01  0.213735D+00  0.186827D+00 -0.763367D-01  0.247168D+00
     10   0.673738D-01 -0.247349D-01  0.525986D+00  0.477650D-02  0.456109D+00
     11  -0.152254D+00  0.135146D-01  0.340036D+00 -0.755283D-01  0.473337D+00
     12  -0.972888D-02 -0.131465D-03 -0.674120D-01  0.138672D-01 -0.155899D+00
     13   0.245757D-01  0.286298D-02 -0.489982D-01  0.245271D-01 -0.545942D-01
     14   0.436263D+00  0.717908D-01 -0.135874D-01 -0.616377D-02  0.532074D-01
     15   0.605798D-01 -0.179245D-01 -0.870015D-01  0.233776D-01 -0.156068D+00
     16  -0.163969D-01  0.107420D-01  0.145397D+00 -0.162999D-01  0.148849D+00
                36 
      1  -0.770201D+03
      2  -0.200751D+00
      3  -0.375681D-01
      4   0.201277D-01
      5   0.448262D-01
      6   0.779146D-02
      7  -0.432683D-02
      8  -0.577019D-01
      9  -0.758387D-01
     10   0.478224D+00
     11  -0.438329D-01
     12  -0.156647D-01
     13   0.333079D-02
     14   0.437487D+00
     15   0.549435D-01
     16   0.845452D-01
 1\1\GINC-GRA772\SP\UB3LYP TD-FC\6-31G(d,p)\C16H17O2(2)\RZK\25-May-2019
 \0\\#p td=(50-50,nstates=36) ub3lyp/6-31g(d,p) scrf=(iefpcm,solvent=ac
 etonitrile) guess=(mix,always) empiricaldispersion=gd3\\Title Card Req
 uired\\0,2\C,0,-1.08188,-1.442111,-0.943681\C,0,0.767735,-1.281172,1.0
 16682\O,0,-1.483332,-2.485886,-0.408036\C,0,-0.08982,-1.51552,-2.08482
 8\H,0,-0.607707,-1.271358,-3.019654\H,0,0.736579,-0.811731,-1.971497\H
 ,0,0.306548,-2.528708,-2.146024\C,0,-0.2371,-1.214919,2.123371\H,0,-0.
 660499,-0.218864,2.247431\H,0,-1.061636,-1.904139,1.917366\H,0,0.22456
 8,-1.51753,3.073325\C,0,-1.685559,-0.125935,-0.592508\C,0,-2.798798,-0
 .10196,0.266378\C,0,-1.177448,1.089348,-1.08196\C,0,-3.384405,1.105362
 ,0.633736\H,0,-3.188,-1.044913,0.633818\C,0,-1.762724,2.29867,-0.71019
 9\H,0,-0.313989,1.098934,-1.736524\C,0,-2.865178,2.310632,0.147868\H,0
 ,-4.244431,1.111263,1.296547\H,0,-1.354212,3.23185,-1.085461\H,0,-3.31
 8983,3.254008,0.436466\C,0,1.620318,-0.211921,0.611901\C,0,2.687605,-0
 .440297,-0.303686\C,0,1.418588,1.122368,1.062433\C,0,3.489408,0.604745
 ,-0.742445\H,0,2.863916,-1.449116,-0.657619\C,0,2.22779,2.157691,0.614
 002\H,0,0.616677,1.344031,1.756626\C,0,3.268964,1.913325,-0.291353\H,0
 ,4.295782,0.401579,-1.441632\H,0,2.045701,3.167561,0.970432\H,0,3.8973
 2,2.727585,-0.638449\O,0,1.118229,-2.532876,0.598289\H,0,0.298225,-3.0
 50195,0.488567\\Version=ES64L-G16RevB.01\State=2-A\HF=-770.4278386\S2=
 0.77095\S2-1=0.\S2A=0.750311\RMSD=4.240e-09\PG=C01 [X(C16H17O2)]\\@


  DISAPPOINTMENT IS THE NURSE OF WISDOM.               
                              SIR BOYLE ROCHE                 
 Job cpu time:       0 days 16 hours 15 minutes 51.8 seconds.
 Elapsed time:       0 days  0 hours 30 minutes 32.5 seconds.
 File lengths (MBytes):  RWF=   2187 Int=      0 D2E=      0 Chk=    178 Scr=      1
 Normal termination of Gaussian 16 at Sat May 25 04:50:09 2019.
