 Entering Gaussian System, Link 0=g16
 Initial command:
 /opt/software/gaussian/g16.b01/l1.exe "/localscratch/rzk.15153356.0/Gau-17506.inp" -scrdir="/localscratch/rzk.15153356.0/"
 Entering Link 1 = /opt/software/gaussian/g16.b01/l1.exe PID=     17508.
  
 Copyright (c) 1988-2017, Gaussian, Inc.  All Rights Reserved.
  
 This is part of the Gaussian(R) 16 program.  It is based on
 the Gaussian(R) 09 system (copyright 2009, Gaussian, Inc.),
 the Gaussian(R) 03 system (copyright 2003, Gaussian, Inc.),
 the Gaussian(R) 98 system (copyright 1998, Gaussian, Inc.),
 the Gaussian(R) 94 system (copyright 1995, Gaussian, Inc.),
 the Gaussian 92(TM) system (copyright 1992, Gaussian, Inc.),
 the Gaussian 90(TM) system (copyright 1990, Gaussian, Inc.),
 the Gaussian 88(TM) system (copyright 1988, Gaussian, Inc.),
 the Gaussian 86(TM) system (copyright 1986, Carnegie Mellon
 University), and the Gaussian 82(TM) system (copyright 1983,
 Carnegie Mellon University). Gaussian is a federally registered
 trademark of Gaussian, Inc.
  
 This software contains proprietary and confidential information,
 including trade secrets, belonging to Gaussian, Inc.
  
 This software is provided under written license and may be
 used, copied, transmitted, or stored only in accord with that
 written license.
  
 The following legend is applicable only to US Government
 contracts under FAR:
  
                    RESTRICTED RIGHTS LEGEND
  
 Use, reproduction and disclosure by the US Government is
 subject to restrictions as set forth in subparagraphs (a)
 and (c) of the Commercial Computer Software - Restricted
 Rights clause in FAR 52.227-19.
  
 Gaussian, Inc.
 340 Quinnipiac St., Bldg. 40, Wallingford CT 06492
  
  
 ---------------------------------------------------------------
 Warning -- This program may not be used in any manner that
 competes with the business of Gaussian, Inc. or will provide
 assistance to any competitor of Gaussian, Inc.  The licensee
 of this program is prohibited from giving any competitor of
 Gaussian, Inc. access to this program.  By using this program,
 the user acknowledges that Gaussian, Inc. is engaged in the
 business of creating and licensing software in the field of
 computational chemistry and represents and warrants to the
 licensee that it is not a competitor of Gaussian, Inc. and that
 it will not use this program in any manner prohibited above.
 ---------------------------------------------------------------
  

 Cite this work as:
 Gaussian 16, Revision B.01,
 M. J. Frisch, G. W. Trucks, H. B. Schlegel, G. E. Scuseria, 
 M. A. Robb, J. R. Cheeseman, G. Scalmani, V. Barone, 
 G. A. Petersson, H. Nakatsuji, X. Li, M. Caricato, A. V. Marenich, 
 J. Bloino, B. G. Janesko, R. Gomperts, B. Mennucci, H. P. Hratchian, 
 J. V. Ortiz, A. F. Izmaylov, J. L. Sonnenberg, D. Williams-Young, 
 F. Ding, F. Lipparini, F. Egidi, J. Goings, B. Peng, A. Petrone, 
 T. Henderson, D. Ranasinghe, V. G. Zakrzewski, J. Gao, N. Rega, 
 G. Zheng, W. Liang, M. Hada, M. Ehara, K. Toyota, R. Fukuda, 
 J. Hasegawa, M. Ishida, T. Nakajima, Y. Honda, O. Kitao, H. Nakai, 
 T. Vreven, K. Throssell, J. A. Montgomery, Jr., J. E. Peralta, 
 F. Ogliaro, M. J. Bearpark, J. J. Heyd, E. N. Brothers, K. N. Kudin, 
 V. N. Staroverov, T. A. Keith, R. Kobayashi, J. Normand, 
 K. Raghavachari, A. P. Rendell, J. C. Burant, S. S. Iyengar, 
 J. Tomasi, M. Cossi, J. M. Millam, M. Klene, C. Adamo, R. Cammi, 
 J. W. Ochterski, R. L. Martin, K. Morokuma, O. Farkas, 
 J. B. Foresman, and D. J. Fox, Gaussian, Inc., Wallingford CT, 2016.
 
 ******************************************
 Gaussian 16:  ES64L-G16RevB.01 20-Dec-2017
                25-May-2019 
 ******************************************
 %NProcShared=32
 Will use up to   32 processors via shared memory.
 %chk=AH-A_13.chk
 ----------------------------------------------------------------------
 #p td=(50-50,nstates=36) ub3lyp/6-31g(d,p) scrf=(iefpcm,solvent=aceton
 itrile) guess=(mix,always) empiricaldispersion=gd3
 ----------------------------------------------------------------------
 1/38=1,172=1/1;
 2/12=2,17=6,18=5,40=1/2;
 3/5=1,6=6,7=101,11=2,25=1,30=1,70=2201,72=2,74=-5,116=2,124=31/1,2,3,8;
 4/13=-1/1;
 5/5=2,38=5,53=2/2;
 8/6=1,10=2,108=36/1;
 9/41=36,42=1,48=2,70=2/14;
 6/7=2,8=2,9=2,10=2/1;
 99/5=1,9=1/99;
 Leave Link    1 at Sat May 25 00:24:49 2019, MaxMem=           0 cpu:               3.1 elap:               0.1
 (Enter /opt/software/gaussian/g16.b01/l101.exe)
 -------------------
 Title Card Required
 -------------------
 Symbolic Z-matrix:
 Charge =  0 Multiplicity = 2
 C                    -0.71663  -1.35267  -0.71763 
 C                     0.69185  -1.2734    0.70008 
 O                    -1.17076  -2.50879  -0.39941 
 C                     0.12935  -1.30461  -1.99692 
 H                    -0.56     -1.41039  -2.84119 
 H                     0.69375  -0.3821   -2.12555 
 H                     0.81985  -2.14806  -2.00199 
 C                    -0.11746  -1.28502   1.98473 
 H                    -0.72364  -0.39018   2.11403 
 H                    -0.77927  -2.15151   1.99068 
 H                     0.58228  -1.36049   2.82404 
 C                    -1.60139  -0.154    -0.4539 
 C                    -2.79028  -0.34175   0.2697 
 C                    -1.29406   1.13567  -0.9152 
 C                    -3.64321   0.72715   0.53401 
 H                    -3.02857  -1.342     0.61351 
 C                    -2.14836   2.20773  -0.65235 
 H                    -0.38148   1.31532  -1.47062 
 C                    -3.32368   2.00893   0.07484 
 H                    -4.55908   0.56223   1.0942 
 H                    -1.89269   3.199    -1.01487 
 H                    -3.98685   2.84417   0.27968 
 C                     1.5766   -0.1226    0.44481 
 C                     2.74612  -0.28164  -0.32864 
 C                     1.27501   1.15991   0.94702 
 C                     3.58261   0.80027  -0.58378 
 H                     2.98748  -1.26275  -0.71851 
 C                     2.11285   2.24039   0.6856 
 H                     0.37847   1.31825   1.53315 
 C                     3.26915   2.06716  -0.08057 
 H                     4.48093   0.65724  -1.17657 
 H                     1.86224   3.22033   1.07985 
 H                     3.92031   2.91182  -0.28381 
 O                     1.30994  -2.47367   0.44201 
 H                     0.58198  -3.11033   0.29237 
 
 ITRead=  0  0  0  0  0  0  0  0  0  0  0  0  0  0  0  0  0  0  0  0
 ITRead=  0  0  0  0  0  0  0  0  0  0  0  0  0  0  0
 MicOpt= -1 -1 -1 -1 -1 -1 -1 -1 -1 -1 -1 -1 -1 -1 -1 -1 -1 -1 -1 -1
 MicOpt= -1 -1 -1 -1 -1 -1 -1 -1 -1 -1 -1 -1 -1 -1 -1
 NAtoms=     35 NQM=       35 NQMF=       0 NMMI=      0 NMMIF=      0
                NMic=       0 NMicF=      0.
                    Isotopes and Nuclear Properties:
 (Nuclear quadrupole moments (NQMom) in fm**2, nuclear magnetic moments (NMagM)
  in nuclear magnetons)

  Atom         1           2           3           4           5           6           7           8           9          10
 IAtWgt=          12          12          16          12           1           1           1          12           1           1
 AtmWgt=  12.0000000  12.0000000  15.9949146  12.0000000   1.0078250   1.0078250   1.0078250  12.0000000   1.0078250   1.0078250
 NucSpn=           0           0           0           0           1           1           1           0           1           1
 AtZEff=  -0.0000000  -0.0000000  -0.0000000  -0.0000000  -0.0000000  -0.0000000  -0.0000000  -0.0000000  -0.0000000  -0.0000000
 NQMom=    0.0000000   0.0000000   0.0000000   0.0000000   0.0000000   0.0000000   0.0000000   0.0000000   0.0000000   0.0000000
 NMagM=    0.0000000   0.0000000   0.0000000   0.0000000   2.7928460   2.7928460   2.7928460   0.0000000   2.7928460   2.7928460
 AtZNuc=   6.0000000   6.0000000   8.0000000   6.0000000   1.0000000   1.0000000   1.0000000   6.0000000   1.0000000   1.0000000

  Atom        11          12          13          14          15          16          17          18          19          20
 IAtWgt=           1          12          12          12          12           1          12           1          12           1
 AtmWgt=   1.0078250  12.0000000  12.0000000  12.0000000  12.0000000   1.0078250  12.0000000   1.0078250  12.0000000   1.0078250
 NucSpn=           1           0           0           0           0           1           0           1           0           1
 AtZEff=  -0.0000000  -0.0000000  -0.0000000  -0.0000000  -0.0000000  -0.0000000  -0.0000000  -0.0000000  -0.0000000  -0.0000000
 NQMom=    0.0000000   0.0000000   0.0000000   0.0000000   0.0000000   0.0000000   0.0000000   0.0000000   0.0000000   0.0000000
 NMagM=    2.7928460   0.0000000   0.0000000   0.0000000   0.0000000   2.7928460   0.0000000   2.7928460   0.0000000   2.7928460
 AtZNuc=   1.0000000   6.0000000   6.0000000   6.0000000   6.0000000   1.0000000   6.0000000   1.0000000   6.0000000   1.0000000

  Atom        21          22          23          24          25          26          27          28          29          30
 IAtWgt=           1           1          12          12          12          12           1          12           1          12
 AtmWgt=   1.0078250   1.0078250  12.0000000  12.0000000  12.0000000  12.0000000   1.0078250  12.0000000   1.0078250  12.0000000
 NucSpn=           1           1           0           0           0           0           1           0           1           0
 AtZEff=  -0.0000000  -0.0000000  -0.0000000  -0.0000000  -0.0000000  -0.0000000  -0.0000000  -0.0000000  -0.0000000  -0.0000000
 NQMom=    0.0000000   0.0000000   0.0000000   0.0000000   0.0000000   0.0000000   0.0000000   0.0000000   0.0000000   0.0000000
 NMagM=    2.7928460   2.7928460   0.0000000   0.0000000   0.0000000   0.0000000   2.7928460   0.0000000   2.7928460   0.0000000
 AtZNuc=   1.0000000   1.0000000   6.0000000   6.0000000   6.0000000   6.0000000   1.0000000   6.0000000   1.0000000   6.0000000

  Atom        31          32          33          34          35
 IAtWgt=           1           1           1          16           1
 AtmWgt=   1.0078250   1.0078250   1.0078250  15.9949146   1.0078250
 NucSpn=           1           1           1           0           1
 AtZEff=  -0.0000000  -0.0000000  -0.0000000  -0.0000000  -0.0000000
 NQMom=    0.0000000   0.0000000   0.0000000   0.0000000   0.0000000
 NMagM=    2.7928460   2.7928460   2.7928460   0.0000000   2.7928460
 AtZNuc=   1.0000000   1.0000000   1.0000000   8.0000000   1.0000000
 Leave Link  101 at Sat May 25 00:24:49 2019, MaxMem=   104857600 cpu:               4.4 elap:               0.2
 (Enter /opt/software/gaussian/g16.b01/l202.exe)
                          Input orientation:                          
 ---------------------------------------------------------------------
 Center     Atomic      Atomic             Coordinates (Angstroms)
 Number     Number       Type             X           Y           Z
 ---------------------------------------------------------------------
      1          6           0       -0.716628   -1.352672   -0.717632
      2          6           0        0.691849   -1.273398    0.700080
      3          8           0       -1.170760   -2.508793   -0.399411
      4          6           0        0.129351   -1.304613   -1.996915
      5          1           0       -0.560001   -1.410390   -2.841191
      6          1           0        0.693750   -0.382099   -2.125553
      7          1           0        0.819854   -2.148055   -2.001993
      8          6           0       -0.117460   -1.285016    1.984725
      9          1           0       -0.723641   -0.390176    2.114028
     10          1           0       -0.779274   -2.151512    1.990681
     11          1           0        0.582277   -1.360485    2.824038
     12          6           0       -1.601394   -0.154003   -0.453902
     13          6           0       -2.790276   -0.341748    0.269703
     14          6           0       -1.294058    1.135666   -0.915203
     15          6           0       -3.643211    0.727147    0.534012
     16          1           0       -3.028573   -1.342000    0.613510
     17          6           0       -2.148356    2.207732   -0.652349
     18          1           0       -0.381483    1.315321   -1.470615
     19          6           0       -3.323679    2.008929    0.074842
     20          1           0       -4.559078    0.562228    1.094203
     21          1           0       -1.892693    3.198999   -1.014875
     22          1           0       -3.986853    2.844172    0.279680
     23          6           0        1.576600   -0.122604    0.444811
     24          6           0        2.746122   -0.281643   -0.328643
     25          6           0        1.275010    1.159914    0.947018
     26          6           0        3.582607    0.800273   -0.583779
     27          1           0        2.987477   -1.262746   -0.718507
     28          6           0        2.112850    2.240394    0.685601
     29          1           0        0.378472    1.318251    1.533146
     30          6           0        3.269147    2.067163   -0.080568
     31          1           0        4.480929    0.657243   -1.176565
     32          1           0        1.862240    3.220329    1.079849
     33          1           0        3.920312    2.911817   -0.283809
     34          8           0        1.309944   -2.473669    0.442011
     35          1           0        0.581978   -3.110334    0.292368
 ---------------------------------------------------------------------
                    Distance matrix (angstroms):
                    1          2          3          4          5
     1  C    0.000000
     2  C    2.000000   0.000000
     3  O    1.282231   2.490862   0.000000
     4  C    1.534456   2.755206   2.385866   0.000000
     5  H    2.130109   3.758523   2.746235   1.095078   0.000000
     6  H    2.216623   2.962873   3.313426   1.089094   1.772403
     7  H    2.154761   2.842993   2.580881   1.090053   1.775501
     8  C    2.768811   1.518364   2.879440   3.989330   4.847786
     9  H    2.990777   2.186994   3.317503   4.296934   5.061799
    10  H    2.824363   2.144980   2.448153   4.176573   4.893294
    11  H    3.772352   2.128565   3.844785   4.842505   5.779456
    12  C    1.513001   2.800658   2.394463   2.588488   2.891739
    13  C    2.509345   3.630205   2.786867   3.819540   3.974139
    14  C    2.562086   3.515189   3.682842   3.025088   3.275770
    15  C    3.802256   4.777290   4.177990   4.976531   5.046508
    16  H    2.667797   3.722061   2.416378   4.097341   4.246585
    17  C    3.838044   4.691918   4.823410   4.396860   4.517157
    18  H    2.792399   3.544774   4.048986   2.720661   3.056116
    19  C    4.327250   5.223893   5.026906   5.214897   5.275690
    20  H    4.659829   5.576476   4.810691   5.917894   5.947366
    21  H    4.710540   5.442726   5.786093   5.033447   5.134001
    22  H    5.413179   6.246709   6.086524   6.272036   6.291617
    23  C    2.850129   1.473863   3.735585   3.074687   4.125684
    24  C    3.645415   2.502376   4.506348   3.267582   4.303187
    25  C    3.612585   2.514371   4.610214   4.006641   4.931963
    26  C    4.810043   3.782180   5.794688   4.283979   5.210004
    27  H    3.705197   2.698594   4.352630   3.131288   4.136688
    28  C    4.783841   3.790275   5.874872   4.867981   5.736778
    29  H    3.660475   2.740228   4.558636   4.404862   5.240328
    30  C    5.290324   4.290830   6.383871   4.989948   5.863172
    31  H    5.591509   4.648258   6.524518   4.843355   5.697110
    32  H    5.549219   4.659144   6.649070   5.739728   6.533404
    33  H    6.314688   5.376526   7.437432   5.923209   6.730147
    34  O    2.590058   1.374515   2.619755   2.951076   3.925133
    35  H    2.407458   1.884843   1.978004   2.950647   3.743410
                    6          7          8          9         10
     6  H    0.000000
     7  H    1.774759   0.000000
     8  C    4.285756   4.185369   0.000000
     9  H    4.470247   4.734358   1.088537   0.000000
    10  H    4.716355   4.301008   1.090343   1.766526   0.000000
    11  H    5.046595   4.895639   1.095342   1.775116   1.781580
    12  C    2.848531   3.497895   3.070530   2.724058   3.262194
    13  C    4.228158   4.632104   3.312854   2.770354   3.206422
    14  C    2.778478   4.053709   3.956471   3.439449   4.417545
    15  C    5.207009   5.883626   4.310950   3.502678   4.314012
    16  H    4.720123   4.722390   3.218393   2.910367   2.758850
    17  C    4.117660   5.441019   4.824727   4.053613   5.278542
    18  H    2.113363   3.704126   4.332532   3.984402   4.915052
    19  C    5.167058   6.225964   4.977707   4.083403   5.239628
    20  H    6.233040   6.772368   4.892168   4.081384   4.738668
    21  H    4.554949   6.076455   5.679388   4.902947   6.237070
    22  H    6.172683   7.296081   5.910125   4.947160   6.178426
    23  C    2.730116   3.265267   2.567562   2.854643   3.472222
    24  C    2.729690   3.161345   3.815564   4.244723   4.615635
    25  C    3.486597   4.454940   2.998915   2.785552   4.034211
    26  C    3.481460   4.282146   4.963481   5.219109   5.862328
    27  H    2.831343   2.670149   4.116867   4.749424   4.724195
    28  C    4.098036   5.305986   4.369270   4.123831   5.418160
    29  H    4.046810   4.970644   2.688284   2.114427   3.686322
    30  C    4.100429   5.240131   5.193423   5.176594   6.202983
    31  H    4.040239   4.685563   5.908579   6.246010   6.752058
    32  H    4.961598   6.277250   5.003613   4.559830   6.055071
    33  H    4.965139   6.177969   6.250061   6.182158   7.273013
    34  O    3.368493   2.513835   2.414611   3.357388   2.620495
    35  H    3.647205   2.499332   2.585551   3.524535   2.378364
                   11         12         13         14         15
    11  H    0.000000
    12  C    4.119334   0.000000
    13  C    4.351616   1.404383   0.000000
    14  C    4.871686   1.403745   2.413591   0.000000
    15  C    5.239959   2.433396   1.392801   2.790274   0.000000
    16  H    4.233794   2.141856   1.084201   3.388854   2.159970
    17  C    5.681003   2.432353   2.786053   1.395795   2.415404
    18  H    5.151001   2.163516   3.402480   1.083306   3.873415
    19  C    5.845299   2.814980   2.418299   2.421185   1.398536
    20  H    5.755231   3.414310   2.150729   3.876454   1.086197
    21  H    6.453807   3.412062   3.872039   2.150730   3.401972
    22  H    6.710428   3.900976   3.403231   3.405566   2.159761
    23  C    2.860376   3.302774   4.375876   3.416659   5.289278
    24  C    3.973100   4.351193   5.568962   4.321559   6.525750
    25  C    3.217995   3.458707   4.386376   3.173100   4.954469
    26  C    5.028327   5.272701   6.530412   4.899407   7.312130
    27  H    4.283009   4.728326   5.933568   4.911478   7.035233
    28  C    4.458912   4.563684   5.557074   3.923012   5.953582
    29  H    2.980531   3.167927   3.793791   2.970708   4.185882
    30  C    5.234957   5.366109   6.530096   4.731505   7.067818
    31  H    5.939321   6.178593   7.480648   5.800661   8.302567
    32  H    5.066000   5.072994   5.915288   4.276479   6.068269
    33  H    6.249300   6.318024   7.478239   5.544639   7.915080
    34  O    2.728137   3.828760   4.624563   4.652973   5.898087
    35  H    3.077552   3.750190   4.363219   4.796484   5.712869
                   16         17         18         19         20
    16  H    0.000000
    17  C    3.870113   0.000000
    18  H    4.290923   2.141914   0.000000
    19  C    3.406754   1.396321   3.395003   0.000000
    20  H    2.489899   3.401427   4.959611   2.158298   0.000000
    21  H    4.956060   1.086001   2.457580   2.156727   4.302369
    22  H    4.307410   2.157268   4.289477   1.085997   2.489610
    23  C    4.766865   4.528744   3.093634   5.356589   6.207838
    24  C    5.946353   5.500699   3.692737   6.500154   7.490164
    25  C    4.989151   3.921139   2.934803   4.757043   5.866470
    26  C    7.051988   5.901659   4.094602   7.042117   8.316208
    27  H    6.162257   6.198820   4.308362   7.152898   7.972888
    28  C    6.266815   4.466436   3.424431   5.475623   6.891866
    29  H    4.419346   3.457228   3.098406   4.038516   5.014344
    30  C    7.194819   5.449407   3.978014   6.594915   8.057669
    31  H    7.974582   6.828341   4.915545   8.019039   9.321327
    32  H    6.704653   4.484500   3.894639   5.419528   6.949750
    33  H    8.196776   6.120481   4.739488   7.308847   8.906152
    34  O    4.486961   5.922244   4.568972   6.457473   6.639838
    35  H    4.033140   6.052193   4.860328   6.442696   6.368760
                   21         22         23         24         25
    21  H    0.000000
    22  H    2.487425   0.000000
    23  C    5.019933   6.307221   0.000000
    24  C    5.839896   7.448069   1.411136   0.000000
    25  C    4.247497   5.565004   1.409972   2.422719   0.000000
    26  C    5.993216   7.887953   2.435932   1.391166   2.792434
    27  H    6.618992   8.155025   2.154949   1.082963   3.402322
    28  C    4.455886   6.142939   2.435016   2.791128   1.392032
    29  H    3.897155   4.791208   2.167036   3.410526   1.082773
    30  C    5.366430   7.306371   2.817058   2.419088   2.419838
    31  H    6.863652   8.866039   3.416453   2.147099   3.878170
    32  H    4.299749   5.915543   3.414684   3.876713   2.146577
    33  H    5.865830   7.927506   3.902766   3.402781   3.403193
    34  O    6.675220   7.507452   2.366140   2.731573   3.668675
    35  H    6.902214   7.505366   3.152625   3.615338   4.375372
                   26         27         28         29         30
    26  C    0.000000
    27  H    2.151367   0.000000
    28  C    2.417739   3.874078   0.000000
    29  H    3.875068   4.305624   2.139333   0.000000
    30  C    1.398745   3.402146   1.397872   3.394252   0.000000
    31  H    1.085742   2.475192   3.403208   4.960808   2.158124
    32  H    3.403526   4.959658   1.085592   2.454577   2.157718
    33  H    2.159316   4.299549   2.158120   4.287821   1.085709
    34  O    4.115330   2.372183   4.788150   4.054241   4.972999
    35  H    5.006421   3.197167   5.579291   4.603619   5.845206
                   31         32         33         34         35
    31  H    0.000000
    32  H    4.303295   0.000000
    33  H    2.488857   2.488052   0.000000
    34  O    4.741049   5.756169   6.028623   0.000000
    35  H    5.617314   6.506650   6.909613   0.978606   0.000000
 Stoichiometry    C16H17O2(2)
 Framework group  C1[X(C16H17O2)]
 Deg. of freedom    99
 Full point group                 C1      NOp   1
 Largest Abelian subgroup         C1      NOp   1
 Largest concise Abelian subgroup C1      NOp   1
                         Standard orientation:                         
 ---------------------------------------------------------------------
 Center     Atomic      Atomic             Coordinates (Angstroms)
 Number     Number       Type             X           Y           Z
 ---------------------------------------------------------------------
      1          6           0        0.716628   -1.352672    0.717632
      2          6           0       -0.691849   -1.273398   -0.700080
      3          8           0        1.170760   -2.508793    0.399411
      4          6           0       -0.129351   -1.304613    1.996915
      5          1           0        0.560001   -1.410390    2.841191
      6          1           0       -0.693750   -0.382099    2.125553
      7          1           0       -0.819854   -2.148055    2.001993
      8          6           0        0.117460   -1.285016   -1.984725
      9          1           0        0.723641   -0.390176   -2.114028
     10          1           0        0.779274   -2.151512   -1.990681
     11          1           0       -0.582277   -1.360485   -2.824038
     12          6           0        1.601394   -0.154003    0.453902
     13          6           0        2.790276   -0.341748   -0.269703
     14          6           0        1.294058    1.135666    0.915203
     15          6           0        3.643211    0.727147   -0.534012
     16          1           0        3.028573   -1.342000   -0.613510
     17          6           0        2.148356    2.207732    0.652349
     18          1           0        0.381483    1.315321    1.470615
     19          6           0        3.323679    2.008929   -0.074842
     20          1           0        4.559078    0.562228   -1.094203
     21          1           0        1.892693    3.198999    1.014875
     22          1           0        3.986853    2.844172   -0.279680
     23          6           0       -1.576600   -0.122604   -0.444811
     24          6           0       -2.746122   -0.281643    0.328643
     25          6           0       -1.275010    1.159914   -0.947018
     26          6           0       -3.582607    0.800273    0.583779
     27          1           0       -2.987477   -1.262746    0.718507
     28          6           0       -2.112850    2.240394   -0.685601
     29          1           0       -0.378472    1.318251   -1.533146
     30          6           0       -3.269147    2.067163    0.080568
     31          1           0       -4.480929    0.657243    1.176565
     32          1           0       -1.862240    3.220329   -1.079849
     33          1           0       -3.920312    2.911817    0.283809
     34          8           0       -1.309944   -2.473669   -0.442011
     35          1           0       -0.581978   -3.110334   -0.292368
 ---------------------------------------------------------------------
 Rotational constants (GHZ):           0.6177519           0.3790361           0.2894298
 Leave Link  202 at Sat May 25 00:24:50 2019, MaxMem=   104857600 cpu:               1.4 elap:               0.1
 (Enter /opt/software/gaussian/g16.b01/l301.exe)
 Standard basis: 6-31G(d,p) (6D, 7F)
 Ernie: Thresh=  0.10000D-02 Tol=  0.10000D-05 Strict=F.
 There are   355 symmetry adapted cartesian basis functions of A   symmetry.
 There are   355 symmetry adapted basis functions of A   symmetry.
   355 basis functions,   623 primitive gaussians,   355 cartesian basis functions
    65 alpha electrons       64 beta electrons
       nuclear repulsion energy      1324.9149556457 Hartrees.
 IExCor=  402 DFT=T Ex+Corr=B3LYP ExCW=0 ScaHFX=  0.200000
 ScaDFX=  0.800000  0.720000  1.000000  0.810000 ScalE2=  1.000000  1.000000
 IRadAn=      5 IRanWt=     -1 IRanGd=            0 ICorTp=0 IEmpDi=131
 NAtoms=   35 NActive=   35 NUniq=   35 SFac= 1.00D+00 NAtFMM=   60 NAOKFM=F Big=F
 Integral buffers will be    131072 words long.
 Raffenetti 2 integral format.
 Two-electron integral symmetry is turned on.
 R6Disp:  Grimme-D3 Dispersion energy=       -0.0419352947 Hartrees.
 Nuclear repulsion after empirical dispersion term =     1324.8730203511 Hartrees.
 ------------------------------------------------------------------------------
 Polarizable Continuum Model (PCM)
 =================================
 Model                : PCM.
 Atomic radii         : UFF (Universal Force Field).
 Polarization charges : Total charges.
 Charge compensation  : None.
 Solution method      : On-the-fly selection.
 Cavity type          : Scaled VdW (van der Waals Surface) (Alpha=1.100).
 Cavity algorithm     : GePol (No added spheres)
                        Default sphere list used, NSphG=   35.
                        Lebedev-Laikov grids with approx.  5.0 points / Ang**2.
                        Smoothing algorithm: York/Karplus (Gamma=1.0000).
                        Polarization charges: spherical gaussians, with
                                              point-specific exponents (IZeta= 3).
                        Self-potential: point-specific (ISelfS= 7).
                        Self-field    : sphere-specific E.n sum rule (ISelfD= 2).
 Solvent              : Acetonitrile, Eps=  35.688000 Eps(inf)=   1.806874
 ------------------------------------------------------------------------------
 GePol: Number of generator spheres                  =      35
 GePol: Total number of spheres                      =      35
 GePol: Number of exposed spheres                    =      35 (100.00%)
 GePol: Number of points                             =    2398
 GePol: Average weight of points                     =       0.13
 GePol: Minimum weight of points                     =   0.12D-08
 GePol: Maximum weight of points                     =    0.20577
 GePol: Number of points with low weight             =     152
 GePol: Fraction of low-weight points (<1% of avg)   =       6.34%
 GePol: Cavity surface area                          =    306.682 Ang**2
 GePol: Cavity volume                                =    350.037 Ang**3
 Leave Link  301 at Sat May 25 00:24:50 2019, MaxMem=   104857600 cpu:               4.4 elap:               0.2
 (Enter /opt/software/gaussian/g16.b01/l302.exe)
 NPDir=0 NMtPBC=     1 NCelOv=     1 NCel=       1 NClECP=     1 NCelD=      1
         NCelK=      1 NCelE2=     1 NClLst=     1 CellRange=     0.0.
 One-electron integrals computed using PRISM.
 One-electron integral symmetry used in STVInt
 PrsmSu:  requested number of processors reduced to:  28 ShMem   1 Linda.
 NBasis=   355 RedAO= T EigKep=  4.49D-04  NBF=   355
 NBsUse=   355 1.00D-06 EigRej= -1.00D+00 NBFU=   355
 Precomputing XC quadrature grid using
 IXCGrd= 4 IRadAn=           5 IRanWt=          -1 IRanGd=           0 AccXCQ= 0.00D+00.
 Generated NRdTot=       0 NPtTot=           0 NUsed=           0 NTot=          32
 NSgBfM=   354   354   354   354   354 MxSgAt=    35 MxSgA2=    35.
 Leave Link  302 at Sat May 25 00:24:51 2019, MaxMem=   104857600 cpu:              15.6 elap:               0.6
 (Enter /opt/software/gaussian/g16.b01/l303.exe)
 DipDrv:  MaxL=1.
 Leave Link  303 at Sat May 25 00:24:51 2019, MaxMem=   104857600 cpu:               3.3 elap:               0.2
 (Enter /opt/software/gaussian/g16.b01/l308.exe)
 Leave Link  308 at Sat May 25 00:24:51 2019, MaxMem=   104857600 cpu:               3.5 elap:               0.2
 (Enter /opt/software/gaussian/g16.b01/l401.exe)
 ExpMin= 1.61D-01 ExpMax= 5.48D+03 ExpMxC= 8.25D+02 IAcc=3 IRadAn=         5 AccDes= 0.00D+00
 Harris functional with IExCor=  402 and IRadAn=       5 diagonalized for initial guess.
 HarFok:  IExCor=  402 AccDes= 0.00D+00 IRadAn=         5 IDoV= 1 UseB2=F ITyADJ=14
 ICtDFT=  3500011 ScaDFX=  1.000000  1.000000  1.000000  1.000000
 FoFCou: FMM=F IPFlag=           0 FMFlag=      100000 FMFlg1=           0
         NFxFlg=           0 DoJE=T BraDBF=F KetDBF=T FulRan=T
         wScrn=  0.000000 ICntrl=       500 IOpCl=  0 I1Cent=   200000004 NGrid=           0
         NMat0=    1 NMatS0=      1 NMatT0=    0 NMatD0=    1 NMtDS0=    0 NMtDT0=    0
 Petite list used in FoFCou.
 Harris En= -770.445357306310    
 JPrj=0 DoOrth=F DoCkMO=T.
 Mixing orbitals, IMix= 1 IMixAn=  0 NRI=1 NE=   65 Coef=  7.07106781D-01  7.07106781D-01
 Mixing orbitals, IMix= 1 IMixAn=  0 NRI=1 NE=   64 Coef= -7.07106781D-01  7.07106781D-01
 Initial guess <Sx>= 0.0000 <Sy>= 0.0000 <Sz>= 0.5000 <S**2>= 1.0000 S= 0.6180
 Leave Link  401 at Sat May 25 00:24:52 2019, MaxMem=   104857600 cpu:              28.5 elap:               1.0
 (Enter /opt/software/gaussian/g16.b01/l502.exe)
 Integral symmetry usage will be decided dynamically.
 UHF open shell SCF:
 Using DIIS extrapolation, IDIIS=  1040.
 NGot=   104857600 LenX=   104590331 LenY=   104463865
 Requested convergence on RMS density matrix=1.00D-08 within 128 cycles.
 Requested convergence on MAX density matrix=1.00D-06.
 Requested convergence on             energy=1.00D-06.
 No special actions if energy rises.
 Fock matrices will be formed incrementally for  20 cycles.

 Cycle   1  Pass 1  IDiag  1:
 FoFJK:  IHMeth= 1 ICntrl=       0 DoSepK=F KAlg= 0 I1Cent=           0 FoldK=F
 IRaf= 840000000 NMat=       1 IRICut=       1 DoRegI=T DoRafI=F ISym2E= 0 IDoP0=0 IntGTp=1.
 FoFCou: FMM=F IPFlag=           0 FMFlag=      100000 FMFlg1=           0
         NFxFlg=           0 DoJE=F BraDBF=F KetDBF=F FulRan=T
         wScrn=  0.000000 ICntrl=         0 IOpCl=  1 I1Cent=           0 NGrid=           0
         NMat0=    1 NMatS0=      1 NMatT0=    0 NMatD0=    1 NMtDS0=    0 NMtDT0=    0
 Symmetry not used in FoFCou.
 Inv3:  Mode=1 IEnd=    17251212.
 Iteration    1 A*A^-1 deviation from unit magnitude is 2.89D-15 for    471.
 Iteration    1 A*A^-1 deviation from orthogonality  is 1.77D-15 for   1305    732.
 Iteration    1 A^-1*A deviation from unit magnitude is 3.22D-15 for     70.
 Iteration    1 A^-1*A deviation from orthogonality  is 9.51D-14 for   2064   2037.
 E= -769.861782658330    
 DIIS: error= 2.55D-02 at cycle   1 NSaved=   1.
 NSaved= 1 IEnMin= 1 EnMin= -769.861782658330     IErMin= 1 ErrMin= 2.55D-02
 ErrMax= 2.55D-02  0.00D+00 EMaxC= 1.00D-01 BMatC= 1.77D+00 BMatP= 1.77D+00
 IDIUse=3 WtCom= 7.45D-01 WtEn= 2.55D-01
 Coeff-Com:  0.100D+01
 Coeff-En:   0.100D+01
 Coeff:      0.100D+01
 Gap=     0.028 Goal=   None    Shift=    0.000
 Gap=     0.040 Goal=   None    Shift=    0.000
 GapD=    0.028 DampG=0.250 DampE=0.500 DampFc=0.2500 IDamp=-1.
 Damping current iteration by 2.50D-01
 RMSDP=4.22D-03 MaxDP=1.24D-01              OVMax= 6.06D-01

 Cycle   2  Pass 1  IDiag  1:
 RMSU=  1.03D-03    CP:  9.87D-01
 E= -770.037191205998     Delta-E=       -0.175408547668 Rises=F Damp=T
 DIIS: error= 1.54D-02 at cycle   2 NSaved=   2.
 NSaved= 2 IEnMin= 2 EnMin= -770.037191205998     IErMin= 2 ErrMin= 1.54D-02
 ErrMax= 1.54D-02  0.00D+00 EMaxC= 1.00D-01 BMatC= 4.82D-01 BMatP= 1.77D+00
 IDIUse=3 WtCom= 8.46D-01 WtEn= 1.54D-01
 Coeff-Com: -0.879D+00 0.188D+01
 Coeff-En:   0.000D+00 0.100D+01
 Coeff:     -0.744D+00 0.174D+01
 Gap=     0.160 Goal=   None    Shift=    0.000
 Gap=     0.100 Goal=   None    Shift=    0.000
 RMSDP=2.13D-03 MaxDP=6.43D-02 DE=-1.75D-01 OVMax= 2.69D-01

 Cycle   3  Pass 1  IDiag  1:
 RMSU=  1.51D-03    CP:  9.58D-01  2.38D+00
 E= -770.366273162270     Delta-E=       -0.329081956272 Rises=F Damp=F
 DIIS: error= 7.21D-03 at cycle   3 NSaved=   3.
 NSaved= 3 IEnMin= 3 EnMin= -770.366273162270     IErMin= 3 ErrMin= 7.21D-03
 ErrMax= 7.21D-03  0.00D+00 EMaxC= 1.00D-01 BMatC= 1.11D-01 BMatP= 4.82D-01
 IDIUse=3 WtCom= 9.28D-01 WtEn= 7.21D-02
 Coeff-Com: -0.443D+00 0.927D+00 0.516D+00
 Coeff-En:   0.000D+00 0.000D+00 0.100D+01
 Coeff:     -0.411D+00 0.860D+00 0.551D+00
 Gap=     0.162 Goal=   None    Shift=    0.000
 Gap=     0.092 Goal=   None    Shift=    0.000
 RMSDP=8.88D-04 MaxDP=4.41D-02 DE=-3.29D-01 OVMax= 1.17D-01

 Cycle   4  Pass 1  IDiag  1:
 RMSU=  8.04D-04    CP:  9.61D-01  2.44D+00  7.56D-01
 E= -770.390051765607     Delta-E=       -0.023778603338 Rises=F Damp=F
 DIIS: error= 4.03D-03 at cycle   4 NSaved=   4.
 NSaved= 4 IEnMin= 4 EnMin= -770.390051765607     IErMin= 4 ErrMin= 4.03D-03
 ErrMax= 4.03D-03  0.00D+00 EMaxC= 1.00D-01 BMatC= 3.02D-02 BMatP= 1.11D-01
 IDIUse=3 WtCom= 9.60D-01 WtEn= 4.03D-02
 Coeff-Com: -0.550D-01 0.126D+00 0.334D+00 0.594D+00
 Coeff-En:   0.000D+00 0.000D+00 0.199D+00 0.801D+00
 Coeff:     -0.527D-01 0.121D+00 0.329D+00 0.603D+00
 Gap=     0.166 Goal=   None    Shift=    0.000
 Gap=     0.108 Goal=   None    Shift=    0.000
 RMSDP=3.94D-04 MaxDP=1.41D-02 DE=-2.38D-02 OVMax= 6.04D-02

 Cycle   5  Pass 1  IDiag  1:
 RMSU=  2.82D-04    CP:  9.59D-01  2.44D+00  8.94D-01  7.79D-01
 E= -770.398908090636     Delta-E=       -0.008856325029 Rises=F Damp=F
 DIIS: error= 1.24D-03 at cycle   5 NSaved=   5.
 NSaved= 5 IEnMin= 5 EnMin= -770.398908090636     IErMin= 5 ErrMin= 1.24D-03
 ErrMax= 1.24D-03  0.00D+00 EMaxC= 1.00D-01 BMatC= 3.50D-03 BMatP= 3.02D-02
 IDIUse=3 WtCom= 9.88D-01 WtEn= 1.24D-02
 Coeff-Com: -0.877D-03 0.416D-02 0.124D+00 0.331D+00 0.542D+00
 Coeff-En:   0.000D+00 0.000D+00 0.000D+00 0.000D+00 0.100D+01
 Coeff:     -0.867D-03 0.411D-02 0.123D+00 0.327D+00 0.547D+00
 Gap=     0.169 Goal=   None    Shift=    0.000
 Gap=     0.110 Goal=   None    Shift=    0.000
 RMSDP=1.48D-04 MaxDP=1.51D-02 DE=-8.86D-03 OVMax= 2.62D-02

 Cycle   6  Pass 1  IDiag  1:
 RMSU=  1.28D-04    CP:  9.58D-01  2.46D+00  9.10D-01  8.62D-01  9.68D-01
 E= -770.400096460942     Delta-E=       -0.001188370305 Rises=F Damp=F
 DIIS: error= 7.11D-04 at cycle   6 NSaved=   6.
 NSaved= 6 IEnMin= 6 EnMin= -770.400096460942     IErMin= 6 ErrMin= 7.11D-04
 ErrMax= 7.11D-04  0.00D+00 EMaxC= 1.00D-01 BMatC= 1.01D-03 BMatP= 3.50D-03
 IDIUse=3 WtCom= 9.93D-01 WtEn= 7.11D-03
 Coeff-Com:  0.954D-02-0.203D-01-0.242D-01 0.208D-01 0.355D+00 0.659D+00
 Coeff-En:   0.000D+00 0.000D+00 0.000D+00 0.000D+00 0.000D+00 0.100D+01
 Coeff:      0.947D-02-0.202D-01-0.240D-01 0.207D-01 0.353D+00 0.661D+00
 Gap=     0.173 Goal=   None    Shift=    0.000
 Gap=     0.114 Goal=   None    Shift=    0.000
 RMSDP=1.00D-04 MaxDP=7.81D-03 DE=-1.19D-03 OVMax= 2.76D-02

 Cycle   7  Pass 1  IDiag  1:
 RMSU=  5.69D-05    CP:  9.58D-01  2.46D+00  9.14D-01  9.12D-01  1.22D+00
                    CP:  1.03D+00
 E= -770.400580551663     Delta-E=       -0.000484090721 Rises=F Damp=F
 DIIS: error= 3.31D-04 at cycle   7 NSaved=   7.
 NSaved= 7 IEnMin= 7 EnMin= -770.400580551663     IErMin= 7 ErrMin= 3.31D-04
 ErrMax= 3.31D-04  0.00D+00 EMaxC= 1.00D-01 BMatC= 1.50D-04 BMatP= 1.01D-03
 IDIUse=3 WtCom= 9.97D-01 WtEn= 3.31D-03
 Coeff-Com:  0.220D-02-0.563D-02-0.396D-01-0.683D-01 0.608D-01 0.276D+00
 Coeff-Com:  0.775D+00
 Coeff-En:   0.000D+00 0.000D+00 0.000D+00 0.000D+00 0.000D+00 0.000D+00
 Coeff-En:   0.100D+01
 Coeff:      0.219D-02-0.561D-02-0.395D-01-0.681D-01 0.606D-01 0.275D+00
 Coeff:      0.776D+00
 Gap=     0.174 Goal=   None    Shift=    0.000
 Gap=     0.115 Goal=   None    Shift=    0.000
 RMSDP=6.37D-05 MaxDP=8.00D-03 DE=-4.84D-04 OVMax= 1.93D-02

 Cycle   8  Pass 1  IDiag  1:
 RMSU=  3.24D-05    CP:  9.58D-01  2.47D+00  9.20D-01  9.33D-01  1.36D+00
                    CP:  1.27D+00  1.24D+00
 E= -770.400718226547     Delta-E=       -0.000137674884 Rises=F Damp=F
 DIIS: error= 2.45D-04 at cycle   8 NSaved=   8.
 NSaved= 8 IEnMin= 8 EnMin= -770.400718226547     IErMin= 8 ErrMin= 2.45D-04
 ErrMax= 2.45D-04  0.00D+00 EMaxC= 1.00D-01 BMatC= 1.12D-04 BMatP= 1.50D-04
 IDIUse=3 WtCom= 9.98D-01 WtEn= 2.45D-03
 Coeff-Com: -0.230D-02 0.503D-02-0.130D-01-0.439D-01-0.587D-01-0.763D-01
 Coeff-Com:  0.545D+00 0.645D+00
 Coeff-En:   0.000D+00 0.000D+00 0.000D+00 0.000D+00 0.000D+00 0.000D+00
 Coeff-En:   0.000D+00 0.100D+01
 Coeff:     -0.229D-02 0.502D-02-0.130D-01-0.438D-01-0.586D-01-0.761D-01
 Coeff:      0.543D+00 0.645D+00
 Gap=     0.174 Goal=   None    Shift=    0.000
 Gap=     0.116 Goal=   None    Shift=    0.000
 RMSDP=3.85D-05 MaxDP=3.32D-03 DE=-1.38D-04 OVMax= 1.25D-02

 Cycle   9  Pass 1  IDiag  1:
 RMSU=  1.68D-05    CP:  9.58D-01  2.47D+00  9.21D-01  9.44D-01  1.43D+00
                    CP:  1.38D+00  1.65D+00  1.11D+00
 E= -770.400778694149     Delta-E=       -0.000060467602 Rises=F Damp=F
 DIIS: error= 7.83D-05 at cycle   9 NSaved=   9.
 NSaved= 9 IEnMin= 9 EnMin= -770.400778694149     IErMin= 9 ErrMin= 7.83D-05
 ErrMax= 7.83D-05  0.00D+00 EMaxC= 1.00D-01 BMatC= 1.30D-05 BMatP= 1.12D-04
 IDIUse=1 WtCom= 1.00D+00 WtEn= 0.00D+00
 Coeff-Com: -0.115D-03 0.113D-02 0.665D-02 0.330D-02-0.191D-01-0.110D+00
 Coeff-Com:  0.300D-01 0.150D+00 0.937D+00
 Coeff:     -0.115D-03 0.113D-02 0.665D-02 0.330D-02-0.191D-01-0.110D+00
 Coeff:      0.300D-01 0.150D+00 0.937D+00
 Gap=     0.174 Goal=   None    Shift=    0.000
 Gap=     0.116 Goal=   None    Shift=    0.000
 RMSDP=2.34D-05 MaxDP=2.45D-03 DE=-6.05D-05 OVMax= 7.60D-03

 Cycle  10  Pass 1  IDiag  1:
 RMSU=  8.14D-06    CP:  9.58D-01  2.47D+00  9.22D-01  9.46D-01  1.47D+00
                    CP:  1.44D+00  1.87D+00  1.43D+00  1.35D+00
 E= -770.400795067944     Delta-E=       -0.000016373795 Rises=F Damp=F
 DIIS: error= 4.36D-05 at cycle  10 NSaved=  10.
 NSaved=10 IEnMin=10 EnMin= -770.400795067944     IErMin=10 ErrMin= 4.36D-05
 ErrMax= 4.36D-05  0.00D+00 EMaxC= 1.00D-01 BMatC= 6.04D-06 BMatP= 1.30D-05
 IDIUse=1 WtCom= 1.00D+00 WtEn= 0.00D+00
 Coeff-Com:  0.989D-03-0.132D-02 0.991D-02 0.196D-01 0.137D-01-0.416D-01
 Coeff-Com: -0.181D+00-0.177D+00 0.565D+00 0.792D+00
 Coeff:      0.989D-03-0.132D-02 0.991D-02 0.196D-01 0.137D-01-0.416D-01
 Coeff:     -0.181D+00-0.177D+00 0.565D+00 0.792D+00
 Gap=     0.174 Goal=   None    Shift=    0.000
 Gap=     0.116 Goal=   None    Shift=    0.000
 RMSDP=1.58D-05 MaxDP=1.38D-03 DE=-1.64D-05 OVMax= 5.08D-03

 Cycle  11  Pass 1  IDiag  1:
 RMSU=  3.84D-06    CP:  9.58D-01  2.47D+00  9.23D-01  9.49D-01  1.49D+00
                    CP:  1.47D+00  2.03D+00  1.63D+00  1.79D+00  1.08D+00
 E= -770.400801043517     Delta-E=       -0.000005975573 Rises=F Damp=F
 DIIS: error= 1.77D-05 at cycle  11 NSaved=  11.
 NSaved=11 IEnMin=11 EnMin= -770.400801043517     IErMin=11 ErrMin= 1.77D-05
 ErrMax= 1.77D-05  0.00D+00 EMaxC= 1.00D-01 BMatC= 6.26D-07 BMatP= 6.04D-06
 IDIUse=1 WtCom= 1.00D+00 WtEn= 0.00D+00
 Coeff-Com:  0.378D-03-0.656D-03 0.188D-02 0.494D-02 0.493D-02 0.537D-02
 Coeff-Com: -0.610D-01-0.690D-01 0.203D-01 0.250D+00 0.843D+00
 Coeff:      0.378D-03-0.656D-03 0.188D-02 0.494D-02 0.493D-02 0.537D-02
 Coeff:     -0.610D-01-0.690D-01 0.203D-01 0.250D+00 0.843D+00
 Gap=     0.174 Goal=   None    Shift=    0.000
 Gap=     0.116 Goal=   None    Shift=    0.000
 RMSDP=5.42D-06 MaxDP=4.73D-04 DE=-5.98D-06 OVMax= 1.79D-03

 Cycle  12  Pass 1  IDiag  1:
 RMSU=  1.95D-06    CP:  9.58D-01  2.47D+00  9.23D-01  9.50D-01  1.49D+00
                    CP:  1.48D+00  2.07D+00  1.69D+00  1.91D+00  1.26D+00
                    CP:  1.18D+00
 E= -770.400801830761     Delta-E=       -0.000000787244 Rises=F Damp=F
 DIIS: error= 1.32D-05 at cycle  12 NSaved=  12.
 NSaved=12 IEnMin=12 EnMin= -770.400801830761     IErMin=12 ErrMin= 1.32D-05
 ErrMax= 1.32D-05  0.00D+00 EMaxC= 1.00D-01 BMatC= 2.97D-07 BMatP= 6.26D-07
 IDIUse=1 WtCom= 1.00D+00 WtEn= 0.00D+00
 Coeff-Com:  0.714D-05-0.112D-03-0.154D-02-0.224D-02-0.129D-02 0.162D-01
 Coeff-Com:  0.859D-02 0.863D-02-0.150D+00-0.618D-01 0.475D+00 0.708D+00
 Coeff:      0.714D-05-0.112D-03-0.154D-02-0.224D-02-0.129D-02 0.162D-01
 Coeff:      0.859D-02 0.863D-02-0.150D+00-0.618D-01 0.475D+00 0.708D+00
 Gap=     0.174 Goal=   None    Shift=    0.000
 Gap=     0.116 Goal=   None    Shift=    0.000
 RMSDP=2.81D-06 MaxDP=2.16D-04 DE=-7.87D-07 OVMax= 8.70D-04

 Cycle  13  Pass 1  IDiag  1:
 RMSU=  9.41D-07    CP:  9.58D-01  2.47D+00  9.23D-01  9.51D-01  1.50D+00
                    CP:  1.49D+00  2.08D+00  1.72D+00  1.96D+00  1.36D+00
                    CP:  1.48D+00  1.04D+00
 E= -770.400802076959     Delta-E=       -0.000000246198 Rises=F Damp=F
 DIIS: error= 6.00D-06 at cycle  13 NSaved=  13.
 NSaved=13 IEnMin=13 EnMin= -770.400802076959     IErMin=13 ErrMin= 6.00D-06
 ErrMax= 6.00D-06  0.00D+00 EMaxC= 1.00D-01 BMatC= 5.91D-08 BMatP= 2.97D-07
 IDIUse=1 WtCom= 1.00D+00 WtEn= 0.00D+00
 Coeff-Com: -0.985D-04 0.139D-03-0.998D-03-0.191D-02-0.183D-02 0.624D-02
 Coeff-Com:  0.171D-01 0.240D-01-0.677D-01-0.827D-01-0.570D-01 0.266D+00
 Coeff-Com:  0.898D+00
 Coeff:     -0.985D-04 0.139D-03-0.998D-03-0.191D-02-0.183D-02 0.624D-02
 Coeff:      0.171D-01 0.240D-01-0.677D-01-0.827D-01-0.570D-01 0.266D+00
 Coeff:      0.898D+00
 Gap=     0.174 Goal=   None    Shift=    0.000
 Gap=     0.116 Goal=   None    Shift=    0.000
 RMSDP=1.25D-06 MaxDP=7.05D-05 DE=-2.46D-07 OVMax= 2.78D-04

 Cycle  14  Pass 1  IDiag  1:
 RMSU=  5.05D-07    CP:  9.58D-01  2.47D+00  9.23D-01  9.51D-01  1.50D+00
                    CP:  1.49D+00  2.09D+00  1.73D+00  1.98D+00  1.41D+00
                    CP:  1.62D+00  1.34D+00  1.18D+00
 E= -770.400802130732     Delta-E=       -0.000000053773 Rises=F Damp=F
 DIIS: error= 3.60D-06 at cycle  14 NSaved=  14.
 NSaved=14 IEnMin=14 EnMin= -770.400802130732     IErMin=14 ErrMin= 3.60D-06
 ErrMax= 3.60D-06  0.00D+00 EMaxC= 1.00D-01 BMatC= 2.37D-08 BMatP= 5.91D-08
 IDIUse=1 WtCom= 1.00D+00 WtEn= 0.00D+00
 Coeff-Com: -0.739D-04 0.133D-03-0.201D-03-0.528D-03-0.924D-03-0.185D-04
 Coeff-Com:  0.715D-02 0.133D-01-0.277D-02-0.305D-01-0.159D+00-0.233D-01
 Coeff-Com:  0.522D+00 0.675D+00
 Coeff:     -0.739D-04 0.133D-03-0.201D-03-0.528D-03-0.924D-03-0.185D-04
 Coeff:      0.715D-02 0.133D-01-0.277D-02-0.305D-01-0.159D+00-0.233D-01
 Coeff:      0.522D+00 0.675D+00
 Gap=     0.174 Goal=   None    Shift=    0.000
 Gap=     0.116 Goal=   None    Shift=    0.000
 RMSDP=5.21D-07 MaxDP=2.75D-05 DE=-5.38D-08 OVMax= 8.92D-05

 Cycle  15  Pass 1  IDiag  1:
 RMSU=  2.49D-07    CP:  9.58D-01  2.47D+00  9.23D-01  9.51D-01  1.50D+00
                    CP:  1.49D+00  2.09D+00  1.73D+00  1.98D+00  1.42D+00
                    CP:  1.68D+00  1.45D+00  1.48D+00  1.03D+00
 E= -770.400802145348     Delta-E=       -0.000000014616 Rises=F Damp=F
 DIIS: error= 1.32D-06 at cycle  15 NSaved=  15.
 NSaved=15 IEnMin=15 EnMin= -770.400802145348     IErMin=15 ErrMin= 1.32D-06
 ErrMax= 1.32D-06  0.00D+00 EMaxC= 1.00D-01 BMatC= 3.71D-09 BMatP= 2.37D-08
 IDIUse=1 WtCom= 1.00D+00 WtEn= 0.00D+00
 Coeff-Com: -0.764D-05 0.220D-04 0.221D-03 0.437D-03 0.171D-03-0.145D-02
 Coeff-Com: -0.327D-02-0.171D-02 0.180D-01 0.139D-01-0.456D-01-0.781D-01
 Coeff-Com: -0.552D-01 0.242D+00 0.911D+00
 Coeff:     -0.764D-05 0.220D-04 0.221D-03 0.437D-03 0.171D-03-0.145D-02
 Coeff:     -0.327D-02-0.171D-02 0.180D-01 0.139D-01-0.456D-01-0.781D-01
 Coeff:     -0.552D-01 0.242D+00 0.911D+00
 Gap=     0.174 Goal=   None    Shift=    0.000
 Gap=     0.116 Goal=   None    Shift=    0.000
 RMSDP=2.86D-07 MaxDP=1.84D-05 DE=-1.46D-08 OVMax= 6.17D-05

 Cycle  16  Pass 1  IDiag  1:
 RMSU=  1.24D-07    CP:  9.58D-01  2.47D+00  9.23D-01  9.51D-01  1.50D+00
                    CP:  1.49D+00  2.09D+00  1.73D+00  1.98D+00  1.42D+00
                    CP:  1.70D+00  1.50D+00  1.62D+00  1.32D+00  1.23D+00
 E= -770.400802149215     Delta-E=       -0.000000003867 Rises=F Damp=F
 DIIS: error= 6.38D-07 at cycle  16 NSaved=  16.
 NSaved=16 IEnMin=16 EnMin= -770.400802149215     IErMin=16 ErrMin= 6.38D-07
 ErrMax= 6.38D-07  0.00D+00 EMaxC= 1.00D-01 BMatC= 8.23D-10 BMatP= 3.71D-09
 IDIUse=1 WtCom= 1.00D+00 WtEn= 0.00D+00
 Coeff-Com:  0.863D-05-0.159D-04 0.968D-04 0.237D-03 0.184D-03-0.421D-03
 Coeff-Com: -0.270D-02-0.300D-02 0.641D-02 0.107D-01 0.180D-01-0.164D-01
 Coeff-Com: -0.129D+00-0.717D-01 0.301D+00 0.886D+00
 Coeff:      0.863D-05-0.159D-04 0.968D-04 0.237D-03 0.184D-03-0.421D-03
 Coeff:     -0.270D-02-0.300D-02 0.641D-02 0.107D-01 0.180D-01-0.164D-01
 Coeff:     -0.129D+00-0.717D-01 0.301D+00 0.886D+00
 Gap=     0.174 Goal=   None    Shift=    0.000
 Gap=     0.116 Goal=   None    Shift=    0.000
 RMSDP=1.54D-07 MaxDP=1.08D-05 DE=-3.87D-09 OVMax= 2.78D-05

 Cycle  17  Pass 1  IDiag  1:
 RMSU=  6.16D-08    CP:  9.58D-01  2.47D+00  9.23D-01  9.51D-01  1.50D+00
                    CP:  1.49D+00  2.09D+00  1.73D+00  1.98D+00  1.42D+00
                    CP:  1.70D+00  1.52D+00  1.69D+00  1.45D+00  1.55D+00
                    CP:  1.26D+00
 E= -770.400802150176     Delta-E=       -0.000000000961 Rises=F Damp=F
 DIIS: error= 3.21D-07 at cycle  17 NSaved=  17.
 NSaved=17 IEnMin=17 EnMin= -770.400802150176     IErMin=17 ErrMin= 3.21D-07
 ErrMax= 3.21D-07  0.00D+00 EMaxC= 1.00D-01 BMatC= 2.85D-10 BMatP= 8.23D-10
 IDIUse=1 WtCom= 1.00D+00 WtEn= 0.00D+00
 Coeff-Com:  0.241D-05-0.696D-05-0.864D-05 0.861D-05 0.544D-04 0.201D-03
 Coeff-Com: -0.519D-03-0.109D-02-0.171D-02 0.163D-02 0.228D-01 0.146D-01
 Coeff-Com: -0.529D-01-0.108D+00-0.986D-01 0.464D+00 0.760D+00
 Coeff:      0.241D-05-0.696D-05-0.864D-05 0.861D-05 0.544D-04 0.201D-03
 Coeff:     -0.519D-03-0.109D-02-0.171D-02 0.163D-02 0.228D-01 0.146D-01
 Coeff:     -0.529D-01-0.108D+00-0.986D-01 0.464D+00 0.760D+00
 Gap=     0.174 Goal=   None    Shift=    0.000
 Gap=     0.116 Goal=   None    Shift=    0.000
 RMSDP=8.87D-08 MaxDP=7.46D-06 DE=-9.61D-10 OVMax= 2.29D-05

 Cycle  18  Pass 1  IDiag  1:
 RMSU=  3.21D-08    CP:  9.58D-01  2.47D+00  9.23D-01  9.51D-01  1.50D+00
                    CP:  1.49D+00  2.09D+00  1.73D+00  1.98D+00  1.42D+00
                    CP:  1.70D+00  1.52D+00  1.71D+00  1.52D+00  1.68D+00
                    CP:  1.58D+00  1.08D+00
 E= -770.400802150470     Delta-E=       -0.000000000294 Rises=F Damp=F
 DIIS: error= 1.73D-07 at cycle  18 NSaved=  18.
 NSaved=18 IEnMin=18 EnMin= -770.400802150470     IErMin=18 ErrMin= 1.73D-07
 ErrMax= 1.73D-07  0.00D+00 EMaxC= 1.00D-01 BMatC= 5.07D-11 BMatP= 2.85D-10
 IDIUse=1 WtCom= 1.00D+00 WtEn= 0.00D+00
 Coeff-Com: -0.141D-05 0.135D-05-0.329D-04-0.700D-04-0.337D-04 0.181D-03
 Coeff-Com:  0.613D-03 0.422D-03-0.240D-02-0.257D-02 0.323D-02 0.994D-02
 Coeff-Com:  0.158D-01-0.209D-01-0.126D+00-0.711D-01 0.298D+00 0.895D+00
 Coeff:     -0.141D-05 0.135D-05-0.329D-04-0.700D-04-0.337D-04 0.181D-03
 Coeff:      0.613D-03 0.422D-03-0.240D-02-0.257D-02 0.323D-02 0.994D-02
 Coeff:      0.158D-01-0.209D-01-0.126D+00-0.711D-01 0.298D+00 0.895D+00
 Gap=     0.174 Goal=   None    Shift=    0.000
 Gap=     0.116 Goal=   None    Shift=    0.000
 RMSDP=4.80D-08 MaxDP=3.47D-06 DE=-2.94D-10 OVMax= 1.22D-05

 Cycle  19  Pass 1  IDiag  1:
 RMSU=  1.47D-08    CP:  9.58D-01  2.47D+00  9.23D-01  9.51D-01  1.50D+00
                    CP:  1.49D+00  2.09D+00  1.73D+00  1.98D+00  1.42D+00
                    CP:  1.70D+00  1.53D+00  1.72D+00  1.54D+00  1.76D+00
                    CP:  1.75D+00  1.38D+00  1.11D+00
 E= -770.400802150526     Delta-E=       -0.000000000057 Rises=F Damp=F
 DIIS: error= 9.92D-08 at cycle  19 NSaved=  19.
 NSaved=19 IEnMin=19 EnMin= -770.400802150526     IErMin=19 ErrMin= 9.92D-08
 ErrMax= 9.92D-08  0.00D+00 EMaxC= 1.00D-01 BMatC= 1.39D-11 BMatP= 5.07D-11
 IDIUse=1 WtCom= 1.00D+00 WtEn= 0.00D+00
 Coeff-Com: -0.969D-06 0.161D-05-0.133D-04-0.327D-04-0.187D-04 0.594D-04
 Coeff-Com:  0.371D-03 0.335D-03-0.868D-03-0.144D-02-0.199D-02 0.246D-02
 Coeff-Com:  0.155D-01 0.631D-02-0.437D-01-0.101D+00 0.253D-01 0.434D+00
 Coeff-Com:  0.664D+00
 Coeff:     -0.969D-06 0.161D-05-0.133D-04-0.327D-04-0.187D-04 0.594D-04
 Coeff:      0.371D-03 0.335D-03-0.868D-03-0.144D-02-0.199D-02 0.246D-02
 Coeff:      0.155D-01 0.631D-02-0.437D-01-0.101D+00 0.253D-01 0.434D+00
 Coeff:      0.664D+00
 Gap=     0.174 Goal=   None    Shift=    0.000
 Gap=     0.116 Goal=   None    Shift=    0.000
 RMSDP=1.46D-08 MaxDP=1.13D-06 DE=-5.66D-11 OVMax= 3.91D-06

 Cycle  20  Pass 1  IDiag  1:
 RMSU=  7.35D-09    CP:  9.58D-01  2.47D+00  9.23D-01  9.51D-01  1.50D+00
                    CP:  1.49D+00  2.09D+00  1.73D+00  1.98D+00  1.42D+00
                    CP:  1.70D+00  1.53D+00  1.72D+00  1.55D+00  1.77D+00
                    CP:  1.79D+00  1.43D+00  1.30D+00  9.41D-01
 E= -770.400802150525     Delta-E=        0.000000000001 Rises=F Damp=F
 DIIS: error= 4.25D-08 at cycle  20 NSaved=  20.
 NSaved=20 IEnMin=19 EnMin= -770.400802150526     IErMin=20 ErrMin= 4.25D-08
 ErrMax= 4.25D-08  0.00D+00 EMaxC= 1.00D-01 BMatC= 3.94D-12 BMatP= 1.39D-11
 IDIUse=1 WtCom= 1.00D+00 WtEn= 0.00D+00
 Coeff-Com: -0.673D-08 0.361D-06 0.351D-05 0.426D-05 0.401D-06-0.290D-04
 Coeff-Com:  0.164D-04 0.445D-04 0.327D-03 0.615D-04-0.231D-02-0.196D-02
 Coeff-Com:  0.346D-02 0.103D-01 0.193D-01-0.315D-01-0.911D-01-0.675D-01
 Coeff-Com:  0.377D+00 0.784D+00
 Coeff:     -0.673D-08 0.361D-06 0.351D-05 0.426D-05 0.401D-06-0.290D-04
 Coeff:      0.164D-04 0.445D-04 0.327D-03 0.615D-04-0.231D-02-0.196D-02
 Coeff:      0.346D-02 0.103D-01 0.193D-01-0.315D-01-0.911D-01-0.675D-01
 Coeff:      0.377D+00 0.784D+00
 Gap=     0.174 Goal=   None    Shift=    0.000
 Gap=     0.116 Goal=   None    Shift=    0.000
 RMSDP=8.88D-09 MaxDP=8.28D-07 DE= 1.14D-12 OVMax= 2.67D-06

 Error on total polarization charges =  0.00968
 SCF Done:  E(UB3LYP) =  -770.400802151     A.U. after   20 cycles
            NFock= 20  Conv=0.89D-08     -V/T= 2.0095
 <Sx>= 0.0000 <Sy>= 0.0000 <Sz>= 0.5000 <S**2>= 0.7633 S= 0.5066
 <L.S>=  0.00000000000    
 KE= 7.631763854607D+02 PE=-4.439974515763D+03 EE= 1.581524307801D+03
 Annihilation of the first spin contaminant:
 S**2 before annihilation     0.7633,   after     0.7501
 Leave Link  502 at Sat May 25 00:25:42 2019, MaxMem=   104857600 cpu:            1552.2 elap:              49.3
 (Enter /opt/software/gaussian/g16.b01/l801.exe)
 DoSCS=F DFT=T ScalE2(SS,OS)=  1.000000  1.000000
 ExpMin= 1.61D-01 ExpMax= 5.48D+03 ExpMxC= 8.25D+02 IAcc=3 IRadAn=         5 AccDes= 0.00D+00
 HarFok:  IExCor=  205 AccDes= 0.00D+00 IRadAn=         5 IDoV=-2 UseB2=F ITyADJ=14
 ICtDFT= 12500011 ScaDFX=  1.000000  1.000000  1.000000  1.000000
 Largest valence mixing into a core orbital is  5.94D-05
 Largest core mixing into a valence orbital is  1.20D-05
 Largest valence mixing into a core orbital is  6.44D-05
 Largest core mixing into a valence orbital is  1.21D-05
 Range of M.O.s used for correlation:    19   355
 NBasis=   355 NAE=    65 NBE=    64 NFC=    18 NFV=     0
 NROrb=    337 NOA=    47 NOB=    46 NVA=   290 NVB=   291
 Leave Link  801 at Sat May 25 00:25:42 2019, MaxMem=   104857600 cpu:               3.9 elap:               0.2
 (Enter /opt/software/gaussian/g16.b01/l914.exe)
 UHF ground state
 Ignoring spin specification with unrestricted ground state.
 Two-electron integrals replicated using symmetry.
 MDV=   104857600 DFT=T DoStab=F Mixed=T DoRPA=T DoScal=F NonHer=T
 NEqPCM:  Using non-equilibrium solvation (IEInf=1, Eps=  35.6880, EpsInf=   1.8069)
 Inv3:  Mode=1 IEnd=    17251212.
 Iteration    1 A*A^-1 deviation from unit magnitude is 3.44D-15 for   1377.
 Iteration    1 A*A^-1 deviation from orthogonality  is 2.48D-15 for   1208    595.
 Iteration    1 A^-1*A deviation from unit magnitude is 3.44D-15 for   1377.
 Iteration    1 A^-1*A deviation from orthogonality  is 8.31D-15 for   1242   1209.
 Making orbital integer symmetry assigments:
 Orbital symmetries:
 Alpha Orbitals:
       Occupied  (A) (A) (A) (A) (A) (A) (A) (A) (A) (A) (A) (A)
                 (A) (A) (A) (A) (A) (A) (A) (A) (A) (A) (A) (A)
                 (A) (A) (A) (A) (A) (A) (A) (A) (A) (A) (A) (A)
                 (A) (A) (A) (A) (A) (A) (A) (A) (A) (A) (A) (A)
                 (A) (A) (A) (A) (A) (A) (A) (A) (A) (A) (A) (A)
                 (A) (A) (A) (A) (A)
       Virtual   (A) (A) (A) (A) (A) (A) (A) (A) (A) (A) (A) (A)
                 (A) (A) (A) (A) (A) (A) (A) (A) (A) (A) (A) (A)
                 (A) (A) (A) (A) (A) (A) (A) (A) (A) (A) (A) (A)
                 (A) (A) (A) (A) (A) (A) (A) (A) (A) (A) (A) (A)
                 (A) (A) (A) (A) (A) (A) (A) (A) (A) (A) (A) (A)
                 (A) (A) (A) (A) (A) (A) (A) (A) (A) (A) (A) (A)
                 (A) (A) (A) (A) (A) (A) (A) (A) (A) (A) (A) (A)
                 (A) (A) (A) (A) (A) (A) (A) (A) (A) (A) (A) (A)
                 (A) (A) (A) (A) (A) (A) (A) (A) (A) (A) (A) (A)
                 (A) (A) (A) (A) (A) (A) (A) (A) (A) (A) (A) (A)
                 (A) (A) (A) (A) (A) (A) (A) (A) (A) (A) (A) (A)
                 (A) (A) (A) (A) (A) (A) (A) (A) (A) (A) (A) (A)
                 (A) (A) (A) (A) (A) (A) (A) (A) (A) (A) (A) (A)
                 (A) (A) (A) (A) (A) (A) (A) (A) (A) (A) (A) (A)
                 (A) (A) (A) (A) (A) (A) (A) (A) (A) (A) (A) (A)
                 (A) (A) (A) (A) (A) (A) (A) (A) (A) (A) (A) (A)
                 (A) (A) (A) (A) (A) (A) (A) (A) (A) (A) (A) (A)
                 (A) (A) (A) (A) (A) (A) (A) (A) (A) (A) (A) (A)
                 (A) (A) (A) (A) (A) (A) (A) (A) (A) (A) (A) (A)
                 (A) (A) (A) (A) (A) (A) (A) (A) (A) (A) (A) (A)
                 (A) (A) (A) (A) (A) (A) (A) (A) (A) (A) (A) (A)
                 (A) (A) (A) (A) (A) (A) (A) (A) (A) (A) (A) (A)
                 (A) (A) (A) (A) (A) (A) (A) (A) (A) (A) (A) (A)
                 (A) (A) (A) (A) (A) (A) (A) (A) (A) (A) (A) (A)
                 (A) (A)
 Beta  Orbitals:
       Occupied  (A) (A) (A) (A) (A) (A) (A) (A) (A) (A) (A) (A)
                 (A) (A) (A) (A) (A) (A) (A) (A) (A) (A) (A) (A)
                 (A) (A) (A) (A) (A) (A) (A) (A) (A) (A) (A) (A)
                 (A) (A) (A) (A) (A) (A) (A) (A) (A) (A) (A) (A)
                 (A) (A) (A) (A) (A) (A) (A) (A) (A) (A) (A) (A)
                 (A) (A) (A) (A)
       Virtual   (A) (A) (A) (A) (A) (A) (A) (A) (A) (A) (A) (A)
                 (A) (A) (A) (A) (A) (A) (A) (A) (A) (A) (A) (A)
                 (A) (A) (A) (A) (A) (A) (A) (A) (A) (A) (A) (A)
                 (A) (A) (A) (A) (A) (A) (A) (A) (A) (A) (A) (A)
                 (A) (A) (A) (A) (A) (A) (A) (A) (A) (A) (A) (A)
                 (A) (A) (A) (A) (A) (A) (A) (A) (A) (A) (A) (A)
                 (A) (A) (A) (A) (A) (A) (A) (A) (A) (A) (A) (A)
                 (A) (A) (A) (A) (A) (A) (A) (A) (A) (A) (A) (A)
                 (A) (A) (A) (A) (A) (A) (A) (A) (A) (A) (A) (A)
                 (A) (A) (A) (A) (A) (A) (A) (A) (A) (A) (A) (A)
                 (A) (A) (A) (A) (A) (A) (A) (A) (A) (A) (A) (A)
                 (A) (A) (A) (A) (A) (A) (A) (A) (A) (A) (A) (A)
                 (A) (A) (A) (A) (A) (A) (A) (A) (A) (A) (A) (A)
                 (A) (A) (A) (A) (A) (A) (A) (A) (A) (A) (A) (A)
                 (A) (A) (A) (A) (A) (A) (A) (A) (A) (A) (A) (A)
                 (A) (A) (A) (A) (A) (A) (A) (A) (A) (A) (A) (A)
                 (A) (A) (A) (A) (A) (A) (A) (A) (A) (A) (A) (A)
                 (A) (A) (A) (A) (A) (A) (A) (A) (A) (A) (A) (A)
                 (A) (A) (A) (A) (A) (A) (A) (A) (A) (A) (A) (A)
                 (A) (A) (A) (A) (A) (A) (A) (A) (A) (A) (A) (A)
                 (A) (A) (A) (A) (A) (A) (A) (A) (A) (A) (A) (A)
                 (A) (A) (A) (A) (A) (A) (A) (A) (A) (A) (A) (A)
                 (A) (A) (A) (A) (A) (A) (A) (A) (A) (A) (A) (A)
                 (A) (A) (A) (A) (A) (A) (A) (A) (A) (A) (A) (A)
                 (A) (A) (A)
   144 initial guesses have been made.
 Convergence on wavefunction:    0.001000000000000
 Davidson Disk Diagonalization:  ConvIn= 1.00D-03 SkipCon=T Conv= 1.00D-03.
 Max sub-space:  2160 roots to seek:   144 dimension of matrix:        27016
 Iteration     1 Dimension   144 NMult     0 NNew    144
 CISAX will form     3 AO SS matrices at one time.
 NMat=     3 NSing=     3 JSym2X= 0.
 FoFJK:  IHMeth= 1 ICntrl=       0 DoSepK=F KAlg= 0 I1Cent=           0 FoldK=F
 IRaf= 840000000 NMat=       6 IRICut=       1 DoRegI=T DoRafI=F ISym2E= 0 IDoP0=0 IntGTp=1.
 NMat=     3 NSing=     3 JSym2X= 0.
 NMat=     3 NSing=     3 JSym2X= 0.
 NMat=     3 NSing=     3 JSym2X= 0.
 NMat=     3 NSing=     3 JSym2X= 0.
 NMat=     3 NSing=     3 JSym2X= 0.
 NMat=     3 NSing=     3 JSym2X= 0.
 NMat=     3 NSing=     3 JSym2X= 0.
 NMat=     3 NSing=     3 JSym2X= 0.
 NMat=     3 NSing=     3 JSym2X= 0.
 NMat=     3 NSing=     3 JSym2X= 0.
 NMat=     3 NSing=     3 JSym2X= 0.
 NMat=     3 NSing=     3 JSym2X= 0.
 NMat=     3 NSing=     3 JSym2X= 0.
 NMat=     3 NSing=     3 JSym2X= 0.
 NMat=     3 NSing=     3 JSym2X= 0.
 NMat=     3 NSing=     3 JSym2X= 0.
 NMat=     3 NSing=     3 JSym2X= 0.
 NMat=     3 NSing=     3 JSym2X= 0.
 NMat=     3 NSing=     3 JSym2X= 0.
 NMat=     3 NSing=     3 JSym2X= 0.
 NMat=     3 NSing=     3 JSym2X= 0.
 NMat=     3 NSing=     3 JSym2X= 0.
 NMat=     3 NSing=     3 JSym2X= 0.
 NMat=     3 NSing=     3 JSym2X= 0.
 NMat=     3 NSing=     3 JSym2X= 0.
 NMat=     3 NSing=     3 JSym2X= 0.
 NMat=     3 NSing=     3 JSym2X= 0.
 NMat=     3 NSing=     3 JSym2X= 0.
 NMat=     3 NSing=     3 JSym2X= 0.
 NMat=     3 NSing=     3 JSym2X= 0.
 NMat=     3 NSing=     3 JSym2X= 0.
 NMat=     3 NSing=     3 JSym2X= 0.
 NMat=     3 NSing=     3 JSym2X= 0.
 NMat=     3 NSing=     3 JSym2X= 0.
 NMat=     3 NSing=     3 JSym2X= 0.
 NMat=     3 NSing=     3 JSym2X= 0.
 NMat=     3 NSing=     3 JSym2X= 0.
 NMat=     3 NSing=     3 JSym2X= 0.
 NMat=     3 NSing=     3 JSym2X= 0.
 NMat=     3 NSing=     3 JSym2X= 0.
 NMat=     3 NSing=     3 JSym2X= 0.
 NMat=     3 NSing=     3 JSym2X= 0.
 NMat=     3 NSing=     3 JSym2X= 0.
 NMat=     3 NSing=     3 JSym2X= 0.
 NMat=     3 NSing=     3 JSym2X= 0.
 NMat=     3 NSing=     3 JSym2X= 0.
 NMat=     3 NSing=     3 JSym2X= 0.
 New state      6 was old state      7
 New state      7 was old state      9
 New state      9 was old state     17
 New state     10 was old state     40
 New state     11 was old state      6
 New state     12 was old state     11
 New state     13 was old state     44
 New state     14 was old state     15
 New state     15 was old state     10
 New state     16 was old state     19
 New state     17 was old state     13
 New state     18 was old state     23
 New state     19 was old state     14
 New state     20 was old state     16
 New state     21 was old state     18
 New state     22 was old state     41
 New state     23 was old state     24
 New state     24 was old state     21
 New state     25 was old state     20
 New state     26 was old state     25
 New state     27 was old state     29
 New state     28 was old state     22
 New state     29 was old state     30
 New state     30 was old state     32
 New state     31 was old state     33
 New state     32 was old state     35
 New state     33 was old state     31
 New state     34 was old state     36
 New state     35 was old state     38
 New state     36 was old state     45
 Excitation Energies [eV] at current iteration:
 Root      1 :     1.535538659177434
 Root      2 :     2.604765152385703
 Root      3 :     2.699245361154975
 Root      4 :     2.931759992384524
 Root      5 :     3.189248909454463
 Root      6 :     3.771308037459494
 Root      7 :     4.027706500105661
 Root      8 :     4.291116996708427
 Root      9 :     4.318288449576558
 Root     10 :     4.443316485246950
 Root     11 :     4.586603119242768
 Root     12 :     4.620799340923631
 Root     13 :     4.735320308565445
 Root     14 :     4.765880779847030
 Root     15 :     4.830284188649217
 Root     16 :     4.916610981851217
 Root     17 :     5.009879490848550
 Root     18 :     5.027291534510571
 Root     19 :     5.063546107014284
 Root     20 :     5.137258729207298
 Root     21 :     5.163748099837665
 Root     22 :     5.173867948796988
 Root     23 :     5.216005524150606
 Root     24 :     5.378534678157210
 Root     25 :     5.444038333481904
 Root     26 :     5.447953813101792
 Root     27 :     5.546014016910074
 Root     28 :     5.595090284849710
 Root     29 :     5.731761387205629
 Root     30 :     5.775595309127442
 Root     31 :     5.788278540772032
 Root     32 :     5.807864298809524
 Root     33 :     5.870340634510690
 Root     34 :     5.879046559558781
 Root     35 :     5.889516166062906
 Root     36 :     5.916745825699699
 Root     37 :     5.958185924530908
 Root     38 :     5.992819606086166
 Root     39 :     6.014402087827554
 Root     40 :     6.033625596275450
 Root     41 :     6.049161320462686
 Root     42 :     6.057478696550491
 Root     43 :     6.131373886227279
 Root     44 :     6.149758115564794
 Root     45 :     6.157166864970244
 Root     46 :     6.175027896731938
 Root     47 :     6.279627528161394
 Root     48 :     6.306041647291673
 Root     49 :     6.344768036502980
 Root     50 :     6.385428885853501
 Root     51 :     6.413587470319941
 Root     52 :     6.421531285471999
 Root     53 :     6.476262672915289
 Root     54 :     6.560384429227804
 Root     55 :     6.656979251104230
 Root     56 :     6.685182266698190
 Root     57 :     6.757595769122752
 Root     58 :     6.838578246877356
 Root     59 :     6.918910773840276
 Root     60 :     6.947823981555334
 Root     61 :     7.040192443449517
 Root     62 :     7.077619798972574
 Root     63 :     7.194544857561262
 Root     64 :     7.231936476939225
 Root     65 :     7.290688680207822
 Root     66 :     7.319521227288591
 Root     67 :     7.325164307399009
 Root     68 :     7.345808054446078
 Root     69 :     7.388134436850585
 Root     70 :     7.448148360962029
 Root     71 :     7.461943171043390
 Root     72 :     7.478472444693352
 Root     73 :     7.488148084328212
 Root     74 :     7.517827632795851
 Root     75 :     7.532017409769746
 Root     76 :     7.548923457414082
 Root     77 :     7.612668317876520
 Root     78 :     7.634220110133563
 Root     79 :     7.648714548783008
 Root     80 :     7.665493900618694
 Root     81 :     7.732218217186363
 Root     82 :     7.741218368197939
 Root     83 :     7.770595692379255
 Root     84 :     7.804743052679294
 Root     85 :     7.826994402563261
 Root     86 :     7.860766555972808
 Root     87 :     7.869633996897838
 Root     88 :     7.881652085446571
 Root     89 :     7.891581478457041
 Root     90 :     7.918998609886892
 Root     91 :     7.943581739157517
 Root     92 :     7.973447559361104
 Root     93 :     7.978134391265649
 Root     94 :     7.981461967111517
 Root     95 :     8.019876437635940
 Root     96 :     8.035053885683308
 Root     97 :     8.053979325226331
 Root     98 :     8.099757916715234
 Root     99 :     8.107057942856887
 Root    100 :     8.126110963049127
 Root    101 :     8.138279439153374
 Root    102 :     8.162427744672636
 Root    103 :     8.197742596250626
 Root    104 :     8.213929112622397
 Root    105 :     8.230923112590611
 Root    106 :     8.246524077758647
 Root    107 :     8.261002338635077
 Root    108 :     8.263675209239127
 Root    109 :     8.279022668969434
 Root    110 :     8.291903556162190
 Root    111 :     8.306921221082495
 Root    112 :     8.322718615632262
 Root    113 :     8.327493507654273
 Root    114 :     8.351937495354800
 Root    115 :     8.383363450100724
 Root    116 :     8.389611570048807
 Root    117 :     8.400455828537970
 Root    118 :     8.415628480471167
 Root    119 :     8.441433504101727
 Root    120 :     8.454275208592875
 Root    121 :     8.467875717712355
 Root    122 :     8.490892270371814
 Root    123 :     8.498315444294221
 Root    124 :     8.513473630050099
 Root    125 :     8.516070058341725
 Root    126 :     8.528753219879563
 Root    127 :     8.536560539535996
 Root    128 :     8.570124110110168
 Root    129 :     8.587048741201356
 Root    130 :     8.592279147611197
 Root    131 :     8.611044577458459
 Root    132 :     8.628936866836385
 Root    133 :     8.651916811584266
 Root    134 :     8.669861473559006
 Root    135 :     8.707041176641978
 Root    136 :     8.738076951737696
 Root    137 :     8.759690082103072
 Root    138 :     8.776031525076178
 Root    139 :     8.800335419365069
 Root    140 :     8.819952946470984
 Root    141 :     8.993059931205643
 Root    142 :     9.139240505688205
 Root    143 :     9.244660670275916
 Root    144 :     9.348943091014039
 Iteration     2 Dimension   216 NMult   144 NNew     72
 CISAX will form     3 AO SS matrices at one time.
 NMat=     3 NSing=     3 JSym2X= 0.
 NMat=     3 NSing=     3 JSym2X= 0.
 NMat=     3 NSing=     3 JSym2X= 0.
 NMat=     3 NSing=     3 JSym2X= 0.
 NMat=     3 NSing=     3 JSym2X= 0.
 NMat=     3 NSing=     3 JSym2X= 0.
 NMat=     3 NSing=     3 JSym2X= 0.
 NMat=     3 NSing=     3 JSym2X= 0.
 NMat=     3 NSing=     3 JSym2X= 0.
 NMat=     3 NSing=     3 JSym2X= 0.
 NMat=     3 NSing=     3 JSym2X= 0.
 NMat=     3 NSing=     3 JSym2X= 0.
 NMat=     3 NSing=     3 JSym2X= 0.
 NMat=     3 NSing=     3 JSym2X= 0.
 NMat=     3 NSing=     3 JSym2X= 0.
 NMat=     3 NSing=     3 JSym2X= 0.
 NMat=     3 NSing=     3 JSym2X= 0.
 NMat=     3 NSing=     3 JSym2X= 0.
 NMat=     3 NSing=     3 JSym2X= 0.
 NMat=     3 NSing=     3 JSym2X= 0.
 NMat=     3 NSing=     3 JSym2X= 0.
 NMat=     3 NSing=     3 JSym2X= 0.
 NMat=     3 NSing=     3 JSym2X= 0.
 NMat=     3 NSing=     3 JSym2X= 0.
 Root      1 not converged, maximum delta is    0.034621790914135
 Root      2 not converged, maximum delta is    0.429568197034357
 Root      3 not converged, maximum delta is    0.392937903191273
 Root      4 not converged, maximum delta is    0.228278153841417
 Root      5 not converged, maximum delta is    0.222482331521040
 Root      6 not converged, maximum delta is    0.095231933954991
 Root      7 not converged, maximum delta is    0.273210038229690
 Root      8 not converged, maximum delta is    0.554764971886963
 New state      9 was old state     10
 Root      9 not converged, maximum delta is    0.298225201172802
 New state     10 was old state      9
 Root     10 not converged, maximum delta is    0.214974523616776
 Root     11 not converged, maximum delta is    0.268283711605264
 Root     12 not converged, maximum delta is    0.194006247497959
 Root     13 not converged, maximum delta is    0.244982060679143
 Root     14 not converged, maximum delta is    0.263291418497854
 Root     15 not converged, maximum delta is    0.357068396278500
 Root     16 not converged, maximum delta is    0.187119566625801
 Root     17 not converged, maximum delta is    0.186657940762882
 Root     18 not converged, maximum delta is    0.058745414069648
 Root     19 not converged, maximum delta is    0.112922309673068
 Root     20 not converged, maximum delta is    0.228944855570772
 Root     21 not converged, maximum delta is    0.148158084496334
 Root     22 not converged, maximum delta is    0.346809446750981
 Root     23 not converged, maximum delta is    0.089866596755785
 Root     24 not converged, maximum delta is    0.088161495427914
 New state     25 was old state     26
 Root     25 not converged, maximum delta is    0.125191837993042
 New state     26 was old state     25
 Root     26 not converged, maximum delta is    0.147323604443037
 Root     27 not converged, maximum delta is    0.110054415205233
 Root     28 not converged, maximum delta is    0.139954066606423
 New state     29 was old state     30
 Root     29 not converged, maximum delta is    0.409391196675313
 New state     30 was old state     29
 Root     30 not converged, maximum delta is    0.299645308748861
 Root     31 not converged, maximum delta is    0.442976959397921
 Root     32 not converged, maximum delta is    0.450573453139272
 New state     33 was old state     34
 Root     33 not converged, maximum delta is    0.543772787102043
 New state     34 was old state     33
 Root     34 not converged, maximum delta is    0.337893676913576
 New state     35 was old state     37
 Root     35 not converged, maximum delta is    0.472488201723954
 New state     36 was old state     35
 Root     36 not converged, maximum delta is    0.298145623667776
 Excitation Energies [eV] at current iteration:
 Root      1 :     1.447940363325814   Change is   -0.087598295851620
 Root      2 :     2.440021521312952   Change is   -0.164743631072751
 Root      3 :     2.623311235008205   Change is   -0.075934126146770
 Root      4 :     2.835322114788581   Change is   -0.096437877595943
 Root      5 :     3.033646991549563   Change is   -0.155601917904900
 Root      6 :     3.515841882475216   Change is   -0.255466154984278
 Root      7 :     3.746219763829117   Change is   -0.281486736276545
 Root      8 :     3.948820988791217   Change is   -0.342296007917209
 Root      9 :     4.132366135449579   Change is   -0.310950349797370
 Root     10 :     4.254686622284776   Change is   -0.063601827291782
 Root     11 :     4.308868369589121   Change is   -0.277734749653646
 Root     12 :     4.562110077815733   Change is   -0.058689263107897
 Root     13 :     4.627184714587317   Change is   -0.108135593978128
 Root     14 :     4.717010437645929   Change is   -0.048870342201100
 Root     15 :     4.758360602683623   Change is   -0.071923585965593
 Root     16 :     4.856423618263742   Change is   -0.060187363587475
 Root     17 :     4.929836866486501   Change is   -0.080042624362049
 Root     18 :     4.982216422654433   Change is   -0.045075111856138
 Root     19 :     5.020595628143093   Change is   -0.042950478871191
 Root     20 :     5.055352957508046   Change is   -0.081905771699252
 Root     21 :     5.118467313365019   Change is   -0.045280786472647
 Root     22 :     5.132277416812941   Change is   -0.041590531984047
 Root     23 :     5.179082644408333   Change is   -0.036922879742273
 Root     24 :     5.321224387419887   Change is   -0.057310290737322
 Root     25 :     5.349458309151546   Change is   -0.098495503950246
 Root     26 :     5.418828932525311   Change is   -0.025209400956594
 Root     27 :     5.519289938709832   Change is   -0.026724078200241
 Root     28 :     5.535592261619654   Change is   -0.059498023230056
 Root     29 :     5.634143003639987   Change is   -0.141452305487455
 Root     30 :     5.717073221442627   Change is   -0.014688165763002
 Root     31 :     5.723779340062510   Change is   -0.064499200709522
 Root     32 :     5.756234129291648   Change is   -0.051630169517876
 Root     33 :     5.782010521823898   Change is   -0.097036037734884
 Root     34 :     5.832214335723543   Change is   -0.038126298787148
 Root     35 :     5.859539066431162   Change is   -0.098646858099747
 Root     36 :     5.875102732135267   Change is   -0.014413433927639
 Iteration     3 Dimension   288 NMult   216 NNew     72
 CISAX will form     3 AO SS matrices at one time.
 NMat=     3 NSing=     3 JSym2X= 0.
 NMat=     3 NSing=     3 JSym2X= 0.
 NMat=     3 NSing=     3 JSym2X= 0.
 NMat=     3 NSing=     3 JSym2X= 0.
 NMat=     3 NSing=     3 JSym2X= 0.
 NMat=     3 NSing=     3 JSym2X= 0.
 NMat=     3 NSing=     3 JSym2X= 0.
 NMat=     3 NSing=     3 JSym2X= 0.
 NMat=     3 NSing=     3 JSym2X= 0.
 NMat=     3 NSing=     3 JSym2X= 0.
 NMat=     3 NSing=     3 JSym2X= 0.
 NMat=     3 NSing=     3 JSym2X= 0.
 NMat=     3 NSing=     3 JSym2X= 0.
 NMat=     3 NSing=     3 JSym2X= 0.
 NMat=     3 NSing=     3 JSym2X= 0.
 NMat=     3 NSing=     3 JSym2X= 0.
 NMat=     3 NSing=     3 JSym2X= 0.
 NMat=     3 NSing=     3 JSym2X= 0.
 NMat=     3 NSing=     3 JSym2X= 0.
 NMat=     3 NSing=     3 JSym2X= 0.
 NMat=     3 NSing=     3 JSym2X= 0.
 NMat=     3 NSing=     3 JSym2X= 0.
 NMat=     3 NSing=     3 JSym2X= 0.
 NMat=     3 NSing=     3 JSym2X= 0.
 Root      1 not converged, maximum delta is    0.002889841165461
 Root      2 not converged, maximum delta is    0.015613510530270
 Root      3 not converged, maximum delta is    0.015890579498110
 Root      4 not converged, maximum delta is    0.009264677103701
 Root      5 not converged, maximum delta is    0.009025519878730
 Root      6 not converged, maximum delta is    0.009404553218149
 Root      7 not converged, maximum delta is    0.020468748970393
 Root      8 not converged, maximum delta is    0.016696658990865
 Root      9 not converged, maximum delta is    0.020942550143531
 Root     10 not converged, maximum delta is    0.016610461115081
 Root     11 not converged, maximum delta is    0.024173478241464
 Root     12 not converged, maximum delta is    0.003886335112478
 Root     13 not converged, maximum delta is    0.012106921074702
 Root     14 not converged, maximum delta is    0.017487333839909
 Root     15 not converged, maximum delta is    0.022840612683796
 Root     16 not converged, maximum delta is    0.007571284436784
 Root     17 not converged, maximum delta is    0.005983885830806
 Root     18 not converged, maximum delta is    0.003439028397561
 Root     19 not converged, maximum delta is    0.006938510554905
 Root     20 not converged, maximum delta is    0.012477554139966
 Root     21 not converged, maximum delta is    0.010003411696644
 Root     22 not converged, maximum delta is    0.004052528796789
 Root     23 not converged, maximum delta is    0.002668650371931
 Root     24 not converged, maximum delta is    0.069055169991138
 Root     25 not converged, maximum delta is    0.043023024572182
 Root     26 not converged, maximum delta is    0.005975027820504
 Root     27 not converged, maximum delta is    0.005261676350402
 Root     28 not converged, maximum delta is    0.021624900804821
 Root     29 not converged, maximum delta is    0.038809474260959
 New state     30 was old state     31
 Root     30 not converged, maximum delta is    0.186152958703088
 New state     31 was old state     30
 Root     31 not converged, maximum delta is    0.211058171620920
 Root     32 not converged, maximum delta is    0.065553215977589
 Root     33 not converged, maximum delta is    0.040037758524814
 Root     34 not converged, maximum delta is    0.345112711402309
 Root     35 not converged, maximum delta is    0.322056332718853
 Root     36 not converged, maximum delta is    0.044786786926363
 Excitation Energies [eV] at current iteration:
 Root      1 :     1.444834263849165   Change is   -0.003106099476650
 Root      2 :     2.428597665502402   Change is   -0.011423855810549
 Root      3 :     2.618943867360574   Change is   -0.004367367647630
 Root      4 :     2.827728897361598   Change is   -0.007593217426983
 Root      5 :     3.024283542087692   Change is   -0.009363449461871
 Root      6 :     3.502328426469331   Change is   -0.013513456005885
 Root      7 :     3.731231181302418   Change is   -0.014988582526699
 Root      8 :     3.938285949423344   Change is   -0.010535039367874
 Root      9 :     4.117506820303482   Change is   -0.014859315146098
 Root     10 :     4.252388314799628   Change is   -0.002298307485148
 Root     11 :     4.295921791068799   Change is   -0.012946578520323
 Root     12 :     4.560317156091740   Change is   -0.001792921723993
 Root     13 :     4.622766830455668   Change is   -0.004417884131649
 Root     14 :     4.714608252214639   Change is   -0.002402185431291
 Root     15 :     4.756421017951980   Change is   -0.001939584731644
 Root     16 :     4.854493024973141   Change is   -0.001930593290601
 Root     17 :     4.924467267012099   Change is   -0.005369599474401
 Root     18 :     4.980573833194330   Change is   -0.001642589460103
 Root     19 :     5.018939548100738   Change is   -0.001656080042356
 Root     20 :     5.052314307610075   Change is   -0.003038649897971
 Root     21 :     5.114930795325082   Change is   -0.003536518039937
 Root     22 :     5.130222788437965   Change is   -0.002054628374975
 Root     23 :     5.178129326327634   Change is   -0.000953318080699
 Root     24 :     5.318442127509580   Change is   -0.002782259910308
 Root     25 :     5.341343990739598   Change is   -0.008114318411948
 Root     26 :     5.417711815512252   Change is   -0.001117117013059
 Root     27 :     5.518025175483607   Change is   -0.001264763226225
 Root     28 :     5.531727204031415   Change is   -0.003865057588239
 Root     29 :     5.623580530937426   Change is   -0.010562472702560
 Root     30 :     5.711439151277924   Change is   -0.012340188784586
 Root     31 :     5.714526516875896   Change is   -0.002546704566731
 Root     32 :     5.753634039470426   Change is   -0.002600089821222
 Root     33 :     5.773453338037812   Change is   -0.008557183786085
 Root     34 :     5.824410138256716   Change is   -0.007804197466827
 Root     35 :     5.833385260198703   Change is   -0.026153806232458
 Root     36 :     5.873734503394910   Change is   -0.001368228740356
 Iteration     4 Dimension   360 NMult   288 NNew     72
 CISAX will form     3 AO SS matrices at one time.
 NMat=     3 NSing=     3 JSym2X= 0.
 NMat=     3 NSing=     3 JSym2X= 0.
 NMat=     3 NSing=     3 JSym2X= 0.
 NMat=     3 NSing=     3 JSym2X= 0.
 NMat=     3 NSing=     3 JSym2X= 0.
 NMat=     3 NSing=     3 JSym2X= 0.
 NMat=     3 NSing=     3 JSym2X= 0.
 NMat=     3 NSing=     3 JSym2X= 0.
 NMat=     3 NSing=     3 JSym2X= 0.
 NMat=     3 NSing=     3 JSym2X= 0.
 NMat=     3 NSing=     3 JSym2X= 0.
 NMat=     3 NSing=     3 JSym2X= 0.
 NMat=     3 NSing=     3 JSym2X= 0.
 NMat=     3 NSing=     3 JSym2X= 0.
 NMat=     3 NSing=     3 JSym2X= 0.
 NMat=     3 NSing=     3 JSym2X= 0.
 NMat=     3 NSing=     3 JSym2X= 0.
 NMat=     3 NSing=     3 JSym2X= 0.
 NMat=     3 NSing=     3 JSym2X= 0.
 NMat=     3 NSing=     3 JSym2X= 0.
 NMat=     3 NSing=     3 JSym2X= 0.
 NMat=     3 NSing=     3 JSym2X= 0.
 NMat=     3 NSing=     3 JSym2X= 0.
 NMat=     3 NSing=     3 JSym2X= 0.
 Root      1 has converged.
[...]
    10  H   -0.000046   0.000000  -0.000000   0.000000  -0.000006   0.000000
    11  H    0.001129  -0.000002   0.000001  -0.000006   0.000016  -0.000006
    12  C    0.000422  -0.000001  -0.000001  -0.000010   0.000020  -0.000004
    13  C    0.000070  -0.000000  -0.000000  -0.000000  -0.000004  -0.000000
    14  C    0.001323  -0.000001   0.000000  -0.000021   0.000026  -0.000021
    15  C   -0.000004   0.000000   0.000000   0.000000   0.000001   0.000000
    16  H   -0.000000   0.000000  -0.000000   0.000000  -0.000000   0.000000
    17  C   -0.000022   0.000000   0.000000   0.000000  -0.000012  -0.000000
    18  H   -0.000068  -0.000002  -0.000000  -0.000068   0.000003   0.000013
    19  C   -0.000025   0.000000  -0.000000   0.000000   0.000001   0.000000
    20  H   -0.000000   0.000000   0.000000   0.000000   0.000000   0.000000
    21  H   -0.000014   0.000000   0.000000   0.000000   0.000000   0.000001
    22  H    0.000000  -0.000000  -0.000000  -0.000000  -0.000000  -0.000000
    23  C    0.003603   0.000010   0.000485   0.000565   0.000172  -0.000666
    24  C    0.002236  -0.002117   0.000320  -0.000007  -0.000016  -0.004352
    25  C    0.108167  -0.000026   0.000005  -0.002348   0.000532  -0.004139
    26  C   -0.000026  -0.055435   0.000236  -0.000058  -0.000010   0.001463
    27  H    0.000005   0.000236  -0.005343  -0.000010   0.000001  -0.000002
    28  C   -0.002348  -0.000058  -0.000010  -0.056176   0.000243   0.001609
    29  H    0.000532  -0.000010   0.000001   0.000243  -0.005278   0.000001
    30  C   -0.004139   0.001463  -0.000002   0.001609   0.000001   0.119640
    31  H   -0.000012   0.000130   0.000023   0.000007  -0.000000  -0.000285
    32  H   -0.000227   0.000009  -0.000000   0.000241   0.000017  -0.000236
    33  H    0.000018   0.000019   0.000001   0.000034   0.000001   0.000569
    34  O    0.000128   0.000001  -0.000080  -0.000000   0.000002  -0.000001
    35  H   -0.000008   0.000002  -0.000010  -0.000000  -0.000000   0.000000
              31         32         33         34         35
     1  C    0.000000   0.000000  -0.000000  -0.004627  -0.004360
     2  C    0.000001   0.000002  -0.000000  -0.049809  -0.008485
     3  O   -0.000000  -0.000000   0.000000   0.004076   0.006230
     4  C   -0.000000  -0.000000   0.000000   0.002422   0.001163
     5  H    0.000000   0.000000  -0.000000  -0.000151  -0.000109
     6  H    0.000000   0.000000  -0.000000  -0.000126  -0.000028
     7  H   -0.000001  -0.000000   0.000000   0.001252   0.000632
     8  C   -0.000000  -0.000001   0.000000  -0.000393   0.001935
     9  H   -0.000000  -0.000000   0.000000  -0.000048  -0.000013
    10  H   -0.000000  -0.000000   0.000000  -0.000702   0.000877
    11  H    0.000000   0.000000  -0.000000   0.001993  -0.000561
    12  C   -0.000000   0.000000   0.000000   0.000370   0.000288
    13  C   -0.000000  -0.000000   0.000000   0.000004   0.000018
    14  C   -0.000000  -0.000005   0.000000   0.000001   0.000003
    15  C    0.000000   0.000000  -0.000000  -0.000000   0.000000
    16  H    0.000000   0.000000  -0.000000  -0.000001   0.000000
    17  C   -0.000000  -0.000000   0.000000  -0.000000  -0.000000
    18  H    0.000000  -0.000000  -0.000000  -0.000000   0.000000
    19  C    0.000000   0.000000  -0.000000  -0.000000  -0.000000
    20  H    0.000000   0.000000  -0.000000  -0.000000  -0.000000
    21  H    0.000000   0.000000  -0.000000  -0.000000  -0.000000
    22  H   -0.000000  -0.000000   0.000000   0.000000   0.000000
    23  C    0.000050   0.000009  -0.000027   0.004512   0.000702
    24  C   -0.000190  -0.000011   0.000014   0.001052   0.000030
    25  C   -0.000012  -0.000227   0.000018   0.000128  -0.000008
    26  C    0.000130   0.000009   0.000019   0.000001   0.000002
    27  H    0.000023  -0.000000   0.000001  -0.000080  -0.000010
    28  C    0.000007   0.000241   0.000034  -0.000000  -0.000000
    29  H   -0.000000   0.000017   0.000001   0.000002  -0.000000
    30  C   -0.000285  -0.000236   0.000569  -0.000001   0.000000
    31  H    0.002320  -0.000000   0.000013  -0.000000  -0.000000
    32  H   -0.000000   0.002166   0.000018  -0.000000  -0.000000
    33  H    0.000013   0.000018  -0.005679   0.000000   0.000000
    34  O   -0.000000  -0.000000   0.000000   0.104725  -0.001610
    35  H   -0.000000  -0.000000   0.000000  -0.001610   0.009088
 Mulliken charges and spin densities:
               1          2
     1  C    0.280540   0.019756
     2  C    0.210694   0.378887
     3  O   -0.572121   0.339160
     4  C   -0.338597   0.021953
     5  H    0.125242   0.006339
     6  H    0.118139  -0.002719
     7  H    0.118463  -0.000677
     8  C   -0.328813  -0.001722
     9  H    0.131107   0.000304
    10  H    0.128762   0.001503
    11  H    0.130903   0.016358
    12  C    0.091771  -0.012940
    13  C   -0.120949   0.024999
    14  C   -0.126735   0.022927
    15  C   -0.102125  -0.011590
    16  H    0.103187  -0.001554
    17  C   -0.109799  -0.012806
    18  H    0.103210  -0.000797
    19  C   -0.095755   0.026585
    20  H    0.102112   0.000477
    21  H    0.103316   0.000489
    22  H    0.103447  -0.001152
    23  C    0.102145  -0.082299
    24  C   -0.109206   0.105463
    25  C   -0.113175   0.102076
    26  C   -0.101953  -0.055824
    27  H    0.117094  -0.004464
    28  C   -0.108372  -0.055985
    29  H    0.110210  -0.004260
    30  C   -0.089153   0.113721
    31  H    0.109159   0.002056
    32  H    0.110047   0.001981
    33  H    0.110500  -0.005017
    34  O   -0.531502   0.062989
    35  H    0.338207   0.005784
 Sum of Mulliken charges =  -0.00000   1.00000
 Mulliken charges and spin densities with hydrogens summed into heavy atoms:
               1          2
     1  C    0.280540   0.019756
     2  C    0.210694   0.378887
     3  O   -0.572121   0.339160
     4  C    0.023247   0.024895
     8  C    0.061959   0.016443
    12  C    0.091771  -0.012940
    13  C   -0.017762   0.023446
    14  C   -0.023525   0.022130
    15  C   -0.000013  -0.011114
    17  C   -0.006484  -0.012317
    19  C    0.007692   0.025433
    23  C    0.102145  -0.082299
    24  C    0.007888   0.101000
    25  C   -0.002965   0.097815
    26  C    0.007206  -0.053768
    28  C    0.001675  -0.054004
    30  C    0.021347   0.108704
    34  O   -0.193294   0.068773
 Electronic spatial extent (au):  <R**2>=           4083.1724
 Charge=             -0.0000 electrons
 Dipole moment (field-independent basis, Debye):
    X=             -1.3829    Y=              3.8453    Z=             -0.6200  Tot=              4.1332
 Quadrupole moment (field-independent basis, Debye-Ang):
   XX=           -100.2830   YY=           -102.9740   ZZ=           -102.9024
   XY=              1.3140   XZ=             -7.2410   YZ=              1.2090
 Traceless Quadrupole moment (field-independent basis, Debye-Ang):
   XX=              1.7702   YY=             -0.9209   ZZ=             -0.8493
   XY=              1.3140   XZ=             -7.2410   YZ=              1.2090
 Octapole moment (field-independent basis, Debye-Ang**2):
  XXX=             -7.5703  YYY=             19.6550  ZZZ=             -2.1532  XYY=            -11.4913
  XXY=             24.3556  XXZ=              1.4046  XZZ=             -1.1735  YZZ=            -11.8855
  YYZ=             -5.5387  XYZ=              3.3343
 Hexadecapole moment (field-independent basis, Debye-Ang**3):
 XXXX=          -2911.2858 YYYY=          -1582.8153 ZZZZ=           -692.4128 XXXY=            -11.3001
 XXXZ=           -141.1983 YYYX=             23.6146 YYYZ=             15.4855 ZZZX=             -0.0593
 ZZZY=              1.0236 XXYY=           -750.1883 XXZZ=           -648.2453 YYZZ=           -390.7601
 XXYZ=             -0.8497 YYXZ=            -13.2719 ZZXY=             -1.8116
 N-N= 1.324873020351D+03 E-N=-4.439974516452D+03  KE= 7.631763854607D+02
 Leave Link  601 at Sat May 25 00:54:22 2019, MaxMem=   104857600 cpu:               5.2 elap:               0.2
 (Enter /opt/software/gaussian/g16.b01/l9999.exe)
 Electronic transition elements 
                 1             2             3             4             5 
      1  -0.770348D+03 -0.770312D+03 -0.770305D+03 -0.770297D+03 -0.770290D+03
      2  -0.111684D+00 -0.485560D+00  0.352270D-01 -0.474748D+00  0.261629D+00
      3  -0.132147D+00  0.318137D+00  0.234107D+00 -0.331350D+00  0.589980D+00
      4  -0.135823D+00  0.385274D-01  0.103648D+00  0.673974D-01 -0.803776D-02
      5   0.464548D-02  0.423039D-01 -0.663282D-03  0.489309D-01 -0.276024D-01
      6   0.675911D-02 -0.270737D-01 -0.222861D-01  0.313832D-01 -0.637104D-01
      7   0.742312D-02 -0.330178D-02 -0.124970D-01 -0.857056D-02  0.127678D-02
      8  -0.192068D+00 -0.232819D+00 -0.162399D+00 -0.162100D+00 -0.293849D-01
      9  -0.579454D+00 -0.258881D-01 -0.637278D-01  0.215676D+00 -0.256483D-01
     10   0.285763D+00  0.351581D+00 -0.476969D+00  0.319766D-01 -0.573942D-01
     11   0.371990D-01 -0.146370D+00 -0.915501D-01  0.287310D+00 -0.147621D+00
     12  -0.639553D-02  0.865447D-01  0.467489D-01 -0.810521D-01  0.682064D-01
     13  -0.246302D-01 -0.100342D-01  0.270761D-02 -0.502227D-01  0.664405D-02
     14   0.494084D-02  0.283957D+00 -0.456500D-01  0.109278D+00 -0.372604D-01
     15   0.391361D-02  0.267370D-01  0.852579D-02 -0.534312D-01  0.179402D-03
     16  -0.180790D-01  0.629591D-01 -0.174729D-01  0.181368D-01 -0.116292D-01
                 6             7             8             9            10 
      1  -0.770272D+03 -0.770264D+03 -0.770256D+03 -0.770250D+03 -0.770245D+03
      2  -0.387186D+00  0.100866D+01 -0.921596D+00  0.968503D-01 -0.887080D-01
      3  -0.274226D+00 -0.184602D-01 -0.576188D+00  0.236109D+00 -0.169555D+00
      4  -0.409174D-01  0.249190D+00 -0.159709D+00 -0.506395D-01 -0.126119D+00
      5   0.487097D-01 -0.133924D+00  0.129854D+00 -0.133348D-01  0.122760D-01
      6   0.344030D-01  0.270451D-02  0.809956D-01 -0.350232D-01  0.299488D-01
      7   0.826095D-02 -0.309809D-01  0.224268D-01  0.676037D-02  0.196152D-01
      8  -0.267676D+00  0.100045D+00 -0.163403D+00 -0.175515D+00  0.131537D+00
      9  -0.118876D+00 -0.210958D+00  0.162625D+00  0.339613D+00 -0.185015D+00
     10   0.292478D+00 -0.424401D+00  0.433668D+00  0.139629D+00  0.417182D+00
     11   0.180792D+00  0.244301D-01  0.402733D+00 -0.617233D-01 -0.216231D+00
     12  -0.721506D-02 -0.622863D-02 -0.704635D-01  0.124589D+00  0.938992D-01
     13  -0.850280D-01 -0.200985D-01 -0.836420D-01 -0.995848D-01  0.358442D-01
     14   0.302818D+00 -0.123318D+00  0.248038D+00  0.142123D-01  0.924895D-01
     15  -0.129765D-01  0.336086D-02 -0.469161D-01 -0.695668D-02  0.895118D-01
     16   0.342663D-01  0.556279D-01 -0.192889D-01 -0.104886D-01  0.272093D-01
                11            12            13            14            15 
      1  -0.770243D+03 -0.770233D+03 -0.770231D+03 -0.770228D+03 -0.770226D+03
      2   0.921400D+00  0.443718D-01 -0.164534D+00 -0.361331D-01  0.107459D+00
      3   0.963787D-01  0.514942D-01 -0.463905D+00  0.174957D+00 -0.184168D+00
      4   0.211327D+00 -0.889048D-01  0.239519D-01 -0.101562D+00  0.549763D-01
      5  -0.141425D+00 -0.652833D-02  0.282348D-01  0.612278D-02 -0.169279D-01
      6  -0.140701D-01 -0.998261D-02  0.780754D-01 -0.308492D-01  0.313614D-01
      7  -0.333989D-01  0.140040D-01 -0.480218D-02  0.174440D-01 -0.108484D-01
      8   0.523328D-01  0.173096D+00 -0.707454D-01  0.108562D+00  0.425866D-01
      9   0.232571D+00 -0.577683D-01  0.239008D+00 -0.690207D-01  0.480362D-01
     10  -0.180587D+00  0.273099D+00  0.213148D+00 -0.304845D-02  0.124963D+00
     11  -0.604302D-01 -0.252178D-01  0.452172D+00 -0.225947D+00  0.129220D+00
     12   0.126141D+00 -0.920890D-02 -0.525605D-01  0.243862D-01 -0.825228D-02
     13  -0.837076D-01  0.920528D-02 -0.138341D+00  0.701274D-01 -0.589952D-01
     14  -0.136657D+00  0.810373D-01  0.137600D+00 -0.303071D-01  0.632265D-01
     15   0.833398D-02 -0.113995D-02 -0.558435D-01  0.342482D-01 -0.104427D-01
     16   0.712908D-01  0.400623D-01  0.381723D-01 -0.277292D-01  0.599858D-01
                16            17            18            19            20 
      1  -0.770222D+03 -0.770220D+03 -0.770218D+03 -0.770216D+03 -0.770215D+03
      2   0.129581D+00 -0.904944D-01  0.454982D-01 -0.220765D+00  0.285697D+00
      3  -0.148308D+00 -0.365846D-01 -0.522712D-01 -0.251304D+00  0.969560D-01
      4   0.555172D-01 -0.147971D-01  0.103172D-01 -0.936248D-01  0.542166D-01
      5  -0.223971D-01  0.166745D-01 -0.875967D-02  0.405119D-01 -0.519877D-01
      6   0.263546D-01  0.647109D-02  0.100126D-01  0.462334D-01 -0.179589D-01
      7  -0.966877D-02  0.454331D-02 -0.813569D-03  0.185865D-01 -0.923690D-02
      8   0.224909D-01 -0.251289D+00 -0.111900D+00 -0.681909D-01 -0.627277D-01
      9   0.187803D+00  0.898382D-02  0.153984D-01  0.230945D+00 -0.405453D-01
     10  -0.385192D-01  0.253022D+00 -0.762606D-01  0.214199D+00 -0.185350D+00
     11   0.116647D+00 -0.544965D-01 -0.176684D-02  0.199627D+00 -0.124188D+00
     12  -0.446463D-01 -0.775059D-01  0.513011D-02 -0.509110D-02 -0.196693D-01
     13   0.899726D-02  0.818546D-01 -0.136157D-02 -0.455090D-01  0.463217D-01
     14  -0.541234D-01 -0.973073D-01 -0.321595D-01  0.770544D-01 -0.146520D+00
     15  -0.198759D-01 -0.230625D-01  0.677971D-02 -0.257718D-01  0.826226D-02
     16   0.272626D-01 -0.526027D-01 -0.503316D-02 -0.301717D-01  0.176418D-01
                21            22            23            24            25 
      1  -0.770213D+03 -0.770212D+03 -0.770211D+03 -0.770205D+03 -0.770205D+03
      2  -0.891566D-01 -0.124471D+00 -0.760201D-01 -0.581298D-01 -0.321773D-01
      3  -0.603331D-01  0.176358D-01 -0.113077D-01  0.179808D+00 -0.896027D-01
      4  -0.152076D-01  0.238649D-03  0.322124D-01 -0.549594D-01  0.204473D-01
      5   0.168535D-01  0.220410D-01  0.143831D-01  0.102817D-01  0.635509D-02
      6   0.110990D-01 -0.337769D-02  0.240873D-02 -0.375817D-01  0.186180D-01
      7   0.310708D-02 -0.118622D-02 -0.579580D-02  0.102622D-01 -0.482512D-02
      8   0.836980D-01  0.266875D+00 -0.115080D+00  0.118338D+00  0.147795D+00
      9  -0.185499D+00 -0.633177D-01  0.498609D-02  0.140067D+00  0.251202D-01
     10   0.191979D-01  0.185149D-01 -0.172232D+00  0.202440D-01 -0.116052D-01
     11  -0.160251D-01 -0.591582D-01 -0.982678D-02  0.275081D+00  0.100595D+00
     12  -0.689874D-01  0.976365D-02  0.165334D-01 -0.323029D-01  0.227628D+00
     13   0.114086D+00  0.459445D-01 -0.795339D-02 -0.128099D+00 -0.270356D+00
     14   0.105274D+00  0.773904D-01 -0.484232D-01  0.837733D-01 -0.322748D-02
     15   0.108011D-01  0.194261D-01  0.410572D-02 -0.990829D-01  0.386014D-01
     16   0.133127D-01  0.145686D-01 -0.422237D-01  0.202703D-01 -0.683687D-02
                26            27            28            29            30 
      1  -0.770202D+03 -0.770198D+03 -0.770198D+03 -0.770194D+03 -0.770191D+03
      2  -0.843582D-01 -0.704653D-01  0.122150D-01  0.450413D+00  0.472112D-01
      3  -0.735486D-01 -0.189070D-01  0.502125D+00 -0.549805D+00  0.250220D+00
      4  -0.121124D-01  0.206136D-01  0.620329D-01 -0.548810D-01  0.549477D-01
      5   0.159621D-01  0.152737D-01 -0.215142D-03 -0.944314D-01 -0.993056D-02
      6   0.134461D-01  0.443632D-02 -0.101723D+00  0.109607D+00 -0.534628D-01
      7   0.355337D-02 -0.166124D-02 -0.107141D-01  0.112295D-01 -0.111537D-01
      8   0.325498D-01 -0.564020D-01 -0.150627D+00  0.287897D+00  0.158884D+00
      9   0.458591D-01 -0.555365D-01  0.705696D-01  0.233107D+00 -0.319776D+00
     10  -0.949449D-01 -0.164231D-01  0.831891D-01 -0.206183D+00 -0.289576D+00
     11   0.150378D+00 -0.137666D+00 -0.930589D-01  0.908072D+00 -0.197947D+00
     12  -0.175875D-01  0.695781D-01 -0.140792D+00 -0.503956D-01  0.280845D+00
     13  -0.403356D-01 -0.184463D-02  0.577956D-01 -0.199474D+00 -0.133202D+00
     14   0.204317D-01  0.397079D-01 -0.227894D-01 -0.298259D+00  0.127033D-01
     15  -0.372161D-01  0.328113D-01 -0.846429D-01 -0.109939D+00  0.925349D-01
     16  -0.325220D-02  0.500814D-03 -0.168612D-01 -0.142494D-01 -0.143105D-01
                31            32            33            34            35 
      1  -0.770191D+03 -0.770189D+03 -0.770189D+03 -0.770187D+03 -0.770186D+03
      2   0.501300D-01 -0.336427D-01  0.248971D+00  0.300818D-01  0.263939D+00
      3  -0.158378D+00 -0.591868D-01  0.187225D+00 -0.116163D+00 -0.138348D-01
      4   0.929335D-01 -0.446617D-01  0.101245D+00  0.454296D-01 -0.330049D-01
      5  -0.819922D-02  0.662114D-02 -0.530254D-01 -0.490505D-02 -0.577945D-01
      6   0.318368D-01  0.129345D-01 -0.384409D-01  0.241554D-01  0.151066D-02
      7  -0.159426D-01  0.103827D-01 -0.189397D-01 -0.108774D-01  0.100082D-01
      8  -0.903182D-01 -0.141600D+00  0.121505D-01 -0.671092D-02 -0.136952D+00
      9   0.131092D+00  0.420117D-01 -0.150076D-02  0.264849D+00 -0.264207D-01
     10  -0.271105D+00  0.117951D+00 -0.120415D+00  0.265099D+00 -0.524560D-01
     11   0.305151D+00  0.151348D-01 -0.238241D+00 -0.215943D-01 -0.389904D-01
     12  -0.341994D-01 -0.471315D-01  0.510277D-01 -0.171115D+00 -0.491356D-01
     13  -0.790727D-01  0.131447D-02 -0.415570D-01  0.268375D+00  0.148782D+00
     14  -0.181839D+00 -0.706396D-02 -0.209154D-01  0.581418D-01 -0.126512D+00
     15  -0.675979D-01 -0.202228D-01  0.247744D-01 -0.323635D-01 -0.184733D-01
     16  -0.607718D-01 -0.402307D-01 -0.260718D-01  0.424433D-01 -0.670165D-01
                36 
      1  -0.770185D+03
      2   0.592826D-01
      3   0.812764D-01
      4  -0.745037D-02
      5  -0.146164D-01
      6  -0.167233D-01
      7   0.116805D-02
      8   0.718633D-01
      9   0.920473D-02
     10  -0.561124D-01
     11   0.165344D+00
     12  -0.753387D-01
     13   0.486015D-02
     14  -0.269757D-01
     15  -0.515410D-01
     16  -0.400784D-02
 1\1\GINC-GRA619\SP\UB3LYP TD-FC\6-31G(d,p)\C16H17O2(2)\RZK\25-May-2019
 \0\\#p td=(50-50,nstates=36) ub3lyp/6-31g(d,p) scrf=(iefpcm,solvent=ac
 etonitrile) guess=(mix,always) empiricaldispersion=gd3\\Title Card Req
 uired\\0,2\C,0,-0.716628,-1.352672,-0.717632\C,0,0.691849,-1.273398,0.
 70008\O,0,-1.17076,-2.508793,-0.399411\C,0,0.129351,-1.304613,-1.99691
 5\H,0,-0.560001,-1.41039,-2.841191\H,0,0.69375,-0.382099,-2.125553\H,0
 ,0.819854,-2.148055,-2.001993\C,0,-0.11746,-1.285016,1.984725\H,0,-0.7
 23641,-0.390176,2.114028\H,0,-0.779274,-2.151512,1.990681\H,0,0.582277
 ,-1.360485,2.824038\C,0,-1.601394,-0.154003,-0.453902\C,0,-2.790276,-0
 .341748,0.269703\C,0,-1.294058,1.135666,-0.915203\C,0,-3.643211,0.7271
 47,0.534012\H,0,-3.028573,-1.342,0.61351\C,0,-2.148356,2.207732,-0.652
 349\H,0,-0.381483,1.315321,-1.470615\C,0,-3.323679,2.008929,0.074842\H
 ,0,-4.559078,0.562228,1.094203\H,0,-1.892693,3.198999,-1.014875\H,0,-3
 .986853,2.844172,0.27968\C,0,1.5766,-0.122604,0.444811\C,0,2.746122,-0
 .281643,-0.328643\C,0,1.27501,1.159914,0.947018\C,0,3.582607,0.800273,
 -0.583779\H,0,2.987477,-1.262746,-0.718507\C,0,2.11285,2.240394,0.6856
 01\H,0,0.378472,1.318251,1.533146\C,0,3.269147,2.067163,-0.080568\H,0,
 4.480929,0.657243,-1.176565\H,0,1.86224,3.220329,1.079849\H,0,3.920312
 ,2.911817,-0.283809\O,0,1.309944,-2.473669,0.442011\H,0,0.581978,-3.11
 0334,0.292368\\Version=ES64L-G16RevB.01\State=2-A\HF=-770.4008022\S2=0
 .763304\S2-1=0.\S2A=0.750135\RMSD=8.883e-09\PG=C01 [X(C16H17O2)]\\@


 CHILDREN YOU ARE VERY LITTLE,
 AND YOUR BONES ARE VERY BRITTLE;
 IF YOU WOULD GROW GREAT AND STATELY
 YOU MUST TRY TO WALK SEDATELY.
 YOU MUST STILL BE BRIGHT AND QUIET,
 AND CONTENT WITH SIMPLE DIET;
 AND REMAIN, THROUGH ALL BEWILD'RING
 INNOCENT AND HONEST CHILDREN.
     -- A CHILD'S GARDEN OF VERSE,
        ROBERT LOUIS STEVENSON
 Job cpu time:       0 days 15 hours 43 minutes 28.5 seconds.
 Elapsed time:       0 days  0 hours 29 minutes 31.5 seconds.
 File lengths (MBytes):  RWF=   2177 Int=      0 D2E=      0 Chk=    178 Scr=      1
 Normal termination of Gaussian 16 at Sat May 25 00:54:22 2019.
