 Entering Gaussian System, Link 0=g16
 Initial command:
 /opt/software/gaussian/g16.b01/l1.exe "/localscratch/rzk.15153357.0/Gau-23546.inp" -scrdir="/localscratch/rzk.15153357.0/"
 Entering Link 1 = /opt/software/gaussian/g16.b01/l1.exe PID=     23550.
  
 Copyright (c) 1988-2017, Gaussian, Inc.  All Rights Reserved.
  
 This is part of the Gaussian(R) 16 program.  It is based on
 the Gaussian(R) 09 system (copyright 2009, Gaussian, Inc.),
 the Gaussian(R) 03 system (copyright 2003, Gaussian, Inc.),
 the Gaussian(R) 98 system (copyright 1998, Gaussian, Inc.),
 the Gaussian(R) 94 system (copyright 1995, Gaussian, Inc.),
 the Gaussian 92(TM) system (copyright 1992, Gaussian, Inc.),
 the Gaussian 90(TM) system (copyright 1990, Gaussian, Inc.),
 the Gaussian 88(TM) system (copyright 1988, Gaussian, Inc.),
 the Gaussian 86(TM) system (copyright 1986, Carnegie Mellon
 University), and the Gaussian 82(TM) system (copyright 1983,
 Carnegie Mellon University). Gaussian is a federally registered
 trademark of Gaussian, Inc.
  
 This software contains proprietary and confidential information,
 including trade secrets, belonging to Gaussian, Inc.
  
 This software is provided under written license and may be
 used, copied, transmitted, or stored only in accord with that
 written license.
  
 The following legend is applicable only to US Government
 contracts under FAR:
  
                    RESTRICTED RIGHTS LEGEND
  
 Use, reproduction and disclosure by the US Government is
 subject to restrictions as set forth in subparagraphs (a)
 and (c) of the Commercial Computer Software - Restricted
 Rights clause in FAR 52.227-19.
  
 Gaussian, Inc.
 340 Quinnipiac St., Bldg. 40, Wallingford CT 06492
  
  
 ---------------------------------------------------------------
 Warning -- This program may not be used in any manner that
 competes with the business of Gaussian, Inc. or will provide
 assistance to any competitor of Gaussian, Inc.  The licensee
 of this program is prohibited from giving any competitor of
 Gaussian, Inc. access to this program.  By using this program,
 the user acknowledges that Gaussian, Inc. is engaged in the
 business of creating and licensing software in the field of
 computational chemistry and represents and warrants to the
 licensee that it is not a competitor of Gaussian, Inc. and that
 it will not use this program in any manner prohibited above.
 ---------------------------------------------------------------
  

 Cite this work as:
 Gaussian 16, Revision B.01,
 M. J. Frisch, G. W. Trucks, H. B. Schlegel, G. E. Scuseria, 
 M. A. Robb, J. R. Cheeseman, G. Scalmani, V. Barone, 
 G. A. Petersson, H. Nakatsuji, X. Li, M. Caricato, A. V. Marenich, 
 J. Bloino, B. G. Janesko, R. Gomperts, B. Mennucci, H. P. Hratchian, 
 J. V. Ortiz, A. F. Izmaylov, J. L. Sonnenberg, D. Williams-Young, 
 F. Ding, F. Lipparini, F. Egidi, J. Goings, B. Peng, A. Petrone, 
 T. Henderson, D. Ranasinghe, V. G. Zakrzewski, J. Gao, N. Rega, 
 G. Zheng, W. Liang, M. Hada, M. Ehara, K. Toyota, R. Fukuda, 
 J. Hasegawa, M. Ishida, T. Nakajima, Y. Honda, O. Kitao, H. Nakai, 
 T. Vreven, K. Throssell, J. A. Montgomery, Jr., J. E. Peralta, 
 F. Ogliaro, M. J. Bearpark, J. J. Heyd, E. N. Brothers, K. N. Kudin, 
 V. N. Staroverov, T. A. Keith, R. Kobayashi, J. Normand, 
 K. Raghavachari, A. P. Rendell, J. C. Burant, S. S. Iyengar, 
 J. Tomasi, M. Cossi, J. M. Millam, M. Klene, C. Adamo, R. Cammi, 
 J. W. Ochterski, R. L. Martin, K. Morokuma, O. Farkas, 
 J. B. Foresman, and D. J. Fox, Gaussian, Inc., Wallingford CT, 2016.
 
 ******************************************
 Gaussian 16:  ES64L-G16RevB.01 20-Dec-2017
                25-May-2019 
 ******************************************
 %NProcShared=32
 Will use up to   32 processors via shared memory.
 %chk=AH-A_14.chk
 ----------------------------------------------------------------------
 #p td=(50-50,nstates=36) ub3lyp/6-31g(d,p) scrf=(iefpcm,solvent=aceton
 itrile) guess=(mix,always) empiricaldispersion=gd3
 ----------------------------------------------------------------------
 1/38=1,172=1/1;
 2/12=2,17=6,18=5,40=1/2;
 3/5=1,6=6,7=101,11=2,25=1,30=1,70=2201,72=2,74=-5,116=2,124=31/1,2,3,8;
 4/13=-1/1;
 5/5=2,38=5,53=2/2;
 8/6=1,10=2,108=36/1;
 9/41=36,42=1,48=2,70=2/14;
 6/7=2,8=2,9=2,10=2/1;
 99/5=1,9=1/99;
 Leave Link    1 at Sat May 25 04:15:18 2019, MaxMem=           0 cpu:               4.4 elap:               0.1
 (Enter /opt/software/gaussian/g16.b01/l101.exe)
 -------------------
 Title Card Required
 -------------------
 Symbolic Z-matrix:
 Charge =  0 Multiplicity = 2
 C                    -0.67061  -1.34851  -0.67453 
 C                     0.68998  -1.29366   0.65054 
 O                    -1.15207  -2.51602  -0.37242 
 C                     0.11545  -1.31688  -1.99719 
 H                    -0.60994  -1.41975  -2.81007 
 H                     0.68059  -0.39814  -2.14982 
 H                     0.80045  -2.16416  -2.02741 
 C                    -0.05606  -1.34187   1.97787 
 H                    -0.71402  -0.48689   2.12523 
 H                    -0.65978  -2.24877   2.02193 
 H                     0.6843   -1.36009   2.78379 
 C                    -1.58021  -0.15642  -0.42983 
 C                    -2.76222  -0.34791   0.30235 
 C                    -1.29698   1.12784  -0.91908 
 C                    -3.63233   0.71233   0.54802 
 H                    -2.98422  -1.34408   0.6683 
 C                    -2.16831   2.19123  -0.67596 
 H                    -0.38983   1.3112   -1.48236 
 C                    -3.33715   1.98904   0.06033 
 H                    -4.54261   0.54352   1.1162 
 H                    -1.93045   3.17836  -1.06134 
 H                    -4.01353   2.81721   0.25023 
 C                     1.55779  -0.11137   0.41658 
 C                     2.72226  -0.22924  -0.36799 
 C                     1.23995   1.14762   0.96098 
 C                     3.54255   0.87264  -0.59296 
 H                     2.97567  -1.19379  -0.78994 
 C                     2.06087   2.24877   0.73108 
 H                     0.34445   1.27359   1.55649 
 C                     3.21444   2.11723  -0.04678 
 H                     4.43889   0.7616   -1.1955 
 H                     1.79855   3.21136   1.15895 
 H                     3.85235   2.97735  -0.22595 
 O                     1.37109  -2.46862   0.38939 
 H                     0.68039  -3.14633   0.26504 
 
 ITRead=  0  0  0  0  0  0  0  0  0  0  0  0  0  0  0  0  0  0  0  0
 ITRead=  0  0  0  0  0  0  0  0  0  0  0  0  0  0  0
 MicOpt= -1 -1 -1 -1 -1 -1 -1 -1 -1 -1 -1 -1 -1 -1 -1 -1 -1 -1 -1 -1
 MicOpt= -1 -1 -1 -1 -1 -1 -1 -1 -1 -1 -1 -1 -1 -1 -1
 NAtoms=     35 NQM=       35 NQMF=       0 NMMI=      0 NMMIF=      0
                NMic=       0 NMicF=      0.
                    Isotopes and Nuclear Properties:
 (Nuclear quadrupole moments (NQMom) in fm**2, nuclear magnetic moments (NMagM)
  in nuclear magnetons)

  Atom         1           2           3           4           5           6           7           8           9          10
 IAtWgt=          12          12          16          12           1           1           1          12           1           1
 AtmWgt=  12.0000000  12.0000000  15.9949146  12.0000000   1.0078250   1.0078250   1.0078250  12.0000000   1.0078250   1.0078250
 NucSpn=           0           0           0           0           1           1           1           0           1           1
 AtZEff=  -0.0000000  -0.0000000  -0.0000000  -0.0000000  -0.0000000  -0.0000000  -0.0000000  -0.0000000  -0.0000000  -0.0000000
 NQMom=    0.0000000   0.0000000   0.0000000   0.0000000   0.0000000   0.0000000   0.0000000   0.0000000   0.0000000   0.0000000
 NMagM=    0.0000000   0.0000000   0.0000000   0.0000000   2.7928460   2.7928460   2.7928460   0.0000000   2.7928460   2.7928460
 AtZNuc=   6.0000000   6.0000000   8.0000000   6.0000000   1.0000000   1.0000000   1.0000000   6.0000000   1.0000000   1.0000000

  Atom        11          12          13          14          15          16          17          18          19          20
 IAtWgt=           1          12          12          12          12           1          12           1          12           1
 AtmWgt=   1.0078250  12.0000000  12.0000000  12.0000000  12.0000000   1.0078250  12.0000000   1.0078250  12.0000000   1.0078250
 NucSpn=           1           0           0           0           0           1           0           1           0           1
 AtZEff=  -0.0000000  -0.0000000  -0.0000000  -0.0000000  -0.0000000  -0.0000000  -0.0000000  -0.0000000  -0.0000000  -0.0000000
 NQMom=    0.0000000   0.0000000   0.0000000   0.0000000   0.0000000   0.0000000   0.0000000   0.0000000   0.0000000   0.0000000
 NMagM=    2.7928460   0.0000000   0.0000000   0.0000000   0.0000000   2.7928460   0.0000000   2.7928460   0.0000000   2.7928460
 AtZNuc=   1.0000000   6.0000000   6.0000000   6.0000000   6.0000000   1.0000000   6.0000000   1.0000000   6.0000000   1.0000000

  Atom        21          22          23          24          25          26          27          28          29          30
 IAtWgt=           1           1          12          12          12          12           1          12           1          12
 AtmWgt=   1.0078250   1.0078250  12.0000000  12.0000000  12.0000000  12.0000000   1.0078250  12.0000000   1.0078250  12.0000000
 NucSpn=           1           1           0           0           0           0           1           0           1           0
 AtZEff=  -0.0000000  -0.0000000  -0.0000000  -0.0000000  -0.0000000  -0.0000000  -0.0000000  -0.0000000  -0.0000000  -0.0000000
 NQMom=    0.0000000   0.0000000   0.0000000   0.0000000   0.0000000   0.0000000   0.0000000   0.0000000   0.0000000   0.0000000
 NMagM=    2.7928460   2.7928460   0.0000000   0.0000000   0.0000000   0.0000000   2.7928460   0.0000000   2.7928460   0.0000000
 AtZNuc=   1.0000000   1.0000000   6.0000000   6.0000000   6.0000000   6.0000000   1.0000000   6.0000000   1.0000000   6.0000000

  Atom        31          32          33          34          35
 IAtWgt=           1           1           1          16           1
 AtmWgt=   1.0078250   1.0078250   1.0078250  15.9949146   1.0078250
 NucSpn=           1           1           1           0           1
 AtZEff=  -0.0000000  -0.0000000  -0.0000000  -0.0000000  -0.0000000
 NQMom=    0.0000000   0.0000000   0.0000000   0.0000000   0.0000000
 NMagM=    2.7928460   2.7928460   2.7928460   0.0000000   2.7928460
 AtZNuc=   1.0000000   1.0000000   1.0000000   8.0000000   1.0000000
 Leave Link  101 at Sat May 25 04:15:19 2019, MaxMem=   104857600 cpu:               5.5 elap:               0.2
 (Enter /opt/software/gaussian/g16.b01/l202.exe)
                          Input orientation:                          
 ---------------------------------------------------------------------
 Center     Atomic      Atomic             Coordinates (Angstroms)
 Number     Number       Type             X           Y           Z
 ---------------------------------------------------------------------
      1          6           0       -0.670610   -1.348514   -0.674527
      2          6           0        0.689975   -1.293655    0.650539
      3          8           0       -1.152065   -2.516020   -0.372418
      4          6           0        0.115450   -1.316882   -1.997193
      5          1           0       -0.609935   -1.419752   -2.810069
      6          1           0        0.680594   -0.398144   -2.149820
      7          1           0        0.800453   -2.164157   -2.027413
      8          6           0       -0.056060   -1.341872    1.977873
      9          1           0       -0.714023   -0.486885    2.125231
     10          1           0       -0.659780   -2.248771    2.021929
     11          1           0        0.684296   -1.360094    2.783789
     12          6           0       -1.580209   -0.156423   -0.429830
     13          6           0       -2.762215   -0.347913    0.302351
     14          6           0       -1.296979    1.127835   -0.919084
     15          6           0       -3.632329    0.712329    0.548024
     16          1           0       -2.984223   -1.344077    0.668297
     17          6           0       -2.168313    2.191233   -0.675963
     18          1           0       -0.389826    1.311197   -1.482364
     19          6           0       -3.337150    1.989042    0.060325
     20          1           0       -4.542608    0.543516    1.116197
     21          1           0       -1.930447    3.178359   -1.061342
     22          1           0       -4.013533    2.817213    0.250226
     23          6           0        1.557793   -0.111367    0.416577
     24          6           0        2.722256   -0.229241   -0.367989
     25          6           0        1.239952    1.147621    0.960979
     26          6           0        3.542552    0.872644   -0.592963
     27          1           0        2.975666   -1.193785   -0.789938
     28          6           0        2.060874    2.248766    0.731081
     29          1           0        0.344447    1.273585    1.556488
     30          6           0        3.214437    2.117227   -0.046784
     31          1           0        4.438887    0.761595   -1.195499
     32          1           0        1.798554    3.211356    1.158949
     33          1           0        3.852345    2.977353   -0.225945
     34          8           0        1.371091   -2.468624    0.389388
     35          1           0        0.680388   -3.146334    0.265037
 ---------------------------------------------------------------------
                    Distance matrix (angstroms):
                    1          2          3          4          5
     1  C    0.000000
     2  C    1.900000   0.000000
     3  O    1.298514   2.435925   0.000000
     4  C    1.538940   2.709447   2.384202   0.000000
     5  H    2.137591   3.698848   2.727242   1.094319   0.000000
     6  H    2.214824   2.940075   3.317107   1.089386   1.773436
     7  H    2.158611   2.818050   2.583630   1.089962   1.776481
     8  C    2.722672   1.523387   2.846703   3.978843   4.820501
     9  H    2.929664   2.190161   3.247695   4.286175   5.023770
    10  H    2.842790   2.148208   2.458997   4.197945   4.902852
    11  H    3.714277   2.134292   3.830147   4.814898   5.741937
    12  C    1.519318   2.759389   2.398813   2.584289   2.864083
    13  C    2.516010   3.596287   2.783628   3.808905   3.932977
    14  C    2.566018   3.503615   3.687482   3.022237   3.246237
    15  C    3.809657   4.766214   4.173866   4.964038   4.995741
    16  H    2.675070   3.674587   2.411087   4.088221   4.212125
    17  C    3.843556   4.698283   4.825260   4.389544   4.474613
    18  H    2.793833   3.535605   4.057164   2.725280   3.044558
    19  C    4.334711   5.228976   5.025679   5.204129   5.224628
    20  H    4.666780   5.565246   4.803386   5.903540   5.893717
    21  H    4.714806   5.458576   5.788475   5.026799   5.093567
    22  H    5.420663   6.259591   6.084329   6.260202   6.237127
    23  C    2.772512   1.485143   3.707856   3.059396   4.101483
    24  C    3.585844   2.510088   4.498860   3.260783   4.299368
    25  C    3.543419   2.521642   4.574053   4.011117   4.922833
    26  C    4.763500   3.791615   5.794058   4.302431   5.235818
    27  H    3.651382   2.703578   4.354399   3.107001   4.121714
    28  C    4.730451   3.799289   5.851826   4.893056   5.755952
    29  H    3.589314   2.744240   4.507919   4.403590   5.218403
    30  C    5.243950   4.300382   6.374900   5.020052   5.896761
    31  H    5.552561   4.656850   6.532914   4.863629   5.731990
    32  H    5.500075   4.667178   6.622241   5.770530   6.557521
    33  H    6.274669   5.386123   7.432545   5.961724   6.776738
    34  O    2.560294   1.382993   2.636079   2.932390   3.906549
    35  H    2.437239   1.892386   2.039983   2.963737   3.755302
                    6          7          8          9         10
     6  H    0.000000
     7  H    1.774303   0.000000
     8  C    4.297805   4.177569   0.000000
     9  H    4.497654   4.727719   1.088868   0.000000
    10  H    4.756565   4.305416   1.090360   1.765745   0.000000
    11  H    5.026516   4.879311   1.094513   1.775243   1.782335
    12  C    2.850969   3.500117   3.086317   2.718054   3.352049
    13  C    4.227127   4.628082   3.334457   2.745413   3.315184
    14  C    2.784622   4.057687   4.003960   3.494998   4.522947
    15  C    5.206997   5.878487   4.365078   3.527351   4.447084
    16  H    4.718841   4.718385   3.207668   2.830414   2.837926
    17  C    4.122305   5.441453   4.897682   4.139319   5.409984
    18  H    2.124416   3.713749   4.373033   4.043877   5.002631
    19  C    5.169687   6.223140   5.053467   4.156302   5.382867
    20  H    6.231808   6.764767   4.942296   4.091203   4.867604
    21  H    4.560010   6.077301   5.760438   5.006790   6.369843
    22  H    6.175238   7.292198   5.995360   5.031846   6.328569
    23  C    2.727290   3.280335   2.560529   2.867344   3.473223
    24  C    2.715112   3.192321   3.802638   4.253298   4.607426
    25  C    3.518429   4.482356   2.985179   2.800913   4.033618
    26  C    3.497072   4.335771   4.946038   5.230232   5.851537
    27  H    2.783825   2.684123   4.107806   4.755179   4.715513
    28  C    4.148602   5.354609   4.350699   4.138538   5.412586
    29  H    4.079754   4.987019   2.679288   2.131451   3.692167
    30  C    4.143695   5.299100   5.173080   5.189590   6.192824
    31  H    4.047282   4.742395   5.890621   6.256072   6.738735
    32  H    5.022577   6.328132   4.984186   4.574246   6.049887
    33  H    5.015504   6.244554   6.228013   6.195215   7.261169
    34  O    3.348321   2.501850   2.414459   3.359783   2.614950
    35  H    3.658426   2.496881   2.594657   3.532332   2.385024
                   11         12         13         14         15
    11  H    0.000000
    12  C    4.111466   0.000000
    13  C    4.365831   1.403530   0.000000
    14  C    4.881241   1.403178   2.411774   0.000000
    15  C    5.284585   2.433542   1.393401   2.789070   0.000000
    16  H    4.234808   2.141882   1.084226   3.387760   2.159470
    17  C    5.720069   2.432681   2.785154   1.396118   2.414258
    18  H    5.146804   2.163041   3.400894   1.083436   3.872331
    19  C    5.899661   2.816046   2.418778   2.421408   1.398205
    20  H    5.807333   3.414077   2.150997   3.875294   1.086244
    21  H    6.497651   3.412073   3.871187   2.150853   3.401142
    22  H    6.777790   3.902058   3.403900   3.406017   2.159754
    23  C    2.815317   3.250460   4.327987   3.386641   5.256721
    24  C    3.919925   4.303526   5.526560   4.277804   6.488943
    25  C    3.149607   3.404143   4.322933   3.157697   4.909087
    26  C    4.955522   5.227645   6.483937   4.857215   7.266806
    27  H    4.248477   4.686341   5.901853   4.864370   7.006355
    28  C    4.374065   4.515544   5.494428   3.905728   5.899721
    29  H    2.925411   3.113629   3.722024   2.973883   4.140864
    30  C    5.148351   5.320229   6.474502   4.700285   7.014680
    31  H    5.867985   6.136654   7.438443   5.754189   8.257532
    32  H    4.977934   5.028140   5.848313   4.271019   6.009397
    33  H    6.156986   6.274931   7.422189   5.515133   7.858098
    34  O    2.726478   3.837651   4.646419   4.665320   5.931091
    35  H    3.087844   3.812179   4.436673   4.855990   5.793867
                   16         17         18         19         20
    16  H    0.000000
    17  C    3.869258   0.000000
    18  H    4.290305   2.141906   0.000000
    19  C    3.406445   1.396131   3.395008   0.000000
    20  H    2.488410   3.400601   4.958574   2.158133   0.000000
    21  H    4.955252   1.086055   2.457044   2.156716   4.302030
    22  H    4.307040   2.157432   4.289663   1.086013   2.489884
    23  C    4.713051   4.514363   3.069672   5.338455   6.175211
    24  C    5.905984   5.465456   3.646894   6.466887   7.455080
    25  C    4.913031   3.922369   2.941574   4.740151   5.816101
    26  C    7.007383   5.861702   4.055485   7.000245   8.270391
    27  H    6.137533   6.158884   4.252167   7.120743   7.948334
    28  C    6.193986   4.457477   3.432828   5.445735   6.830971
    29  H    4.326787   3.484233   3.126531   4.037888   4.960863
    30  C    7.135499   5.419902   3.962485   6.553716   8.000052
    31  H    7.937893   6.780035   4.868349   7.971855   9.276786
    32  H    6.623267   4.488161   3.921243   5.392261   6.879646
    33  H    8.137142   6.088417   4.727651   7.262751   8.843085
    34  O    4.506790   5.947825   4.570704   6.492041   6.676307
    35  H    4.103672   6.122924   4.905951   6.523389   6.451291
                   21         22         23         24         25
    21  H    0.000000
    22  H    2.487948   0.000000
    23  C    5.017406   6.296342   0.000000
    24  C    5.808625   7.418485   1.409047   0.000000
    25  C    4.273770   5.558040   1.407994   2.420564   0.000000
    26  C    5.957300   7.847722   2.434485   1.391995   2.791472
    27  H    6.577176   8.125205   2.153525   1.082868   3.400088
    28  C    4.472982   6.119867   2.433563   2.790323   1.392583
    29  H    3.956809   4.804279   2.165571   3.408236   1.082787
    30  C    5.350249   7.267857   2.815280   2.418952   2.419569
    31  H    6.813748   8.818111   3.414902   2.147871   3.877190
    32  H    4.340073   5.895887   3.413147   3.875883   2.147145
    33  H    5.846279   7.881905   3.901025   3.402870   3.403132
    34  O    6.700238   7.546762   2.364795   2.722885   3.663488
    35  H    6.969755   7.589269   3.162883   3.616542   4.385829
                   26         27         28         29         30
    26  C    0.000000
    27  H    2.151810   0.000000
    28  C    2.417059   3.873177   0.000000
    29  H    3.874115   4.303132   2.139719   0.000000
    30  C    1.398198   3.401777   1.397528   3.393973   0.000000
    31  H    1.085725   2.475683   3.402695   4.959839   2.157907
    32  H    3.402984   4.958732   1.085570   2.455081   2.157692
    33  H    2.158813   4.299424   2.157801   4.287801   1.085745
    34  O    4.104184   2.364463   4.779783   4.052191   4.961673
    35  H    5.008027   3.192761   5.588385   4.616967   5.850104
                   31         32         33         34         35
    31  H    0.000000
    32  H    4.303035   0.000000
    33  H    2.488704   2.488121   0.000000
    34  O    4.728378   5.747793   6.016138   0.000000
    35  H    5.615282   6.516870   6.913893   0.975615   0.000000
 Stoichiometry    C16H17O2(2)
 Framework group  C1[X(C16H17O2)]
 Deg. of freedom    99
 Full point group                 C1      NOp   1
 Largest Abelian subgroup         C1      NOp   1
 Largest concise Abelian subgroup C1      NOp   1
                         Standard orientation:                         
 ---------------------------------------------------------------------
 Center     Atomic      Atomic             Coordinates (Angstroms)
 Number     Number       Type             X           Y           Z
 ---------------------------------------------------------------------
      1          6           0        0.670610   -1.348514    0.674527
      2          6           0       -0.689975   -1.293655   -0.650539
      3          8           0        1.152065   -2.516020    0.372418
      4          6           0       -0.115450   -1.316882    1.997193
      5          1           0        0.609935   -1.419752    2.810069
      6          1           0       -0.680594   -0.398144    2.149820
      7          1           0       -0.800453   -2.164157    2.027413
      8          6           0        0.056060   -1.341872   -1.977873
      9          1           0        0.714023   -0.486885   -2.125231
     10          1           0        0.659780   -2.248771   -2.021929
     11          1           0       -0.684296   -1.360094   -2.783789
     12          6           0        1.580209   -0.156423    0.429830
     13          6           0        2.762215   -0.347913   -0.302351
     14          6           0        1.296979    1.127835    0.919084
     15          6           0        3.632329    0.712329   -0.548024
     16          1           0        2.984223   -1.344077   -0.668297
     17          6           0        2.168313    2.191233    0.675963
     18          1           0        0.389826    1.311197    1.482364
     19          6           0        3.337150    1.989042   -0.060325
     20          1           0        4.542608    0.543516   -1.116197
     21          1           0        1.930447    3.178359    1.061342
     22          1           0        4.013533    2.817213   -0.250226
     23          6           0       -1.557793   -0.111367   -0.416577
     24          6           0       -2.722256   -0.229241    0.367989
     25          6           0       -1.239952    1.147621   -0.960979
     26          6           0       -3.542552    0.872644    0.592963
     27          1           0       -2.975666   -1.193785    0.789938
     28          6           0       -2.060874    2.248766   -0.731081
     29          1           0       -0.344447    1.273585   -1.556488
     30          6           0       -3.214437    2.117227    0.046784
     31          1           0       -4.438887    0.761595    1.195499
     32          1           0       -1.798554    3.211356   -1.158949
     33          1           0       -3.852345    2.977353    0.225945
     34          8           0       -1.371091   -2.468624   -0.389388
     35          1           0       -0.680388   -3.146334   -0.265037
 ---------------------------------------------------------------------
 Rotational constants (GHZ):           0.6143017           0.3835806           0.2911372
 Leave Link  202 at Sat May 25 04:15:19 2019, MaxMem=   104857600 cpu:               2.0 elap:               0.1
 (Enter /opt/software/gaussian/g16.b01/l301.exe)
 Standard basis: 6-31G(d,p) (6D, 7F)
 Ernie: Thresh=  0.10000D-02 Tol=  0.10000D-05 Strict=F.
 There are   355 symmetry adapted cartesian basis functions of A   symmetry.
 There are   355 symmetry adapted basis functions of A   symmetry.
   355 basis functions,   623 primitive gaussians,   355 cartesian basis functions
    65 alpha electrons       64 beta electrons
       nuclear repulsion energy      1327.1798934941 Hartrees.
 IExCor=  402 DFT=T Ex+Corr=B3LYP ExCW=0 ScaHFX=  0.200000
 ScaDFX=  0.800000  0.720000  1.000000  0.810000 ScalE2=  1.000000  1.000000
 IRadAn=      5 IRanWt=     -1 IRanGd=            0 ICorTp=0 IEmpDi=131
 NAtoms=   35 NActive=   35 NUniq=   35 SFac= 1.00D+00 NAtFMM=   60 NAOKFM=F Big=F
 Integral buffers will be    131072 words long.
 Raffenetti 2 integral format.
 Two-electron integral symmetry is turned on.
 R6Disp:  Grimme-D3 Dispersion energy=       -0.0417811541 Hartrees.
 Nuclear repulsion after empirical dispersion term =     1327.1381123399 Hartrees.
 ------------------------------------------------------------------------------
 Polarizable Continuum Model (PCM)
 =================================
 Model                : PCM.
 Atomic radii         : UFF (Universal Force Field).
 Polarization charges : Total charges.
 Charge compensation  : None.
 Solution method      : On-the-fly selection.
 Cavity type          : Scaled VdW (van der Waals Surface) (Alpha=1.100).
 Cavity algorithm     : GePol (No added spheres)
                        Default sphere list used, NSphG=   35.
                        Lebedev-Laikov grids with approx.  5.0 points / Ang**2.
                        Smoothing algorithm: York/Karplus (Gamma=1.0000).
                        Polarization charges: spherical gaussians, with
                                              point-specific exponents (IZeta= 3).
                        Self-potential: point-specific (ISelfS= 7).
                        Self-field    : sphere-specific E.n sum rule (ISelfD= 2).
 Solvent              : Acetonitrile, Eps=  35.688000 Eps(inf)=   1.806874
 ------------------------------------------------------------------------------
 GePol: Number of generator spheres                  =      35
 GePol: Total number of spheres                      =      35
 GePol: Number of exposed spheres                    =      35 (100.00%)
 GePol: Number of points                             =    2404
 GePol: Average weight of points                     =       0.13
 GePol: Minimum weight of points                     =   0.20D-11
 GePol: Maximum weight of points                     =    0.20577
 GePol: Number of points with low weight             =     153
 GePol: Fraction of low-weight points (<1% of avg)   =       6.36%
 GePol: Cavity surface area                          =    306.349 Ang**2
 GePol: Cavity volume                                =    349.605 Ang**3
 Leave Link  301 at Sat May 25 04:15:19 2019, MaxMem=   104857600 cpu:               3.6 elap:               0.2
 (Enter /opt/software/gaussian/g16.b01/l302.exe)
 NPDir=0 NMtPBC=     1 NCelOv=     1 NCel=       1 NClECP=     1 NCelD=      1
         NCelK=      1 NCelE2=     1 NClLst=     1 CellRange=     0.0.
 One-electron integrals computed using PRISM.
 One-electron integral symmetry used in STVInt
 PrsmSu:  requested number of processors reduced to:  28 ShMem   1 Linda.
 NBasis=   355 RedAO= T EigKep=  4.50D-04  NBF=   355
 NBsUse=   355 1.00D-06 EigRej= -1.00D+00 NBFU=   355
 Precomputing XC quadrature grid using
 IXCGrd= 4 IRadAn=           5 IRanWt=          -1 IRanGd=           0 AccXCQ= 0.00D+00.
 Generated NRdTot=       0 NPtTot=           0 NUsed=           0 NTot=          32
 NSgBfM=   354   354   354   354   354 MxSgAt=    35 MxSgA2=    35.
 Leave Link  302 at Sat May 25 04:15:20 2019, MaxMem=   104857600 cpu:              16.7 elap:               0.6
 (Enter /opt/software/gaussian/g16.b01/l303.exe)
 DipDrv:  MaxL=1.
 Leave Link  303 at Sat May 25 04:15:20 2019, MaxMem=   104857600 cpu:               3.4 elap:               0.2
 (Enter /opt/software/gaussian/g16.b01/l308.exe)
 Leave Link  308 at Sat May 25 04:15:21 2019, MaxMem=   104857600 cpu:               1.8 elap:               0.1
 (Enter /opt/software/gaussian/g16.b01/l401.exe)
 ExpMin= 1.61D-01 ExpMax= 5.48D+03 ExpMxC= 8.25D+02 IAcc=3 IRadAn=         5 AccDes= 0.00D+00
 Harris functional with IExCor=  402 and IRadAn=       5 diagonalized for initial guess.
 HarFok:  IExCor=  402 AccDes= 0.00D+00 IRadAn=         5 IDoV= 1 UseB2=F ITyADJ=14
 ICtDFT=  3500011 ScaDFX=  1.000000  1.000000  1.000000  1.000000
 FoFCou: FMM=F IPFlag=           0 FMFlag=      100000 FMFlg1=           0
         NFxFlg=           0 DoJE=T BraDBF=F KetDBF=T FulRan=T
         wScrn=  0.000000 ICntrl=       500 IOpCl=  0 I1Cent=   200000004 NGrid=           0
         NMat0=    1 NMatS0=      1 NMatT0=    0 NMatD0=    1 NMtDS0=    0 NMtDT0=    0
 Petite list used in FoFCou.
 Harris En= -770.438887134127    
 JPrj=0 DoOrth=F DoCkMO=T.
 Mixing orbitals, IMix= 1 IMixAn=  0 NRI=1 NE=   65 Coef=  7.07106781D-01  7.07106781D-01
 Mixing orbitals, IMix= 1 IMixAn=  0 NRI=1 NE=   64 Coef= -7.07106781D-01  7.07106781D-01
 Initial guess <Sx>= 0.0000 <Sy>= 0.0000 <Sz>= 0.5000 <S**2>= 1.0000 S= 0.6180
 Leave Link  401 at Sat May 25 04:15:22 2019, MaxMem=   104857600 cpu:              28.1 elap:               0.9
 (Enter /opt/software/gaussian/g16.b01/l502.exe)
 Integral symmetry usage will be decided dynamically.
 UHF open shell SCF:
 Using DIIS extrapolation, IDIIS=  1040.
 NGot=   104857600 LenX=   104590331 LenY=   104463865
 Requested convergence on RMS density matrix=1.00D-08 within 128 cycles.
 Requested convergence on MAX density matrix=1.00D-06.
 Requested convergence on             energy=1.00D-06.
 No special actions if energy rises.
 Fock matrices will be formed incrementally for  20 cycles.

 Cycle   1  Pass 1  IDiag  1:
 FoFJK:  IHMeth= 1 ICntrl=       0 DoSepK=F KAlg= 0 I1Cent=           0 FoldK=F
 IRaf= 840000000 NMat=       1 IRICut=       1 DoRegI=T DoRafI=F ISym2E= 0 IDoP0=0 IntGTp=1.
 FoFCou: FMM=F IPFlag=           0 FMFlag=      100000 FMFlg1=           0
         NFxFlg=           0 DoJE=F BraDBF=F KetDBF=F FulRan=T
         wScrn=  0.000000 ICntrl=         0 IOpCl=  1 I1Cent=           0 NGrid=           0
         NMat0=    1 NMatS0=      1 NMatT0=    0 NMatD0=    1 NMtDS0=    0 NMtDT0=    0
 Symmetry not used in FoFCou.
 Inv3:  Mode=1 IEnd=    17337648.
 Iteration    1 A*A^-1 deviation from unit magnitude is 4.44D-15 for   2272.
 Iteration    1 A*A^-1 deviation from orthogonality  is 1.72D-15 for   2050    338.
 Iteration    1 A^-1*A deviation from unit magnitude is 4.44D-15 for   2272.
 Iteration    1 A^-1*A deviation from orthogonality  is 1.41D-14 for   2082   2046.
 E= -769.855218964291    
 DIIS: error= 2.54D-02 at cycle   1 NSaved=   1.
 NSaved= 1 IEnMin= 1 EnMin= -769.855218964291     IErMin= 1 ErrMin= 2.54D-02
 ErrMax= 2.54D-02  0.00D+00 EMaxC= 1.00D-01 BMatC= 1.76D+00 BMatP= 1.76D+00
 IDIUse=3 WtCom= 7.46D-01 WtEn= 2.54D-01
 Coeff-Com:  0.100D+01
 Coeff-En:   0.100D+01
 Coeff:      0.100D+01
 Gap=     0.028 Goal=   None    Shift=    0.000
 Gap=     0.040 Goal=   None    Shift=    0.000
 GapD=    0.028 DampG=0.250 DampE=0.500 DampFc=0.2500 IDamp=-1.
 Damping current iteration by 2.50D-01
 RMSDP=4.20D-03 MaxDP=1.24D-01              OVMax= 6.07D-01

 Cycle   2  Pass 1  IDiag  1:
 RMSU=  1.03D-03    CP:  9.87D-01
 E= -770.030652279027     Delta-E=       -0.175433314736 Rises=F Damp=T
 DIIS: error= 1.52D-02 at cycle   2 NSaved=   2.
 NSaved= 2 IEnMin= 2 EnMin= -770.030652279027     IErMin= 2 ErrMin= 1.52D-02
 ErrMax= 1.52D-02  0.00D+00 EMaxC= 1.00D-01 BMatC= 4.82D-01 BMatP= 1.76D+00
 IDIUse=3 WtCom= 8.48D-01 WtEn= 1.52D-01
 Coeff-Com: -0.871D+00 0.187D+01
 Coeff-En:   0.000D+00 0.100D+01
 Coeff:     -0.739D+00 0.174D+01
 Gap=     0.176 Goal=   None    Shift=    0.000
 Gap=     0.090 Goal=   None    Shift=    0.000
 RMSDP=2.17D-03 MaxDP=7.97D-02 DE=-1.75D-01 OVMax= 3.36D-01

 Cycle   3  Pass 1  IDiag  1:
 RMSU=  1.63D-03    CP:  9.59D-01  2.31D+00
 E= -770.356406199021     Delta-E=       -0.325753919994 Rises=F Damp=F
 DIIS: error= 8.73D-03 at cycle   3 NSaved=   3.
 NSaved= 3 IEnMin= 3 EnMin= -770.356406199021     IErMin= 3 ErrMin= 8.73D-03
 ErrMax= 8.73D-03  0.00D+00 EMaxC= 1.00D-01 BMatC= 1.25D-01 BMatP= 4.82D-01
 IDIUse=3 WtCom= 9.13D-01 WtEn= 8.73D-02
 Coeff-Com: -0.449D+00 0.943D+00 0.505D+00
 Coeff-En:   0.000D+00 0.000D+00 0.100D+01
 Coeff:     -0.409D+00 0.861D+00 0.548D+00
 Gap=     0.179 Goal=   None    Shift=    0.000
 Gap=     0.084 Goal=   None    Shift=    0.000
 RMSDP=9.55D-04 MaxDP=4.10D-02 DE=-3.26D-01 OVMax= 1.30D-01

 Cycle   4  Pass 1  IDiag  1:
 RMSU=  8.33D-04    CP:  9.61D-01  2.39D+00  7.19D-01
 E= -770.384829290986     Delta-E=       -0.028423091965 Rises=F Damp=F
 DIIS: error= 3.99D-03 at cycle   4 NSaved=   4.
 NSaved= 4 IEnMin= 4 EnMin= -770.384829290986     IErMin= 4 ErrMin= 3.99D-03
 ErrMax= 3.99D-03  0.00D+00 EMaxC= 1.00D-01 BMatC= 2.79D-02 BMatP= 1.25D-01
 IDIUse=3 WtCom= 9.60D-01 WtEn= 3.99D-02
 Coeff-Com: -0.535D-01 0.119D+00 0.315D+00 0.620D+00
 Coeff-En:   0.000D+00 0.000D+00 0.162D+00 0.838D+00
 Coeff:     -0.514D-01 0.114D+00 0.309D+00 0.629D+00
 Gap=     0.181 Goal=   None    Shift=    0.000
 Gap=     0.095 Goal=   None    Shift=    0.000
 RMSDP=4.18D-04 MaxDP=2.65D-02 DE=-2.84D-02 OVMax= 6.68D-02

 Cycle   5  Pass 1  IDiag  1:
 RMSU=  2.98D-04    CP:  9.59D-01  2.38D+00  8.73D-01  8.22D-01
 E= -770.394324057731     Delta-E=       -0.009494766746 Rises=F Damp=F
 DIIS: error= 1.12D-03 at cycle   5 NSaved=   5.
 NSaved= 5 IEnMin= 5 EnMin= -770.394324057731     IErMin= 5 ErrMin= 1.12D-03
 ErrMax= 1.12D-03  0.00D+00 EMaxC= 1.00D-01 BMatC= 2.83D-03 BMatP= 2.79D-02
 IDIUse=3 WtCom= 9.89D-01 WtEn= 1.12D-02
 Coeff-Com: -0.190D-02 0.401D-02 0.886D-01 0.301D+00 0.608D+00
 Coeff-En:   0.000D+00 0.000D+00 0.000D+00 0.000D+00 0.100D+01
 Coeff:     -0.187D-02 0.396D-02 0.876D-01 0.298D+00 0.612D+00
 Gap=     0.186 Goal=   None    Shift=    0.000
 Gap=     0.100 Goal=   None    Shift=    0.000
 RMSDP=1.59D-04 MaxDP=1.19D-02 DE=-9.49D-03 OVMax= 4.21D-02

 Cycle   6  Pass 1  IDiag  1:
 RMSU=  1.22D-04    CP:  9.58D-01  2.40D+00  8.78D-01  9.27D-01  1.15D+00
 E= -770.395761096333     Delta-E=       -0.001437038602 Rises=F Damp=F
 DIIS: error= 5.18D-04 at cycle   6 NSaved=   6.
 NSaved= 6 IEnMin= 6 EnMin= -770.395761096333     IErMin= 6 ErrMin= 5.18D-04
 ErrMax= 5.18D-04  0.00D+00 EMaxC= 1.00D-01 BMatC= 7.82D-04 BMatP= 2.83D-03
 IDIUse=3 WtCom= 9.95D-01 WtEn= 5.18D-03
 Coeff-Com:  0.668D-02-0.162D-01-0.483D-01-0.184D-01 0.328D+00 0.748D+00
 Coeff-En:   0.000D+00 0.000D+00 0.000D+00 0.000D+00 0.000D+00 0.100D+01
 Coeff:      0.665D-02-0.161D-01-0.480D-01-0.183D-01 0.326D+00 0.749D+00
 Gap=     0.190 Goal=   None    Shift=    0.000
 Gap=     0.106 Goal=   None    Shift=    0.000
 RMSDP=1.34D-04 MaxDP=1.43D-02 DE=-1.44D-03 OVMax= 3.81D-02

 Cycle   7  Pass 1  IDiag  1:
 RMSU=  6.39D-05    CP:  9.58D-01  2.41D+00  8.81D-01  9.88D-01  1.49D+00
                    CP:  1.27D+00
 E= -770.396508916998     Delta-E=       -0.000747820665 Rises=F Damp=F
 DIIS: error= 3.82D-04 at cycle   7 NSaved=   7.
 NSaved= 7 IEnMin= 7 EnMin= -770.396508916998     IErMin= 7 ErrMin= 3.82D-04
 ErrMax= 3.82D-04  0.00D+00 EMaxC= 1.00D-01 BMatC= 1.41D-04 BMatP= 7.82D-04
 IDIUse=3 WtCom= 9.96D-01 WtEn= 3.82D-03
 Coeff-Com: -0.293D-02 0.594D-02-0.288D-01-0.671D-01-0.919D-01 0.173D+00
 Coeff-Com:  0.101D+01
 Coeff-En:   0.000D+00 0.000D+00 0.000D+00 0.000D+00 0.000D+00 0.000D+00
 Coeff-En:   0.100D+01
 Coeff:     -0.292D-02 0.592D-02-0.287D-01-0.669D-01-0.915D-01 0.172D+00
 Coeff:      0.101D+01
 Gap=     0.191 Goal=   None    Shift=    0.000
 Gap=     0.108 Goal=   None    Shift=    0.000
 RMSDP=1.11D-04 MaxDP=1.35D-02 DE=-7.48D-04 OVMax= 3.43D-02

 Cycle   8  Pass 1  IDiag  1:
 RMSU=  3.51D-05    CP:  9.57D-01  2.41D+00  8.82D-01  1.03D+00  1.71D+00
                    CP:  1.76D+00  1.63D+00
 E= -770.396832596177     Delta-E=       -0.000323679179 Rises=F Damp=F
 DIIS: error= 2.44D-04 at cycle   8 NSaved=   8.
 NSaved= 8 IEnMin= 8 EnMin= -770.396832596177     IErMin= 8 ErrMin= 2.44D-04
 ErrMax= 2.44D-04  0.00D+00 EMaxC= 1.00D-01 BMatC= 8.51D-05 BMatP= 1.41D-04
 IDIUse=3 WtCom= 9.98D-01 WtEn= 2.44D-03
 Coeff-Com: -0.202D-02 0.603D-02 0.596D-03-0.216D-01-0.124D+00-0.920D-01
 Coeff-Com:  0.546D+00 0.687D+00
 Coeff-En:   0.000D+00 0.000D+00 0.000D+00 0.000D+00 0.000D+00 0.000D+00
 Coeff-En:   0.000D+00 0.100D+01
 Coeff:     -0.202D-02 0.601D-02 0.594D-03-0.216D-01-0.124D+00-0.917D-01
 Coeff:      0.544D+00 0.688D+00
 Gap=     0.191 Goal=   None    Shift=    0.000
 Gap=     0.110 Goal=   None    Shift=    0.000
 RMSDP=5.59D-05 MaxDP=5.78D-03 DE=-3.24D-04 OVMax= 1.70D-02

 Cycle   9  Pass 1  IDiag  1:
 RMSU=  1.96D-05    CP:  9.57D-01  2.42D+00  8.80D-01  1.04D+00  1.82D+00
                    CP:  1.97D+00  2.09D+00  1.31D+00
 E= -770.396937621786     Delta-E=       -0.000105025609 Rises=F Damp=F
 DIIS: error= 1.98D-04 at cycle   9 NSaved=   9.
 NSaved= 9 IEnMin= 9 EnMin= -770.396937621786     IErMin= 9 ErrMin= 1.98D-04
 ErrMax= 1.98D-04  0.00D+00 EMaxC= 1.00D-01 BMatC= 2.77D-05 BMatP= 8.51D-05
 IDIUse=3 WtCom= 9.98D-01 WtEn= 1.98D-03
 Coeff-Com:  0.109D-02-0.647D-03 0.155D-01 0.231D-01-0.249D-01-0.123D+00
 Coeff-Com: -0.130D+00 0.381D+00 0.858D+00
 Coeff-En:   0.000D+00 0.000D+00 0.000D+00 0.000D+00 0.000D+00 0.000D+00
 Coeff-En:   0.000D+00 0.000D+00 0.100D+01
 Coeff:      0.109D-02-0.646D-03 0.154D-01 0.231D-01-0.248D-01-0.123D+00
 Coeff:     -0.130D+00 0.380D+00 0.858D+00
 Gap=     0.191 Goal=   None    Shift=    0.000
 Gap=     0.110 Goal=   None    Shift=    0.000
 RMSDP=4.77D-05 MaxDP=6.14D-03 DE=-1.05D-04 OVMax= 1.48D-02

 Cycle  10  Pass 1  IDiag  1:
 RMSU=  1.34D-05    CP:  9.57D-01  2.42D+00  8.79D-01  1.06D+00  1.89D+00
                    CP:  2.16D+00  2.47D+00  1.86D+00  1.19D+00
 E= -770.396991039449     Delta-E=       -0.000053417663 Rises=F Damp=F
 DIIS: error= 1.28D-04 at cycle  10 NSaved=  10.
 NSaved=10 IEnMin=10 EnMin= -770.396991039449     IErMin=10 ErrMin= 1.28D-04
 ErrMax= 1.28D-04  0.00D+00 EMaxC= 1.00D-01 BMatC= 2.11D-05 BMatP= 2.77D-05
 IDIUse=3 WtCom= 9.99D-01 WtEn= 1.28D-03
 Coeff-Com:  0.192D-02-0.281D-02 0.145D-01 0.299D-01 0.265D-01-0.744D-01
 Coeff-Com: -0.345D+00 0.170D-01 0.671D+00 0.661D+00
 Coeff-En:   0.000D+00 0.000D+00 0.000D+00 0.000D+00 0.000D+00 0.000D+00
 Coeff-En:   0.000D+00 0.000D+00 0.000D+00 0.100D+01
 Coeff:      0.192D-02-0.281D-02 0.145D-01 0.298D-01 0.264D-01-0.743D-01
 Coeff:     -0.344D+00 0.170D-01 0.671D+00 0.661D+00
 Gap=     0.191 Goal=   None    Shift=    0.000
 Gap=     0.110 Goal=   None    Shift=    0.000
 RMSDP=3.65D-05 MaxDP=4.03D-03 DE=-5.34D-05 OVMax= 1.18D-02

 Cycle  11  Pass 1  IDiag  1:
 RMSU=  6.95D-06    CP:  9.57D-01  2.42D+00  8.78D-01  1.06D+00  1.95D+00
                    CP:  2.30D+00  2.78D+00  2.26D+00  1.72D+00  9.86D-01
 E= -770.397015328938     Delta-E=       -0.000024289489 Rises=F Damp=F
 DIIS: error= 4.10D-05 at cycle  11 NSaved=  11.
 NSaved=11 IEnMin=11 EnMin= -770.397015328938     IErMin=11 ErrMin= 4.10D-05
 ErrMax= 4.10D-05  0.00D+00 EMaxC= 1.00D-01 BMatC= 2.77D-06 BMatP= 2.11D-05
 IDIUse=1 WtCom= 1.00D+00 WtEn= 0.00D+00
 Coeff-Com:  0.384D-03-0.837D-03 0.185D-03 0.227D-02 0.157D-01 0.916D-02
 Coeff-Com: -0.682D-01-0.885D-01-0.598D-01 0.287D+00 0.903D+00
 Coeff:      0.384D-03-0.837D-03 0.185D-03 0.227D-02 0.157D-01 0.916D-02
 Coeff:     -0.682D-01-0.885D-01-0.598D-01 0.287D+00 0.903D+00
 Gap=     0.191 Goal=   None    Shift=    0.000
 Gap=     0.110 Goal=   None    Shift=    0.000
 RMSDP=1.68D-05 MaxDP=1.73D-03 DE=-2.43D-05 OVMax= 5.76D-03

 Cycle  12  Pass 1  IDiag  1:
 RMSU=  3.50D-06    CP:  9.57D-01  2.42D+00  8.78D-01  1.07D+00  1.97D+00
                    CP:  2.36D+00  2.90D+00  2.45D+00  1.91D+00  1.32D+00
                    CP:  1.27D+00
 E= -770.397019940558     Delta-E=       -0.000004611620 Rises=F Damp=F
 DIIS: error= 2.09D-05 at cycle  12 NSaved=  12.
 NSaved=12 IEnMin=12 EnMin= -770.397019940558     IErMin=12 ErrMin= 2.09D-05
 ErrMax= 2.09D-05  0.00D+00 EMaxC= 1.00D-01 BMatC= 9.26D-07 BMatP= 2.77D-06
 IDIUse=1 WtCom= 1.00D+00 WtEn= 0.00D+00
 Coeff-Com: -0.156D-03 0.697D-04-0.324D-02-0.561D-02 0.442D-02 0.220D-01
 Coeff-Com:  0.374D-01-0.582D-01-0.223D+00 0.393D-01 0.510D+00 0.677D+00
 Coeff:     -0.156D-03 0.697D-04-0.324D-02-0.561D-02 0.442D-02 0.220D-01
 Coeff:      0.374D-01-0.582D-01-0.223D+00 0.393D-01 0.510D+00 0.677D+00
 Gap=     0.191 Goal=   None    Shift=    0.000
 Gap=     0.110 Goal=   None    Shift=    0.000
 RMSDP=8.08D-06 MaxDP=8.33D-04 DE=-4.61D-06 OVMax= 2.83D-03

 Cycle  13  Pass 1  IDiag  1:
 RMSU=  1.57D-06    CP:  9.57D-01  2.42D+00  8.77D-01  1.07D+00  1.99D+00
                    CP:  2.39D+00  2.96D+00  2.54D+00  2.00D+00  1.48D+00
                    CP:  1.56D+00  9.97D-01
 E= -770.397020966760     Delta-E=       -0.000001026203 Rises=F Damp=F
 DIIS: error= 9.03D-06 at cycle  13 NSaved=  13.
 NSaved=13 IEnMin=13 EnMin= -770.397020966760     IErMin=13 ErrMin= 9.03D-06
 ErrMax= 9.03D-06  0.00D+00 EMaxC= 1.00D-01 BMatC= 1.90D-07 BMatP= 9.26D-07
 IDIUse=1 WtCom= 1.00D+00 WtEn= 0.00D+00
 Coeff-Com: -0.161D-03 0.247D-03-0.132D-02-0.277D-02-0.108D-02 0.689D-02
 Coeff-Com:  0.347D-01 0.229D-02-0.931D-01-0.370D-01-0.560D-01 0.285D+00
 Coeff-Com:  0.862D+00
 Coeff:     -0.161D-03 0.247D-03-0.132D-02-0.277D-02-0.108D-02 0.689D-02
 Coeff:      0.347D-01 0.229D-02-0.931D-01-0.370D-01-0.560D-01 0.285D+00
 Coeff:      0.862D+00
 Gap=     0.191 Goal=   None    Shift=    0.000
 Gap=     0.110 Goal=   None    Shift=    0.000
 RMSDP=2.95D-06 MaxDP=2.76D-04 DE=-1.03D-06 OVMax= 9.89D-04

 Cycle  14  Pass 1  IDiag  1:
 RMSU=  7.41D-07    CP:  9.57D-01  2.42D+00  8.77D-01  1.07D+00  1.99D+00
                    CP:  2.40D+00  2.97D+00  2.56D+00  2.04D+00  1.57D+00
                    CP:  1.69D+00  1.25D+00  1.08D+00
 E= -770.397021106985     Delta-E=       -0.000000140225 Rises=F Damp=F
 DIIS: error= 4.00D-06 at cycle  14 NSaved=  14.
 NSaved=14 IEnMin=14 EnMin= -770.397021106985     IErMin=14 ErrMin= 4.00D-06
 ErrMax= 4.00D-06  0.00D+00 EMaxC= 1.00D-01 BMatC= 5.46D-08 BMatP= 1.90D-07
 IDIUse=1 WtCom= 1.00D+00 WtEn= 0.00D+00
 Coeff-Com: -0.753D-04 0.150D-03-0.131D-03-0.507D-03-0.113D-02-0.426D-03
 Coeff-Com:  0.121D-01 0.132D-01-0.181D-01-0.165D-01-0.130D+00 0.497D-01
 Coeff-Com:  0.475D+00 0.616D+00
 Coeff:     -0.753D-04 0.150D-03-0.131D-03-0.507D-03-0.113D-02-0.426D-03
 Coeff:      0.121D-01 0.132D-01-0.181D-01-0.165D-01-0.130D+00 0.497D-01
 Coeff:      0.475D+00 0.616D+00
 Gap=     0.191 Goal=   None    Shift=    0.000
 Gap=     0.110 Goal=   None    Shift=    0.000
 RMSDP=7.66D-07 MaxDP=6.31D-05 DE=-1.40D-07 OVMax= 2.17D-04

 Cycle  15  Pass 1  IDiag  1:
 RMSU=  3.16D-07    CP:  9.57D-01  2.42D+00  8.77D-01  1.07D+00  1.99D+00
                    CP:  2.40D+00  2.98D+00  2.57D+00  2.04D+00  1.59D+00
                    CP:  1.73D+00  1.32D+00  1.26D+00  9.14D-01
 E= -770.397021127979     Delta-E=       -0.000000020994 Rises=F Damp=F
 DIIS: error= 2.05D-06 at cycle  15 NSaved=  15.
 NSaved=15 IEnMin=15 EnMin= -770.397021127979     IErMin=15 ErrMin= 2.05D-06
 ErrMax= 2.05D-06  0.00D+00 EMaxC= 1.00D-01 BMatC= 7.52D-09 BMatP= 5.46D-08
 IDIUse=1 WtCom= 1.00D+00 WtEn= 0.00D+00
 Coeff-Com:  0.430D-05 0.576D-05 0.242D-03 0.434D-03-0.577D-04-0.192D-02
 Coeff-Com: -0.336D-02 0.586D-02 0.995D-02 0.742D-02-0.456D-01-0.342D-01
 Coeff-Com: -0.697D-02 0.239D+00 0.829D+00
 Coeff:      0.430D-05 0.576D-05 0.242D-03 0.434D-03-0.577D-04-0.192D-02
 Coeff:     -0.336D-02 0.586D-02 0.995D-02 0.742D-02-0.456D-01-0.342D-01
 Coeff:     -0.697D-02 0.239D+00 0.829D+00
 Gap=     0.191 Goal=   None    Shift=    0.000
 Gap=     0.110 Goal=   None    Shift=    0.000
 RMSDP=3.15D-07 MaxDP=2.25D-05 DE=-2.10D-08 OVMax= 8.89D-05

 Cycle  16  Pass 1  IDiag  1:
 RMSU=  1.18D-07    CP:  9.57D-01  2.42D+00  8.77D-01  1.07D+00  1.99D+00
                    CP:  2.40D+00  2.98D+00  2.57D+00  2.04D+00  1.60D+00
                    CP:  1.73D+00  1.35D+00  1.32D+00  1.07D+00  1.03D+00
 E= -770.397021130958     Delta-E=       -0.000000002979 Rises=F Damp=F
 DIIS: error= 4.66D-07 at cycle  16 NSaved=  16.
 NSaved=16 IEnMin=16 EnMin= -770.397021130958     IErMin=16 ErrMin= 4.66D-07
 ErrMax= 4.66D-07  0.00D+00 EMaxC= 1.00D-01 BMatC= 6.69D-10 BMatP= 7.52D-09
 IDIUse=1 WtCom= 1.00D+00 WtEn= 0.00D+00
 Coeff-Com:  0.822D-05-0.136D-04 0.846D-04 0.192D-03 0.135D-03-0.625D-03
 Coeff-Com: -0.271D-02 0.401D-03 0.458D-02 0.566D-02 0.208D-02-0.137D-01
 Coeff-Com: -0.652D-01-0.378D-02 0.265D+00 0.808D+00
 Coeff:      0.822D-05-0.136D-04 0.846D-04 0.192D-03 0.135D-03-0.625D-03
 Coeff:     -0.271D-02 0.401D-03 0.458D-02 0.566D-02 0.208D-02-0.137D-01
 Coeff:     -0.652D-01-0.378D-02 0.265D+00 0.808D+00
 Gap=     0.191 Goal=   None    Shift=    0.000
 Gap=     0.110 Goal=   None    Shift=    0.000
 RMSDP=9.19D-08 MaxDP=5.32D-06 DE=-2.98D-09 OVMax= 1.62D-05

 Cycle  17  Pass 1  IDiag  1:
 RMSU=  5.85D-08    CP:  9.57D-01  2.42D+00  8.77D-01  1.07D+00  1.99D+00
                    CP:  2.40D+00  2.98D+00  2.57D+00  2.04D+00  1.60D+00
                    CP:  1.74D+00  1.36D+00  1.34D+00  1.11D+00  1.14D+00
                    CP:  1.08D+00
 E= -770.397021131263     Delta-E=       -0.000000000304 Rises=F Damp=F
 DIIS: error= 2.85D-07 at cycle  17 NSaved=  17.
 NSaved=17 IEnMin=17 EnMin= -770.397021131263     IErMin=17 ErrMin= 2.85D-07
 ErrMax= 2.85D-07  0.00D+00 EMaxC= 1.00D-01 BMatC= 2.20D-10 BMatP= 6.69D-10
 IDIUse=1 WtCom= 1.00D+00 WtEn= 0.00D+00
 Coeff-Com:  0.746D-06-0.347D-05 0.199D-05 0.275D-04 0.973D-04 0.328D-04
 Coeff-Com: -0.786D-03-0.831D-03 0.439D-03 0.161D-02 0.958D-02-0.280D-03
 Coeff-Com: -0.324D-01-0.461D-01-0.215D-01 0.441D+00 0.649D+00
 Coeff:      0.746D-06-0.347D-05 0.199D-05 0.275D-04 0.973D-04 0.328D-04
 Coeff:     -0.786D-03-0.831D-03 0.439D-03 0.161D-02 0.958D-02-0.280D-03
 Coeff:     -0.324D-01-0.461D-01-0.215D-01 0.441D+00 0.649D+00
 Gap=     0.191 Goal=   None    Shift=    0.000
 Gap=     0.110 Goal=   None    Shift=    0.000
 RMSDP=4.13D-08 MaxDP=3.84D-06 DE=-3.04D-10 OVMax= 9.50D-06

 Cycle  18  Pass 1  IDiag  1:
 RMSU=  2.58D-08    CP:  9.57D-01  2.42D+00  8.77D-01  1.07D+00  1.99D+00
                    CP:  2.40D+00  2.98D+00  2.57D+00  2.04D+00  1.60D+00
                    CP:  1.74D+00  1.36D+00  1.34D+00  1.13D+00  1.18D+00
                    CP:  1.24D+00  9.10D-01
 E= -770.397021131355     Delta-E=       -0.000000000093 Rises=F Damp=F
 DIIS: error= 1.24D-07 at cycle  18 NSaved=  18.
 NSaved=18 IEnMin=18 EnMin= -770.397021131355     IErMin=18 ErrMin= 1.24D-07
 ErrMax= 1.24D-07  0.00D+00 EMaxC= 1.00D-01 BMatC= 3.20D-11 BMatP= 2.20D-10
 IDIUse=1 WtCom= 1.00D+00 WtEn= 0.00D+00
 Coeff-Com: -0.151D-05 0.148D-05-0.191D-04-0.340D-04 0.105D-04 0.150D-03
 Coeff-Com:  0.255D-03-0.394D-03-0.893D-03-0.466D-03 0.346D-02 0.281D-02
 Coeff-Com: -0.413D-03-0.179D-01-0.672D-01 0.151D-01 0.259D+00 0.807D+00
 Coeff:     -0.151D-05 0.148D-05-0.191D-04-0.340D-04 0.105D-04 0.150D-03
 Coeff:      0.255D-03-0.394D-03-0.893D-03-0.466D-03 0.346D-02 0.281D-02
 Coeff:     -0.413D-03-0.179D-01-0.672D-01 0.151D-01 0.259D+00 0.807D+00
 Gap=     0.191 Goal=   None    Shift=    0.000
 Gap=     0.110 Goal=   None    Shift=    0.000
 RMSDP=2.10D-08 MaxDP=1.47D-06 DE=-9.25D-11 OVMax= 4.15D-06

 Cycle  19  Pass 1  IDiag  1:
 RMSU=  1.26D-08    CP:  9.57D-01  2.42D+00  8.77D-01  1.07D+00  1.99D+00
                    CP:  2.40D+00  2.98D+00  2.57D+00  2.04D+00  1.60D+00
                    CP:  1.74D+00  1.36D+00  1.34D+00  1.13D+00  1.19D+00
                    CP:  1.31D+00  1.09D+00  1.06D+00
 E= -770.397021131374     Delta-E=       -0.000000000019 Rises=F Damp=F
 DIIS: error= 8.04D-08 at cycle  19 NSaved=  19.
 NSaved=19 IEnMin=19 EnMin= -770.397021131374     IErMin=19 ErrMin= 8.04D-08
 ErrMax= 8.04D-08  0.00D+00 EMaxC= 1.00D-01 BMatC= 1.19D-11 BMatP= 3.20D-11
 IDIUse=1 WtCom= 1.00D+00 WtEn= 0.00D+00
 Coeff-Com: -0.962D-06 0.147D-05-0.852D-05-0.192D-04-0.411D-05 0.676D-04
 Coeff-Com:  0.232D-03-0.352D-04-0.563D-03-0.349D-03-0.696D-04 0.148D-02
 Coeff-Com:  0.488D-02-0.535D-03-0.279D-01-0.641D-01 0.555D-02 0.390D+00
 Coeff-Com:  0.691D+00
 Coeff:     -0.962D-06 0.147D-05-0.852D-05-0.192D-04-0.411D-05 0.676D-04
 Coeff:      0.232D-03-0.352D-04-0.563D-03-0.349D-03-0.696D-04 0.148D-02
 Coeff:      0.488D-02-0.535D-03-0.279D-01-0.641D-01 0.555D-02 0.390D+00
 Coeff:      0.691D+00
 Gap=     0.191 Goal=   None    Shift=    0.000
 Gap=     0.110 Goal=   None    Shift=    0.000
 RMSDP=1.08D-08 MaxDP=7.70D-07 DE=-1.86D-11 OVMax= 2.43D-06

 Cycle  20  Pass 1  IDiag  1:
 RMSU=  6.53D-09    CP:  9.57D-01  2.42D+00  8.77D-01  1.07D+00  1.99D+00
                    CP:  2.40D+00  2.98D+00  2.57D+00  2.04D+00  1.60D+00
                    CP:  1.74D+00  1.36D+00  1.34D+00  1.13D+00  1.20D+00
                    CP:  1.34D+00  1.12D+00  1.27D+00  1.12D+00
 E= -770.397021131382     Delta-E=       -0.000000000008 Rises=F Damp=F
 DIIS: error= 4.78D-08 at cycle  20 NSaved=  20.
 NSaved=20 IEnMin=20 EnMin= -770.397021131382     IErMin=20 ErrMin= 4.78D-08
 ErrMax= 4.78D-08  0.00D+00 EMaxC= 1.00D-01 BMatC= 3.93D-12 BMatP= 1.19D-11
 IDIUse=1 WtCom= 1.00D+00 WtEn= 0.00D+00
 Coeff-Com:  0.167D-06 0.796D-07 0.394D-05 0.445D-05-0.527D-05-0.331D-04
 Coeff-Com: -0.378D-05 0.164D-03 0.534D-04 0.153D-03-0.154D-02-0.332D-03
 Coeff-Com:  0.206D-02 0.706D-02 0.159D-01-0.348D-01-0.112D+00-0.164D+00
 Coeff-Com:  0.355D+00 0.932D+00
 Coeff:      0.167D-06 0.796D-07 0.394D-05 0.445D-05-0.527D-05-0.331D-04
 Coeff:     -0.378D-05 0.164D-03 0.534D-04 0.153D-03-0.154D-02-0.332D-03
 Coeff:      0.206D-02 0.706D-02 0.159D-01-0.348D-01-0.112D+00-0.164D+00
 Coeff:      0.355D+00 0.932D+00
 Gap=     0.191 Goal=   None    Shift=    0.000
 Gap=     0.110 Goal=   None    Shift=    0.000
 RMSDP=9.84D-09 MaxDP=5.85D-07 DE=-8.19D-12 OVMax= 1.86D-06

 Error on total polarization charges =  0.00968
 SCF Done:  E(UB3LYP) =  -770.397021131     A.U. after   20 cycles
            NFock= 20  Conv=0.98D-08     -V/T= 2.0095
 <Sx>= 0.0000 <Sy>= 0.0000 <Sz>= 0.5000 <S**2>= 0.7618 S= 0.5059
 <L.S>=  0.00000000000    
 KE= 7.631576306759D+02 PE=-4.444509778805D+03 EE= 1.583817014658D+03
 Annihilation of the first spin contaminant:
 S**2 before annihilation     0.7618,   after     0.7501
 Leave Link  502 at Sat May 25 04:16:11 2019, MaxMem=   104857600 cpu:            1553.1 elap:              49.4
 (Enter /opt/software/gaussian/g16.b01/l801.exe)
 DoSCS=F DFT=T ScalE2(SS,OS)=  1.000000  1.000000
 ExpMin= 1.61D-01 ExpMax= 5.48D+03 ExpMxC= 8.25D+02 IAcc=3 IRadAn=         5 AccDes= 0.00D+00
 HarFok:  IExCor=  205 AccDes= 0.00D+00 IRadAn=         5 IDoV=-2 UseB2=F ITyADJ=14
 ICtDFT= 12500011 ScaDFX=  1.000000  1.000000  1.000000  1.000000
 Largest valence mixing into a core orbital is  5.96D-05
 Largest core mixing into a valence orbital is  1.20D-05
 Largest valence mixing into a core orbital is  6.43D-05
 Largest core mixing into a valence orbital is  1.21D-05
 Range of M.O.s used for correlation:    19   355
 NBasis=   355 NAE=    65 NBE=    64 NFC=    18 NFV=     0
 NROrb=    337 NOA=    47 NOB=    46 NVA=   290 NVB=   291
 Leave Link  801 at Sat May 25 04:16:12 2019, MaxMem=   104857600 cpu:               4.6 elap:               0.2
 (Enter /opt/software/gaussian/g16.b01/l914.exe)
 UHF ground state
 Ignoring spin specification with unrestricted ground state.
 Two-electron integrals replicated using symmetry.
 MDV=   104857600 DFT=T DoStab=F Mixed=T DoRPA=T DoScal=F NonHer=T
 NEqPCM:  Using non-equilibrium solvation (IEInf=1, Eps=  35.6880, EpsInf=   1.8069)
 Inv3:  Mode=1 IEnd=    17337648.
 Iteration    1 A*A^-1 deviation from unit magnitude is 3.00D-15 for    629.
 Iteration    1 A*A^-1 deviation from orthogonality  is 1.85D-15 for   1897   1569.
 Iteration    1 A^-1*A deviation from unit magnitude is 3.33D-15 for    629.
 Iteration    1 A^-1*A deviation from orthogonality  is 1.44D-15 for   1950    496.
 Making orbital integer symmetry assigments:
 Orbital symmetries:
 Alpha Orbitals:
       Occupied  (A) (A) (A) (A) (A) (A) (A) (A) (A) (A) (A) (A)
                 (A) (A) (A) (A) (A) (A) (A) (A) (A) (A) (A) (A)
                 (A) (A) (A) (A) (A) (A) (A) (A) (A) (A) (A) (A)
                 (A) (A) (A) (A) (A) (A) (A) (A) (A) (A) (A) (A)
                 (A) (A) (A) (A) (A) (A) (A) (A) (A) (A) (A) (A)
                 (A) (A) (A) (A) (A)
       Virtual   (A) (A) (A) (A) (A) (A) (A) (A) (A) (A) (A) (A)
                 (A) (A) (A) (A) (A) (A) (A) (A) (A) (A) (A) (A)
                 (A) (A) (A) (A) (A) (A) (A) (A) (A) (A) (A) (A)
                 (A) (A) (A) (A) (A) (A) (A) (A) (A) (A) (A) (A)
                 (A) (A) (A) (A) (A) (A) (A) (A) (A) (A) (A) (A)
                 (A) (A) (A) (A) (A) (A) (A) (A) (A) (A) (A) (A)
                 (A) (A) (A) (A) (A) (A) (A) (A) (A) (A) (A) (A)
                 (A) (A) (A) (A) (A) (A) (A) (A) (A) (A) (A) (A)
                 (A) (A) (A) (A) (A) (A) (A) (A) (A) (A) (A) (A)
                 (A) (A) (A) (A) (A) (A) (A) (A) (A) (A) (A) (A)
                 (A) (A) (A) (A) (A) (A) (A) (A) (A) (A) (A) (A)
                 (A) (A) (A) (A) (A) (A) (A) (A) (A) (A) (A) (A)
                 (A) (A) (A) (A) (A) (A) (A) (A) (A) (A) (A) (A)
                 (A) (A) (A) (A) (A) (A) (A) (A) (A) (A) (A) (A)
                 (A) (A) (A) (A) (A) (A) (A) (A) (A) (A) (A) (A)
                 (A) (A) (A) (A) (A) (A) (A) (A) (A) (A) (A) (A)
                 (A) (A) (A) (A) (A) (A) (A) (A) (A) (A) (A) (A)
                 (A) (A) (A) (A) (A) (A) (A) (A) (A) (A) (A) (A)
                 (A) (A) (A) (A) (A) (A) (A) (A) (A) (A) (A) (A)
                 (A) (A) (A) (A) (A) (A) (A) (A) (A) (A) (A) (A)
                 (A) (A) (A) (A) (A) (A) (A) (A) (A) (A) (A) (A)
                 (A) (A) (A) (A) (A) (A) (A) (A) (A) (A) (A) (A)
                 (A) (A) (A) (A) (A) (A) (A) (A) (A) (A) (A) (A)
                 (A) (A) (A) (A) (A) (A) (A) (A) (A) (A) (A) (A)
                 (A) (A)
 Beta  Orbitals:
       Occupied  (A) (A) (A) (A) (A) (A) (A) (A) (A) (A) (A) (A)
                 (A) (A) (A) (A) (A) (A) (A) (A) (A) (A) (A) (A)
                 (A) (A) (A) (A) (A) (A) (A) (A) (A) (A) (A) (A)
                 (A) (A) (A) (A) (A) (A) (A) (A) (A) (A) (A) (A)
                 (A) (A) (A) (A) (A) (A) (A) (A) (A) (A) (A) (A)
                 (A) (A) (A) (A)
       Virtual   (A) (A) (A) (A) (A) (A) (A) (A) (A) (A) (A) (A)
                 (A) (A) (A) (A) (A) (A) (A) (A) (A) (A) (A) (A)
                 (A) (A) (A) (A) (A) (A) (A) (A) (A) (A) (A) (A)
                 (A) (A) (A) (A) (A) (A) (A) (A) (A) (A) (A) (A)
                 (A) (A) (A) (A) (A) (A) (A) (A) (A) (A) (A) (A)
                 (A) (A) (A) (A) (A) (A) (A) (A) (A) (A) (A) (A)
                 (A) (A) (A) (A) (A) (A) (A) (A) (A) (A) (A) (A)
                 (A) (A) (A) (A) (A) (A) (A) (A) (A) (A) (A) (A)
                 (A) (A) (A) (A) (A) (A) (A) (A) (A) (A) (A) (A)
                 (A) (A) (A) (A) (A) (A) (A) (A) (A) (A) (A) (A)
                 (A) (A) (A) (A) (A) (A) (A) (A) (A) (A) (A) (A)
                 (A) (A) (A) (A) (A) (A) (A) (A) (A) (A) (A) (A)
                 (A) (A) (A) (A) (A) (A) (A) (A) (A) (A) (A) (A)
                 (A) (A) (A) (A) (A) (A) (A) (A) (A) (A) (A) (A)
                 (A) (A) (A) (A) (A) (A) (A) (A) (A) (A) (A) (A)
                 (A) (A) (A) (A) (A) (A) (A) (A) (A) (A) (A) (A)
                 (A) (A) (A) (A) (A) (A) (A) (A) (A) (A) (A) (A)
                 (A) (A) (A) (A) (A) (A) (A) (A) (A) (A) (A) (A)
                 (A) (A) (A) (A) (A) (A) (A) (A) (A) (A) (A) (A)
                 (A) (A) (A) (A) (A) (A) (A) (A) (A) (A) (A) (A)
                 (A) (A) (A) (A) (A) (A) (A) (A) (A) (A) (A) (A)
                 (A) (A) (A) (A) (A) (A) (A) (A) (A) (A) (A) (A)
                 (A) (A) (A) (A) (A) (A) (A) (A) (A) (A) (A) (A)
                 (A) (A) (A) (A) (A) (A) (A) (A) (A) (A) (A) (A)
                 (A) (A) (A)
   144 initial guesses have been made.
 Convergence on wavefunction:    0.001000000000000
 Davidson Disk Diagonalization:  ConvIn= 1.00D-03 SkipCon=T Conv= 1.00D-03.
 Max sub-space:  2160 roots to seek:   144 dimension of matrix:        27016
 Iteration     1 Dimension   144 NMult     0 NNew    144
 CISAX will form     3 AO SS matrices at one time.
 NMat=     3 NSing=     3 JSym2X= 0.
 FoFJK:  IHMeth= 1 ICntrl=       0 DoSepK=F KAlg= 0 I1Cent=           0 FoldK=F
 IRaf= 840000000 NMat=       6 IRICut=       1 DoRegI=T DoRafI=F ISym2E= 0 IDoP0=0 IntGTp=1.
 NMat=     3 NSing=     3 JSym2X= 0.
 NMat=     3 NSing=     3 JSym2X= 0.
 NMat=     3 NSing=     3 JSym2X= 0.
 NMat=     3 NSing=     3 JSym2X= 0.
 NMat=     3 NSing=     3 JSym2X= 0.
 NMat=     3 NSing=     3 JSym2X= 0.
 NMat=     3 NSing=     3 JSym2X= 0.
 NMat=     3 NSing=     3 JSym2X= 0.
 NMat=     3 NSing=     3 JSym2X= 0.
 NMat=     3 NSing=     3 JSym2X= 0.
 NMat=     3 NSing=     3 JSym2X= 0.
 NMat=     3 NSing=     3 JSym2X= 0.
 NMat=     3 NSing=     3 JSym2X= 0.
 NMat=     3 NSing=     3 JSym2X= 0.
 NMat=     3 NSing=     3 JSym2X= 0.
 NMat=     3 NSing=     3 JSym2X= 0.
 NMat=     3 NSing=     3 JSym2X= 0.
 NMat=     3 NSing=     3 JSym2X= 0.
 NMat=     3 NSing=     3 JSym2X= 0.
 NMat=     3 NSing=     3 JSym2X= 0.
 NMat=     3 NSing=     3 JSym2X= 0.
 NMat=     3 NSing=     3 JSym2X= 0.
 NMat=     3 NSing=     3 JSym2X= 0.
 NMat=     3 NSing=     3 JSym2X= 0.
 NMat=     3 NSing=     3 JSym2X= 0.
 NMat=     3 NSing=     3 JSym2X= 0.
 NMat=     3 NSing=     3 JSym2X= 0.
 NMat=     3 NSing=     3 JSym2X= 0.
 NMat=     3 NSing=     3 JSym2X= 0.
 NMat=     3 NSing=     3 JSym2X= 0.
 NMat=     3 NSing=     3 JSym2X= 0.
 NMat=     3 NSing=     3 JSym2X= 0.
 NMat=     3 NSing=     3 JSym2X= 0.
 NMat=     3 NSing=     3 JSym2X= 0.
 NMat=     3 NSing=     3 JSym2X= 0.
 NMat=     3 NSing=     3 JSym2X= 0.
 NMat=     3 NSing=     3 JSym2X= 0.
 NMat=     3 NSing=     3 JSym2X= 0.
 NMat=     3 NSing=     3 JSym2X= 0.
 NMat=     3 NSing=     3 JSym2X= 0.
 NMat=     3 NSing=     3 JSym2X= 0.
 NMat=     3 NSing=     3 JSym2X= 0.
 NMat=     3 NSing=     3 JSym2X= 0.
 NMat=     3 NSing=     3 JSym2X= 0.
 NMat=     3 NSing=     3 JSym2X= 0.
 NMat=     3 NSing=     3 JSym2X= 0.
 NMat=     3 NSing=     3 JSym2X= 0.
 New state      7 was old state      8
 New state      8 was old state     46
 New state      9 was old state     42
 New state     10 was old state      9
 New state     11 was old state      7
 New state     13 was old state     10
 New state     16 was old state     13
 No map to state     17
 New state     18 was old state     11
 New state     19 was old state     29
 New state     20 was old state     16
 New state     21 was old state     18
 New state     22 was old state     23
 New state     23 was old state     19
 New state     25 was old state     20
 New state     26 was old state     22
 New state     27 was old state     33
 New state     28 was old state     25
 New state     29 was old state     37
 New state     30 was old state     44
 New state     31 was old state     28
 New state     32 was old state     30
 New state     33 was old state     36
 New state     34 was old state     40
 New state     35 was old state     34
 New state     36 was old state     35
 Excitation Energies [eV] at current iteration:
 Root      1 :     1.208639870574880
 Root      2 :     2.400324146707737
 Root      3 :     2.495089714446022
 Root      4 :     2.773669375848459
 Root      5 :     3.071248359813568
 Root      6 :     3.628960881618190
 Root      7 :     4.073850767471733
 Root      8 :     4.262707857725241
 Root      9 :     4.365428050926048
 Root     10 :     4.546397445621269
 Root     11 :     4.616013878869107
 Root     12 :     4.708792995340846
 Root     13 :     4.748842357344610
 Root     14 :     4.798733780845637
 Root     15 :     4.890824164167674
 Root     16 :     4.928539500650433
 Root     17 :     5.003262730382236
 Root     18 :     5.030250648843692
 Root     19 :     5.068036167956321
 Root     20 :     5.141441827941437
 Root     21 :     5.229301949514821
 Root     22 :     5.262458639279517
 Root     23 :     5.293736314128184
 Root     24 :     5.355497878779046
 Root     25 :     5.432580682573889
 Root     26 :     5.487756205404947
 Root     27 :     5.583372061435774
 Root     28 :     5.603064941317247
 Root     29 :     5.631318627482646
 Root     30 :     5.647090451517630
 Root     31 :     5.730105237562282
 Root     32 :     5.766977284694272
 Root     33 :     5.813909978885024
 Root     34 :     5.839983253563733
 Root     35 :     5.860265040299798
 Root     36 :     5.875400217551062
 Root     37 :     5.904619194828966
 Root     38 :     5.911725050246000
 Root     39 :     5.943003595029028
 Root     40 :     5.956338718204921
 Root     41 :     6.017631315603531
 Root     42 :     6.075693682559121
 Root     43 :     6.112291721635634
 Root     44 :     6.115111849411451
 Root     45 :     6.145357563264153
 Root     46 :     6.166182077491354
 Root     47 :     6.213990794500295
 Root     48 :     6.267525454041539
 Root     49 :     6.342417629924510
 Root     50 :     6.366088522293759
 Root     51 :     6.411158030656722
 Root     52 :     6.419471879383580
 Root     53 :     6.471912668082894
 Root     54 :     6.499543400430374
 Root     55 :     6.541382417920845
 Root     56 :     6.668000507768765
 Root     57 :     6.856420197369022
 Root     58 :     6.880997462868857
 Root     59 :     6.974089516079760
 Root     60 :     6.986710643919377
 Root     61 :     7.090915790853542
 Root     62 :     7.108340831623956
 Root     63 :     7.160877726414383
 Root     64 :     7.245790754458412
 Root     65 :     7.253009518386596
 Root     66 :     7.287598678312524
 Root     67 :     7.318926284528324
 Root     68 :     7.343248929203070
 Root     69 :     7.368491748850862
 Root     70 :     7.427439309951152
 Root     71 :     7.449735538073361
 Root     72 :     7.492928487081793
 Root     73 :     7.514065109784306
 Root     74 :     7.520119015919281
 Root     75 :     7.581820294370672
 Root     76 :     7.588694537033569
 Root     77 :     7.618376781083849
 Root     78 :     7.700953615555256
 Root     79 :     7.719154449786408
 Root     80 :     7.729857494883646
 Root     81 :     7.748372290489334
 Root     82 :     7.752289809051762
 Root     83 :     7.778606733971141
 Root     84 :     7.800780116033594
 Root     85 :     7.827272686408699
 Root     86 :     7.848425023803555
 Root     87 :     7.890821034414460
 Root     88 :     7.915695662971581
 Root     89 :     7.939724187932026
 Root     90 :     7.957803552899462
 Root     91 :     7.978064269717644
 Root     92 :     7.995653918570726
 Root     93 :     8.032070921312139
 Root     94 :     8.052623970013926
 Root     95 :     8.052940888373477
 Root     96 :     8.091495872843106
 Root     97 :     8.095046026225086
 Root     98 :     8.103168892013626
 Root     99 :     8.128681472433540
 Root    100 :     8.158239786871214
 Root    101 :     8.166894142949978
 Root    102 :     8.195098135937306
 Root    103 :     8.242673704430130
 Root    104 :     8.254108145340565
 Root    105 :     8.278228530234999
 Root    106 :     8.286519101733241
 Root    107 :     8.313309008197727
 Root    108 :     8.318372973904959
 Root    109 :     8.338722833817329
 Root    110 :     8.351022995231869
 Root    111 :     8.363366501956445
 Root    112 :     8.381482392099569
 Root    113 :     8.408409673848292
 Root    114 :     8.435746665233186
 Root    115 :     8.445868507397259
 Root    116 :     8.450669977770263
 Root    117 :     8.465775611869160
 Root    118 :     8.469647895518301
 Root    119 :     8.482766760558462
 Root    120 :     8.487366313842969
 Root    121 :     8.506721675736602
 Root    122 :     8.515318832320752
 Root    123 :     8.536590857688784
 Root    124 :     8.549820743835916
 Root    125 :     8.575245519449020
 Root    126 :     8.590376515402159
 Root    127 :     8.613333881834626
 Root    128 :     8.625588967825971
 Root    129 :     8.666105709140087
 Root    130 :     8.675921817313162
 Root    131 :     8.691027564777441
 Root    132 :     8.698106145542285
 Root    133 :     8.703680693546909
 Root    134 :     8.754383498870235
 Root    135 :     8.768223565511500
 Root    136 :     8.791421694628784
 Root    137 :     8.811532821496675
 Root    138 :     8.818673113349581
 Root    139 :     8.834369760227478
 Root    140 :     8.941839969281435
 Root    141 :     8.982367284541830
 Root    142 :     9.086121866185040
 Root    143 :     9.161611902229026
 Root    144 :     9.298242419162028
 Iteration     2 Dimension   216 NMult   144 NNew     72
 CISAX will form     3 AO SS matrices at one time.
 NMat=     3 NSing=     3 JSym2X= 0.
 NMat=     3 NSing=     3 JSym2X= 0.
 NMat=     3 NSing=     3 JSym2X= 0.
 NMat=     3 NSing=     3 JSym2X= 0.
 NMat=     3 NSing=     3 JSym2X= 0.
 NMat=     3 NSing=     3 JSym2X= 0.
 NMat=     3 NSing=     3 JSym2X= 0.
 NMat=     3 NSing=     3 JSym2X= 0.
 NMat=     3 NSing=     3 JSym2X= 0.
 NMat=     3 NSing=     3 JSym2X= 0.
 NMat=     3 NSing=     3 JSym2X= 0.
 NMat=     3 NSing=     3 JSym2X= 0.
 NMat=     3 NSing=     3 JSym2X= 0.
 NMat=     3 NSing=     3 JSym2X= 0.
 NMat=     3 NSing=     3 JSym2X= 0.
 NMat=     3 NSing=     3 JSym2X= 0.
 NMat=     3 NSing=     3 JSym2X= 0.
 NMat=     3 NSing=     3 JSym2X= 0.
 NMat=     3 NSing=     3 JSym2X= 0.
 NMat=     3 NSing=     3 JSym2X= 0.
 NMat=     3 NSing=     3 JSym2X= 0.
 NMat=     3 NSing=     3 JSym2X= 0.
 NMat=     3 NSing=     3 JSym2X= 0.
 NMat=     3 NSing=     3 JSym2X= 0.
 Root      1 not converged, maximum delta is    0.044968945561471
 Root      2 not converged, maximum delta is    0.465261946933255
 Root      3 not converged, maximum delta is    0.373875503110421
 Root      4 not converged, maximum delta is    0.236225522100917
 Root      5 not converged, maximum delta is    0.220532598627300
 Root      6 not converged, maximum delta is    0.202411847838954
 Root      7 not converged, maximum delta is    0.315582161476270
 New state      8 was old state      9
 Root      8 not converged, maximum delta is    0.266804203641606
 New state      9 was old state      8
 Root      9 not converged, maximum delta is    0.327888538908548
 New state     10 was old state     11
 Root     10 not converged, maximum delta is    0.208284874804022
 New state     11 was old state     10
 Root     11 not converged, maximum delta is    0.064893146814948
 Root     12 not converged, maximum delta is    0.149196073692766
 Root     13 not converged, maximum delta is    0.317152920756602
 Root     14 not converged, maximum delta is    0.346559022375546
 Root     15 not converged, maximum delta is    0.042495372701618
 Root     16 not converged, maximum delta is    0.082724274410416
 New state     17 was old state     18
 Root     17 not converged, maximum delta is    0.312483853622761
 New state     18 was old state     17
 Root     18 not converged, maximum delta is    0.213472424875298
 Root     19 not converged, maximum delta is    0.235612850502161
 Root     20 not converged, maximum delta is    0.131507251715770
 Root     21 not converged, maximum delta is    0.460097586496868
 New state     22 was old state     23
 Root     22 not converged, maximum delta is    0.449605249825204
 New state     23 was old state     22
 Root     23 not converged, maximum delta is    0.387084882970740
 Root     24 not converged, maximum delta is    0.084580626522235
 Root     25 not converged, maximum delta is    0.065388031569016
 Root     26 not converged, maximum delta is    0.089201123182894
 New state     27 was old state     30
 Root     27 not converged, maximum delta is    0.205374577262525
 New state     28 was old state     27
 Root     28 not converged, maximum delta is    0.086375852023980
 New state     29 was old state     28
 Root     29 not converged, maximum delta is    0.191557666824125
 New state     30 was old state     29
 Root     30 not converged, maximum delta is    0.351466377926821
 Root     31 not converged, maximum delta is    0.176090626132448
 Root     32 not converged, maximum delta is    0.295699750680531
 Root     33 not converged, maximum delta is    0.439521617617742
 Root     34 not converged, maximum delta is    0.218355202481454
 Root     35 not converged, maximum delta is    0.306772661558405
 Root     36 not converged, maximum delta is    0.409947644419902
 Excitation Energies [eV] at current iteration:
 Root      1 :     1.103628171942910   Change is   -0.105011698631971
 Root      2 :     2.237692110432321   Change is   -0.162632036275417
 Root      3 :     2.424562036276039   Change is   -0.070527678169983
 Root      4 :     2.690033958039547   Change is   -0.083635417808912
 Root      5 :     2.872832279233113   Change is   -0.198416080580455
 Root      6 :     3.363123515965229   Change is   -0.265837365652961
 Root      7 :     3.746965757525927   Change is   -0.326885009945806
 Root      8 :     3.943701748612038   Change is   -0.421726302314009
 Root      9 :     4.004388041161183   Change is   -0.258319816564057
 Root     10 :     4.456920234731915   Change is   -0.159093644137193
 Root     11 :     4.495425652778194   Change is   -0.050971792843075
 Root     12 :     4.650084266322680   Change is   -0.058708729018166
 Root     13 :     4.660923100497739   Change is   -0.087919256846870
 Root     14 :     4.673401092516166   Change is   -0.125332688329471
 Root     15 :     4.855775444285747   Change is   -0.035048719881926
 Root     16 :     4.884646044439507   Change is   -0.043893456210925
 Root     17 :     4.914345411722642   Change is   -0.115905237121051
 Root     18 :     4.972957577773089   Change is   -0.030305152609147
 Root     19 :     5.024207972140923   Change is   -0.043828195815398
 Root     20 :     5.071888730060257   Change is   -0.069553097881180
 Root     21 :     5.154965302915114   Change is   -0.074336646599707
 Root     22 :     5.202285230728830   Change is   -0.091451083399354
 Root     23 :     5.227146597029346   Change is   -0.035312042250170
 Root     24 :     5.299781531444030   Change is   -0.055716347335016
 Root     25 :     5.398650994075682   Change is   -0.033929688498207
 Root     26 :     5.449786198881222   Change is   -0.037970006523725
 Root     27 :     5.515419831046795   Change is   -0.131670620470836
 Root     28 :     5.561645453932019   Change is   -0.021726607503754
 Root     29 :     5.567801205044850   Change is   -0.035263736272397
 Root     30 :     5.586779258190121   Change is   -0.044539369292526
 Root     31 :     5.671902192975048   Change is   -0.058203044587234
 Root     32 :     5.712182391586628   Change is   -0.054794893107643
 Root     33 :     5.735593427715743   Change is   -0.078316551169282
 Root     34 :     5.775014072940822   Change is   -0.064969180622911
 Root     35 :     5.830639570971311   Change is   -0.029625469328487
 Root     36 :     5.839832984557588   Change is   -0.035567232993474
 Iteration     3 Dimension   288 NMult   216 NNew     72
 CISAX will form     3 AO SS matrices at one time.
 NMat=     3 NSing=     3 JSym2X= 0.
 NMat=     3 NSing=     3 JSym2X= 0.
 NMat=     3 NSing=     3 JSym2X= 0.
 NMat=     3 NSing=     3 JSym2X= 0.
 NMat=     3 NSing=     3 JSym2X= 0.
 NMat=     3 NSing=     3 JSym2X= 0.
 NMat=     3 NSing=     3 JSym2X= 0.
 NMat=     3 NSing=     3 JSym2X= 0.
 NMat=     3 NSing=     3 JSym2X= 0.
 NMat=     3 NSing=     3 JSym2X= 0.
 NMat=     3 NSing=     3 JSym2X= 0.
 NMat=     3 NSing=     3 JSym2X= 0.
 NMat=     3 NSing=     3 JSym2X= 0.
 NMat=     3 NSing=     3 JSym2X= 0.
 NMat=     3 NSing=     3 JSym2X= 0.
 NMat=     3 NSing=     3 JSym2X= 0.
 NMat=     3 NSing=     3 JSym2X= 0.
 NMat=     3 NSing=     3 JSym2X= 0.
 NMat=     3 NSing=     3 JSym2X= 0.
 NMat=     3 NSing=     3 JSym2X= 0.
 NMat=     3 NSing=     3 JSym2X= 0.
 NMat=     3 NSing=     3 JSym2X= 0.
 NMat=     3 NSing=     3 JSym2X= 0.
 NMat=     3 NSing=     3 JSym2X= 0.
 Root      1 not converged, maximum delta is    0.002920778783950
 Root      2 not converged, maximum delta is    0.014797686151909
 Root      3 not converged, maximum delta is    0.013760664657244
 Root      4 not converged, maximum delta is    0.010241416534011
 Root      5 not converged, maximum delta is    0.009405326623173
 Root      6 not converged, maximum delta is    0.008038143734329
 Root      7 not converged, maximum delta is    0.005593933900463
 Root      8 not converged, maximum delta is    0.031287654397808
 Root      9 not converged, maximum delta is    0.013219745279623
 Root     10 not converged, maximum delta is    0.005852335008923
 Root     11 not converged, maximum delta is    0.002893280625297
 Root     12 not converged, maximum delta is    0.134714500875306
 Root     13 not converged, maximum delta is    0.101494534472143
 Root     14 not converged, maximum delta is    0.076294257127610
 Root     15 not converged, maximum delta is    0.008542814180950
 Root     16 not converged, maximum delta is    0.012789010156619
 Root     17 not converged, maximum delta is    0.009899665125195
 Root     18 not converged, maximum delta is    0.007124535373079
 Root     19 not converged, maximum delta is    0.009022736739249
 Root     20 not converged, maximum delta is    0.011361174685094
 Root     21 not converged, maximum delta is    0.035576630606579
 Root     22 not converged, maximum delta is    0.043176896043936
 Root     23 not converged, maximum delta is    0.016910380664237
 Root     24 not converged, maximum delta is    0.006653881342672
 Root     25 not converged, maximum delta is    0.004773038077448
 Root     26 not converged, maximum delta is    0.005464740935460
 Root     27 not converged, maximum delta is    0.012361550766114
 Root     28 not converged, maximum delta is    0.203037988201535
 Root     29 not converged, maximum delta is    0.125678806857410
 Root     30 not converged, maximum delta is    0.041981939402481
 Root     31 not converged, maximum delta is    0.028001247481880
 Root     32 not converged, maximum delta is    0.081491181512884
 Root     33 not converged, maximum delta is    0.069863368182492
 Root     34 not converged, maximum delta is    0.041618877741599
 Root     35 not converged, maximum delta is    0.135959104434701
 Root     36 not converged, maximum delta is    0.187903113290819
 Excitation Energies [eV] at current iteration:
 Root      1 :     1.100024248163805   Change is   -0.003603923779105
 Root      2 :     2.225724323332444   Change is   -0.011967787099876
 Root      3 :     2.420921469682064   Change is   -0.003640566593975
 Root      4 :     2.682524622346727   Change is   -0.007509335692820
 Root      5 :     2.862448666989909   Change is   -0.010383612243204
 Root      6 :     3.347741821921099   Change is   -0.015381694044130
 Root      7 :     3.737875560173350   Change is   -0.009090197352577
 Root      8 :     3.934206867435997   Change is   -0.009494881176042
 Root      9 :     3.989311749040190   Change is   -0.015076292120993
 Root     10 :     4.449209542010081   Change is   -0.007710692721834
 Root     11 :     4.493733520914147   Change is   -0.001692131864047
 Root     12 :     4.647533174260539   Change is   -0.002551092062141
 Root     13 :     4.655315675061930   Change is   -0.005607425435810
 Root     14 :     4.670325235915233   Change is   -0.003075856600932
 Root     15 :     4.854713822267078   Change is   -0.001061622018670
 Root     16 :     4.881992017064371   Change is   -0.002654027375136
 Root     17 :     4.908251167746028   Change is   -0.006094243976614
 Root     18 :     4.970664095975586   Change is   -0.002293481797503
 Root     19 :     5.022581143583634   Change is   -0.001626828557288
 Root     20 :     5.069142435256151   Change is   -0.002746294804105
 Root     21 :     5.147368769467111   Change is   -0.007596533448003
 Root     22 :     5.200029764573304   Change is   -0.002255466155526
 Root     23 :     5.225957901073736   Change is   -0.001188695955611
 Root     24 :     5.297091377511724   Change is   -0.002690153932306
 Root     25 :     5.397141900746083   Change is   -0.001509093329599
 Root     26 :     5.448324109598261   Change is   -0.001462089282962
 Root     27 :     5.506602973934923   Change is   -0.008816857111872
 Root     28 :     5.560041033800969   Change is   -0.001604420131050
 Root     29 :     5.563441137613334   Change is   -0.004360067431516
 Root     30 :     5.583831264927169   Change is   -0.002947993262951
 Root     31 :     5.663601823522700   Change is   -0.008300369452348
 Root     32 :     5.705250280967842   Change is   -0.006932110618786
 Root     33 :     5.730102726483986   Change is   -0.005490701231756
 Root     34 :     5.769565640359287   Change is   -0.005448432581534
 Root     35 :     5.824387067708207   Change is   -0.006252503263104
 Root     36 :     5.835188828282616   Change is   -0.004644156274972
 Iteration     4 Dimension   360 NMult   288 NNew     72
 CISAX will form     3 AO SS matrices at one time.
 NMat=     3 NSing=     3 JSym2X= 0.
 NMat=     3 NSing=     3 JSym2X= 0.
 NMat=     3 NSing=     3 JSym2X= 0.
 NMat=     3 NSing=     3 JSym2X= 0.
 NMat=     3 NSing=     3 JSym2X= 0.
 NMat=     3 NSing=     3 JSym2X= 0.
 NMat=     3 NSing=     3 JSym2X= 0.
 NMat=     3 NSing=     3 JSym2X= 0.
 NMat=     3 NSing=     3 JSym2X= 0.
 NMat=     3 NSing=     3 JSym2X= 0.
 NMat=     3 NSing=     3 JSym2X= 0.
 NMat=     3 NSing=     3 JSym2X= 0.
 NMat=     3 NSing=     3 JSym2X= 0.
 NMat=     3 NSing=     3 JSym2X= 0.
 NMat=     3 NSing=     3 JSym2X= 0.
 NMat=     3 NSing=     3 JSym2X= 0.
 NMat=     3 NSing=     3 JSym2X= 0.
 NMat=     3 NSing=     3 JSym2X= 0.
 NMat=     3 NSing=     3 JSym2X= 0.
 NMat=     3 NSing=     3 JSym2X= 0.
 NMat=     3 NSing=     3 JSym2X= 0.
 NMat=     3 NSing=     3 JSym2X= 0.
 NMat=     3 NSing=     3 JSym2X= 0.
[...]
     7  H    0.000013   0.000001  -0.000017  -0.000000  -0.000000  -0.000001
     8  C   -0.001503   0.000007  -0.000012   0.000027  -0.000112   0.000007
     9  H   -0.000091  -0.000000   0.000000  -0.000000   0.000056   0.000000
    10  H   -0.000040   0.000000  -0.000000   0.000001  -0.000007   0.000000
    11  H    0.001003  -0.000002   0.000001  -0.000008   0.000013  -0.000006
    12  C    0.000384  -0.000002  -0.000002  -0.000011   0.000017  -0.000005
    13  C    0.000066  -0.000000  -0.000000  -0.000000  -0.000008  -0.000000
    14  C    0.000923  -0.000000   0.000000  -0.000025   0.000021  -0.000016
    15  C   -0.000004   0.000000   0.000000   0.000000   0.000001   0.000000
    16  H    0.000000   0.000000  -0.000000   0.000000  -0.000000   0.000000
    17  C   -0.000003  -0.000000   0.000000  -0.000001  -0.000007  -0.000001
    18  H   -0.000074  -0.000002  -0.000000  -0.000049   0.000002   0.000011
    19  C   -0.000019   0.000000  -0.000000   0.000000   0.000000   0.000000
    20  H   -0.000000   0.000000   0.000000   0.000000   0.000000   0.000000
    21  H   -0.000013   0.000000   0.000000   0.000001   0.000000   0.000001
    22  H    0.000000  -0.000000  -0.000000  -0.000000  -0.000000  -0.000000
    23  C    0.003945  -0.000166   0.000372   0.000349   0.000047  -0.000755
    24  C    0.001472  -0.002038   0.000282  -0.000010  -0.000018  -0.003403
    25  C    0.085741  -0.000042   0.000003  -0.002448   0.000494  -0.003253
    26  C   -0.000042  -0.044498   0.000180  -0.000049  -0.000008   0.001537
    27  H    0.000003   0.000180  -0.004295  -0.000009   0.000001  -0.000003
    28  C   -0.002448  -0.000049  -0.000009  -0.044888   0.000208   0.001895
    29  H    0.000494  -0.000008   0.000001   0.000208  -0.004206   0.000000
    30  C   -0.003253   0.001537  -0.000003   0.001895   0.000000   0.096781
    31  H   -0.000011   0.000079   0.000022   0.000007  -0.000000  -0.000250
    32  H   -0.000183   0.000012  -0.000000   0.000186   0.000016  -0.000198
    33  H    0.000016  -0.000002   0.000001   0.000020   0.000001   0.000484
    34  O    0.000097   0.000001  -0.000084  -0.000000   0.000002  -0.000000
    35  H   -0.000011   0.000002  -0.000010   0.000000  -0.000000   0.000000
              31         32         33         34         35
     1  C    0.000000   0.000000  -0.000000  -0.002231  -0.003633
     2  C    0.000001   0.000003  -0.000000  -0.039619  -0.005936
     3  O   -0.000000  -0.000000   0.000000   0.003493   0.004819
     4  C   -0.000000  -0.000000   0.000000   0.002545   0.001156
     5  H    0.000000   0.000000  -0.000000  -0.000130  -0.000090
     6  H    0.000002   0.000000  -0.000000  -0.000236  -0.000041
     7  H   -0.000001  -0.000000   0.000000   0.000922   0.000459
     8  C   -0.000000  -0.000002   0.000000  -0.000614   0.001629
     9  H   -0.000000   0.000000   0.000000  -0.000043  -0.000019
    10  H   -0.000000  -0.000000   0.000000  -0.000582   0.000545
    11  H    0.000000   0.000001  -0.000000   0.001557  -0.000408
    12  C   -0.000000  -0.000000   0.000000   0.000294   0.000186
    13  C   -0.000000  -0.000000   0.000000   0.000004   0.000014
    14  C   -0.000000  -0.000006   0.000000  -0.000003   0.000001
    15  C    0.000000   0.000000  -0.000000  -0.000000   0.000000
    16  H    0.000000   0.000000  -0.000000  -0.000000   0.000002
    17  C   -0.000000  -0.000000   0.000000  -0.000000  -0.000000
    18  H    0.000000  -0.000000  -0.000000  -0.000000  -0.000000
    19  C    0.000000   0.000000  -0.000000   0.000000  -0.000000
    20  H    0.000000   0.000000  -0.000000  -0.000000  -0.000000
    21  H    0.000000   0.000000  -0.000000  -0.000000  -0.000000
    22  H   -0.000000  -0.000000   0.000000   0.000000   0.000000
    23  C    0.000060   0.000015  -0.000027   0.004204   0.000558
    24  C   -0.000150  -0.000013   0.000014   0.000828   0.000016
    25  C   -0.000011  -0.000183   0.000016   0.000097  -0.000011
    26  C    0.000079   0.000012  -0.000002   0.000001   0.000002
    27  H    0.000022  -0.000000   0.000001  -0.000084  -0.000010
    28  C    0.000007   0.000186   0.000020  -0.000000   0.000000
    29  H   -0.000000   0.000016   0.000001   0.000002  -0.000000
    30  C   -0.000250  -0.000198   0.000484  -0.000000   0.000000
    31  H    0.001932   0.000000   0.000005  -0.000000  -0.000000
    32  H    0.000000   0.001766   0.000010  -0.000000  -0.000000
    33  H    0.000005   0.000010  -0.004583   0.000000   0.000000
    34  O   -0.000000  -0.000000   0.000000   0.084784  -0.001326
    35  H   -0.000000  -0.000000   0.000000  -0.001326   0.005732
 Mulliken charges and spin densities:
               1          2
     1  C    0.265021   0.000570
     2  C    0.213225   0.310163
     3  O   -0.547076   0.452083
     4  C   -0.333125   0.032297
     5  H    0.123016   0.005189
     6  H    0.117627  -0.002842
     7  H    0.117709  -0.001370
     8  C   -0.324526   0.004510
     9  H    0.129696   0.000088
    10  H    0.126502  -0.000165
    11  H    0.128394   0.010520
    12  C    0.091603  -0.006126
    13  C   -0.123062   0.017652
    14  C   -0.126436   0.016761
    15  C   -0.102504  -0.007765
    16  H    0.102374  -0.001414
    17  C   -0.110303  -0.009247
    18  H    0.102177  -0.000503
    19  C   -0.096729   0.019278
    20  H    0.101276   0.000326
    21  H    0.102435   0.000392
    22  H    0.102361  -0.000819
    23  C    0.099303  -0.059337
    24  C   -0.107388   0.085234
    25  C   -0.110605   0.081644
    26  C   -0.102856  -0.045044
    27  H    0.117490  -0.003569
    28  C   -0.108793  -0.044847
    29  H    0.110488  -0.003352
    30  C   -0.088423   0.092946
    31  H    0.109209   0.001697
    32  H    0.110074   0.001607
    33  H    0.110548  -0.004061
    34  O   -0.534958   0.053862
    35  H    0.336256   0.003644
 Sum of Mulliken charges =  -0.00000   1.00000
 Mulliken charges and spin densities with hydrogens summed into heavy atoms:
               1          2
     1  C    0.265021   0.000570
     2  C    0.213225   0.310163
     3  O   -0.547076   0.452083
     4  C    0.025226   0.033274
     8  C    0.060066   0.014953
    12  C    0.091603  -0.006126
    13  C   -0.020688   0.016237
    14  C   -0.024259   0.016258
    15  C   -0.001228  -0.007439
    17  C   -0.007867  -0.008855
    19  C    0.005632   0.018459
    23  C    0.099303  -0.059337
    24  C    0.010102   0.081665
    25  C   -0.000117   0.078292
    26  C    0.006353  -0.043347
    28  C    0.001281  -0.043240
    30  C    0.022125   0.088885
    34  O   -0.198702   0.057506
 Electronic spatial extent (au):  <R**2>=           4064.0256
 Charge=             -0.0000 electrons
 Dipole moment (field-independent basis, Debye):
    X=             -1.3978    Y=              3.5694    Z=             -0.5816  Tot=              3.8772
 Quadrupole moment (field-independent basis, Debye-Ang):
   XX=           -100.8566   YY=           -102.2204   ZZ=           -102.8734
   XY=              0.9616   XZ=             -7.0205   YZ=              1.1353
 Traceless Quadrupole moment (field-independent basis, Debye-Ang):
   XX=              1.1269   YY=             -0.2369   ZZ=             -0.8899
   XY=              0.9616   XZ=             -7.0205   YZ=              1.1353
 Octapole moment (field-independent basis, Debye-Ang**2):
  XXX=             -7.4196  YYY=             15.3891  ZZZ=             -1.9304  XYY=            -12.0174
  XXY=             24.6841  XXZ=              1.5725  XZZ=             -1.6130  YZZ=            -11.7035
  YYZ=             -5.3448  XYZ=              3.3672
 Hexadecapole moment (field-independent basis, Debye-Ang**3):
 XXXX=          -2882.6624 YYYY=          -1584.6949 ZZZZ=           -695.5443 XXXY=            -13.8449
 XXXZ=           -138.3011 YYYX=             23.6663 YYYZ=             14.3120 ZZZX=             -0.9125
 ZZZY=              0.3985 XXYY=           -745.6080 XXZZ=           -639.4937 YYZZ=           -391.3615
 XXYZ=             -0.3198 YYXZ=             -9.9696 ZZXY=             -1.8237
 N-N= 1.327138112340D+03 E-N=-4.444509779644D+03  KE= 7.631576306759D+02
 Leave Link  601 at Sat May 25 04:44:54 2019, MaxMem=   104857600 cpu:               5.2 elap:               0.2
 (Enter /opt/software/gaussian/g16.b01/l9999.exe)
 Electronic transition elements 
                 1             2             3             4             5 
      1  -0.770357D+03 -0.770315D+03 -0.770308D+03 -0.770298D+03 -0.770292D+03
      2  -0.128586D+00 -0.315945D+00  0.180436D+00 -0.565137D+00  0.544207D+00
      3  -0.134445D+00  0.361616D+00  0.244191D+00 -0.339866D+00  0.701773D+00
      4  -0.154905D+00  0.727638D-01  0.118578D+00  0.343046D-01  0.769781D-01
      5   0.422013D-02  0.252155D-01 -0.135339D-01  0.552274D-01 -0.549428D-01
      6   0.525645D-02 -0.286883D-01 -0.216296D-01  0.308732D-01 -0.716335D-01
      7   0.641547D-02 -0.579520D-02 -0.126612D-01 -0.511745D-02 -0.727465D-02
      8  -0.217071D+00 -0.219641D+00 -0.130269D+00 -0.182252D+00 -0.127155D-01
      9  -0.623277D+00 -0.228030D-01 -0.638160D-01  0.192391D+00 -0.557291D-01
     10   0.265633D+00  0.244486D+00 -0.464921D+00  0.402933D-01 -0.159378D+00
     11   0.278725D-01 -0.149925D+00 -0.840243D-01  0.250477D+00 -0.191804D+00
     12  -0.361778D-02  0.946860D-01  0.476928D-01 -0.767956D-01  0.917127D-01
     13  -0.220004D-01 -0.127942D-01  0.166993D-02 -0.422664D-01  0.549807D-02
     14   0.486032D-02  0.239102D+00 -0.556871D-01  0.113775D+00 -0.653270D-01
     15   0.440666D-02  0.263072D-01  0.853594D-02 -0.491841D-01  0.843401D-02
     16  -0.149330D-01  0.566418D-01 -0.127462D-01  0.110987D-01 -0.173677D-02
                 6             7             8             9            10 
      1  -0.770274D+03 -0.770260D+03 -0.770252D+03 -0.770250D+03 -0.770234D+03
      2   0.283811D+00 -0.487635D+00 -0.713674D+00  0.199721D+00 -0.974688D+00
      3  -0.225224D+00  0.483719D-01 -0.482148D+00  0.130620D+00 -0.190700D+00
      4   0.135070D+00 -0.103456D+00 -0.105007D+00  0.349293D-01 -0.209821D+00
      5  -0.339989D-01  0.649766D-01  0.100401D+00 -0.278169D-01  0.155641D+00
      6   0.275474D-01 -0.672491D-02  0.678124D-01 -0.183324D-01  0.305762D-01
      7  -0.125676D-01  0.131501D-01  0.149441D-01 -0.581282D-02  0.337698D-01
      8  -0.169609D+00 -0.125208D+00 -0.113967D+00 -0.239206D+00 -0.114206D+00
      9  -0.161014D+00  0.118451D+00  0.726745D-01  0.436660D+00 -0.752836D-01
     10   0.443150D-01  0.278432D+00  0.336197D+00  0.236310D+00  0.431111D+00
     11   0.141396D+00 -0.282408D-01  0.306933D+00 -0.982305D-02  0.112641D+00
     12   0.345340D-03  0.324241D-01 -0.601212D-01  0.127727D+00 -0.255270D-01
     13  -0.823501D-01 -0.107980D-01 -0.534725D-01 -0.117943D+00 -0.122879D-01
     14   0.202730D+00  0.120669D+00  0.216500D+00  0.538390D-01  0.297450D+00
     15  -0.928862D-02 -0.186189D-02 -0.345346D-01 -0.198984D-01  0.629968D-03
     16   0.602455D-01 -0.797947D-02 -0.139998D-02  0.205878D-01 -0.208828D-01
                11            12            13            14            15 
      1  -0.770232D+03 -0.770226D+03 -0.770226D+03 -0.770225D+03 -0.770219D+03
      2   0.102924D+00 -0.100186D+00 -0.717037D-01  0.229855D+00  0.280329D-01
      3  -0.123580D+00 -0.102870D+00 -0.440224D-01  0.311832D+00  0.928609D-01
      4  -0.508723D-01  0.394889D-01 -0.684374D-01  0.441166D-01 -0.466328D-01
      5  -0.176317D-01  0.169591D-01  0.127881D-01 -0.394208D-01 -0.420103D-02
      6   0.232996D-01  0.176186D-01  0.739728D-02 -0.529290D-01 -0.175545D-01
      7   0.842104D-02 -0.491824D-02  0.137486D-01 -0.775244D-02  0.833945D-02
      8   0.114129D+00 -0.292037D+00 -0.217569D+00  0.131638D+00 -0.276419D-01
      9  -0.142064D+00  0.114742D+00 -0.663534D-02 -0.141297D+00  0.117553D-01
     10   0.231090D+00 -0.168277D-01  0.299906D+00 -0.280965D+00  0.216761D-01
     11  -0.197047D+00  0.876136D-01 -0.870076D-01 -0.245588D+00 -0.875012D-01
     12   0.938761D-01 -0.812604D-01 -0.608516D-01  0.706674D-01  0.219915D-01
     13   0.264702D-01  0.265927D-01  0.846195D-01  0.432536D-01 -0.886270D-02
     14   0.278673D-01 -0.117833D+00 -0.945055D-01 -0.872094D-01 -0.123018D-01
     15   0.832810D-01 -0.423013D-01 -0.121318D-01  0.422027D-01  0.727313D-02
     16   0.343199D-01 -0.671794D-01 -0.505897D-01  0.903478D-03 -0.501132D-02
                16            17            18            19            20 
      1  -0.770218D+03 -0.770217D+03 -0.770214D+03 -0.770212D+03 -0.770211D+03
      2  -0.207839D+00 -0.519358D+00 -0.881479D-01  0.114554D+00  0.303417D+00
      3  -0.176325D-01  0.251901D+00 -0.813586D-02  0.291226D-01  0.188333D+00
      4  -0.370331D-02 -0.137209D+00 -0.309956D-01  0.277755D-01  0.334727D-01
      5   0.364835D-01  0.911736D-01  0.163978D-01 -0.217491D-01 -0.557605D-01
      6   0.263832D-02 -0.454413D-01  0.152489D-02 -0.485595D-02 -0.350273D-01
      7  -0.537222D-03  0.252004D-01  0.680783D-02 -0.415688D-02 -0.641034D-02
      8   0.268129D+00 -0.339506D-01 -0.601259D-01 -0.526807D-01  0.124205D+00
      9  -0.161939D+00 -0.132159D+00 -0.137282D+00  0.152040D-01 -0.641291D-01
     10   0.122980D+00  0.201803D+00 -0.930896D-02 -0.174069D+00 -0.209218D+00
     11  -0.539895D-01 -0.227806D+00 -0.384529D-01 -0.344832D-01 -0.226070D+00
     12  -0.525060D-01  0.873671D-01 -0.411989D-01 -0.136983D-01 -0.199490D-01
     13   0.111385D+00  0.192180D-01  0.762122D-01  0.300740D-01  0.985369D-01
     14   0.122129D+00  0.131655D+00  0.520410D-01 -0.863169D-01 -0.188742D+00
     15   0.157042D-01  0.344637D-01  0.874177D-02  0.482624D-02  0.274490D-01
     16   0.290728D-01 -0.616623D-01 -0.693846D-02 -0.792985D-02  0.858658D-02
                21            22            23            24            25 
      1  -0.770208D+03 -0.770206D+03 -0.770205D+03 -0.770202D+03 -0.770199D+03
      2   0.250327D-01 -0.108264D+00  0.106587D+00  0.963802D-01  0.113777D-01
      3   0.539714D-01  0.520338D-02 -0.353253D-01  0.356186D+00  0.110360D+00
      4   0.734604D-03 -0.816570D-01 -0.294653D-01  0.766871D-01 -0.466672D-01
      5  -0.464100D-02  0.205056D-01 -0.196640D-01 -0.182747D-01 -0.226748D-02
      6  -0.100146D-01 -0.948806D-03  0.675137D-02 -0.683972D-01 -0.231568D-01
      7   0.200692D-03  0.164047D-01  0.500907D-02 -0.151605D-01  0.839439D-02
      8  -0.191155D+00 -0.229043D-01  0.131902D+00 -0.540127D-01  0.508857D-01
      9  -0.960927D-01 -0.605300D-01  0.437945D-01 -0.198319D+00  0.478228D-01
     10   0.262464D-01  0.172334D+00  0.203207D+00 -0.891784D-01  0.929239D-01
     11  -0.221964D+00 -0.138281D+00  0.778529D-01 -0.349906D+00  0.661911D-01
     12  -0.196327D+00 -0.569301D-01  0.128083D-01 -0.952622D-02 -0.394738D-01
     13   0.303071D+00  0.129365D+00 -0.537852D-01  0.821434D-01  0.110438D-02
     14  -0.382396D-01  0.299992D-01  0.375432D-01 -0.353067D-01  0.629024D-01
     15   0.115902D-01  0.181881D-01 -0.745377D-02  0.299279D-01 -0.410549D-01
     16  -0.108088D-01 -0.186999D-01  0.401949D-01  0.253714D-01  0.228769D-01
                26            27            28            29            30 
      1  -0.770197D+03 -0.770195D+03 -0.770193D+03 -0.770193D+03 -0.770192D+03
      2   0.145387D+00 -0.208061D+00  0.204553D+00  0.130228D+00  0.266782D+00
      3  -0.722637D-01 -0.139659D+00 -0.464144D-01 -0.267787D+00  0.261528D+00
      4   0.348448D-01 -0.291129D-01  0.652584D-02  0.408497D-01  0.651547D-01
      5  -0.278595D-01  0.424555D-01 -0.431977D-01 -0.276548D-01 -0.537310D-01
      6   0.172520D-01  0.289547D-01  0.923354D-02  0.548686D-01 -0.547418D-01
      7  -0.711824D-02  0.726757D-02 -0.265317D-02 -0.656946D-02 -0.993548D-02
      8  -0.805861D-01 -0.326853D+00  0.101414D+00  0.699932D-01 -0.255828D-01
      9  -0.700925D-01  0.319294D+00  0.576781D-01 -0.377888D-01  0.143491D+00
     10   0.626513D-01  0.433117D+00 -0.462898D-01 -0.137806D+00 -0.134139D+00
     11  -0.201375D+00  0.180401D-02  0.144851D+00 -0.314760D-01  0.184238D+00
     12   0.593866D-01 -0.281672D+00 -0.273568D-01  0.132191D+00 -0.921964D-01
     13   0.458633D-01  0.225509D+00 -0.476374D-01 -0.680477D-01 -0.738688D-01
     14  -0.129287D+00  0.354420D-01 -0.621066D-01 -0.102972D-01 -0.149670D+00
     15   0.821867D-01 -0.941372D-01 -0.175002D-01  0.683997D-01 -0.108499D+00
     16  -0.250656D-01 -0.327955D-01 -0.727639D-02 -0.178174D-01 -0.485316D-01
                31            32            33            34            35 
      1  -0.770189D+03 -0.770187D+03 -0.770186D+03 -0.770185D+03 -0.770183D+03
      2   0.427727D-02  0.363209D+00  0.395280D-01  0.186339D+00  0.105569D+00
      3   0.285029D+00 -0.276919D+00 -0.163950D+00 -0.612648D-01  0.119054D+00
      4   0.537469D-01 -0.296183D-01 -0.119730D+00  0.354395D-01  0.338065D-01
      5  -0.100225D-02 -0.768409D-01 -0.101347D-01 -0.388579D-01 -0.227586D-01
      6  -0.597724D-01  0.551308D-01  0.327557D-01  0.145078D-01 -0.252509D-01
      7  -0.996567D-02  0.585136D-02  0.259982D-01 -0.661741D-02 -0.458185D-02
      8  -0.121612D+00  0.214624D+00 -0.134272D+00  0.342017D+00 -0.754263D-01
      9  -0.150155D+00  0.144237D+00 -0.326960D-01  0.458682D-02 -0.116651D+00
     10  -0.146314D-02 -0.641254D-01 -0.329259D-01 -0.161609D+00 -0.359134D+00
     11  -0.411529D+00  0.415013D+00  0.251580D+00  0.512034D-01 -0.105152D+00
     12   0.973805D-01 -0.102537D+00  0.302648D-01 -0.112303D+00  0.300594D-01
     13   0.145737D+00  0.823483D-01 -0.980390D-01  0.829321D-01 -0.318339D-01
     14   0.679690D-01 -0.174961D+00 -0.185572D+00  0.106329D+00 -0.153518D+00
     15   0.612047D-01 -0.597256D-01 -0.288457D-01 -0.208935D-02  0.116164D-01
     16  -0.353017D-01  0.924115D-02 -0.694890D-01  0.337722D-01 -0.726749D-01
                36 
      1  -0.770183D+03
      2   0.394263D-01
      3  -0.183536D+00
      4   0.104551D+00
      5  -0.382087D-02
      6   0.383956D-01
      7  -0.199931D-01
      8  -0.773641D-01
      9   0.839878D-02
     10  -0.172808D+00
     11   0.633017D-01
     12   0.556161D-01
     13  -0.607840D-02
     14  -0.141489D+00
     15   0.133001D-01
     16  -0.391914D-01
 1\1\GINC-GRA708\SP\UB3LYP TD-FC\6-31G(d,p)\C16H17O2(2)\RZK\25-May-2019
 \0\\#p td=(50-50,nstates=36) ub3lyp/6-31g(d,p) scrf=(iefpcm,solvent=ac
 etonitrile) guess=(mix,always) empiricaldispersion=gd3\\Title Card Req
 uired\\0,2\C,0,-0.67061,-1.348514,-0.674527\C,0,0.689975,-1.293655,0.6
 50539\O,0,-1.152065,-2.51602,-0.372418\C,0,0.11545,-1.316882,-1.997193
 \H,0,-0.609935,-1.419752,-2.810069\H,0,0.680594,-0.398144,-2.14982\H,0
 ,0.800453,-2.164157,-2.027413\C,0,-0.05606,-1.341872,1.977873\H,0,-0.7
 14023,-0.486885,2.125231\H,0,-0.65978,-2.248771,2.021929\H,0,0.684296,
 -1.360094,2.783789\C,0,-1.580209,-0.156423,-0.42983\C,0,-2.762215,-0.3
 47913,0.302351\C,0,-1.296979,1.127835,-0.919084\C,0,-3.632329,0.712329
 ,0.548024\H,0,-2.984223,-1.344077,0.668297\C,0,-2.168313,2.191233,-0.6
 75963\H,0,-0.389826,1.311197,-1.482364\C,0,-3.33715,1.989042,0.060325\
 H,0,-4.542608,0.543516,1.116197\H,0,-1.930447,3.178359,-1.061342\H,0,-
 4.013533,2.817213,0.250226\C,0,1.557793,-0.111367,0.416577\C,0,2.72225
 6,-0.229241,-0.367989\C,0,1.239952,1.147621,0.960979\C,0,3.542552,0.87
 2644,-0.592963\H,0,2.975666,-1.193785,-0.789938\C,0,2.060874,2.248766,
 0.731081\H,0,0.344447,1.273585,1.556488\C,0,3.214437,2.117227,-0.04678
 4\H,0,4.438887,0.761595,-1.195499\H,0,1.798554,3.211356,1.158949\H,0,3
 .852345,2.977353,-0.225945\O,0,1.371091,-2.468624,0.389388\H,0,0.68038
 8,-3.146334,0.265037\\Version=ES64L-G16RevB.01\State=2-A\HF=-770.39702
 11\S2=0.761834\S2-1=0.\S2A=0.750095\RMSD=9.841e-09\PG=C01 [X(C16H17O2)
 ]\\@


 TIMES HAVE CHANGED. IN THE BIBLE WHEN AN ASS
 SPOKE IT WAS CONSIDERED A MIRACLE.
 Job cpu time:       0 days 15 hours 45 minutes  2.8 seconds.
 Elapsed time:       0 days  0 hours 29 minutes 34.7 seconds.
 File lengths (MBytes):  RWF=   2179 Int=      0 D2E=      0 Chk=    178 Scr=      1
 Normal termination of Gaussian 16 at Sat May 25 04:44:55 2019.
