 Entering Gaussian System, Link 0=g16
 Initial command:
 /opt/software/gaussian/g16.b01/l1.exe "/localscratch/rzk.14577359.0/Gau-19503.inp" -scrdir="/localscratch/rzk.14577359.0/"
 Entering Link 1 = /opt/software/gaussian/g16.b01/l1.exe PID=     19513.
  
 Copyright (c) 1988-2017, Gaussian, Inc.  All Rights Reserved.
  
 This is part of the Gaussian(R) 16 program.  It is based on
 the Gaussian(R) 09 system (copyright 2009, Gaussian, Inc.),
 the Gaussian(R) 03 system (copyright 2003, Gaussian, Inc.),
 the Gaussian(R) 98 system (copyright 1998, Gaussian, Inc.),
 the Gaussian(R) 94 system (copyright 1995, Gaussian, Inc.),
 the Gaussian 92(TM) system (copyright 1992, Gaussian, Inc.),
 the Gaussian 90(TM) system (copyright 1990, Gaussian, Inc.),
 the Gaussian 88(TM) system (copyright 1988, Gaussian, Inc.),
 the Gaussian 86(TM) system (copyright 1986, Carnegie Mellon
 University), and the Gaussian 82(TM) system (copyright 1983,
 Carnegie Mellon University). Gaussian is a federally registered
 trademark of Gaussian, Inc.
  
 This software contains proprietary and confidential information,
 including trade secrets, belonging to Gaussian, Inc.
  
 This software is provided under written license and may be
 used, copied, transmitted, or stored only in accord with that
 written license.
  
 The following legend is applicable only to US Government
 contracts under FAR:
  
                    RESTRICTED RIGHTS LEGEND
  
 Use, reproduction and disclosure by the US Government is
 subject to restrictions as set forth in subparagraphs (a)
 and (c) of the Commercial Computer Software - Restricted
 Rights clause in FAR 52.227-19.
  
 Gaussian, Inc.
 340 Quinnipiac St., Bldg. 40, Wallingford CT 06492
  
  
 ---------------------------------------------------------------
 Warning -- This program may not be used in any manner that
 competes with the business of Gaussian, Inc. or will provide
 assistance to any competitor of Gaussian, Inc.  The licensee
 of this program is prohibited from giving any competitor of
 Gaussian, Inc. access to this program.  By using this program,
 the user acknowledges that Gaussian, Inc. is engaged in the
 business of creating and licensing software in the field of
 computational chemistry and represents and warrants to the
 licensee that it is not a competitor of Gaussian, Inc. and that
 it will not use this program in any manner prohibited above.
 ---------------------------------------------------------------
  

 Cite this work as:
 Gaussian 16, Revision B.01,
 M. J. Frisch, G. W. Trucks, H. B. Schlegel, G. E. Scuseria, 
 M. A. Robb, J. R. Cheeseman, G. Scalmani, V. Barone, 
 G. A. Petersson, H. Nakatsuji, X. Li, M. Caricato, A. V. Marenich, 
 J. Bloino, B. G. Janesko, R. Gomperts, B. Mennucci, H. P. Hratchian, 
 J. V. Ortiz, A. F. Izmaylov, J. L. Sonnenberg, D. Williams-Young, 
 F. Ding, F. Lipparini, F. Egidi, J. Goings, B. Peng, A. Petrone, 
 T. Henderson, D. Ranasinghe, V. G. Zakrzewski, J. Gao, N. Rega, 
 G. Zheng, W. Liang, M. Hada, M. Ehara, K. Toyota, R. Fukuda, 
 J. Hasegawa, M. Ishida, T. Nakajima, Y. Honda, O. Kitao, H. Nakai, 
 T. Vreven, K. Throssell, J. A. Montgomery, Jr., J. E. Peralta, 
 F. Ogliaro, M. J. Bearpark, J. J. Heyd, E. N. Brothers, K. N. Kudin, 
 V. N. Staroverov, T. A. Keith, R. Kobayashi, J. Normand, 
 K. Raghavachari, A. P. Rendell, J. C. Burant, S. S. Iyengar, 
 J. Tomasi, M. Cossi, J. M. Millam, M. Klene, C. Adamo, R. Cammi, 
 J. W. Ochterski, R. L. Martin, K. Morokuma, O. Farkas, 
 J. B. Foresman, and D. J. Fox, Gaussian, Inc., Wallingford CT, 2016.
 
 ******************************************
 Gaussian 16:  ES64L-G16RevB.01 20-Dec-2017
                 9-May-2019 
 ******************************************
 %NProcShared=32
 Will use up to   32 processors via shared memory.
 %chk=Step02-sp-td.chk
 ----------------------------------------------------------------------
 #p td=(50-50,nstates=12) ub3lyp/6-31g(d,p) scrf=(iefpcm,solvent=aceton
 itrile) guess=(core,mix,always) empiricaldispersion=gd3
 ----------------------------------------------------------------------
 1/38=1,172=1/1;
 2/12=2,17=6,18=5,40=1/2;
 3/5=1,6=6,7=101,11=2,25=1,30=1,70=2201,72=2,74=-5,116=2,124=31/1,2,3,8;
 4/5=2,13=-1/1;
 5/5=2,38=5,53=2/2;
 8/6=1,10=2,108=12/1;
 9/41=12,42=1,48=2,70=2/14;
 6/7=2,8=2,9=2,10=2/1;
 99/5=1,9=1/99;
 Leave Link    1 at Thu May  9 23:55:52 2019, MaxMem=           0 cpu:               5.0 elap:               0.2
 (Enter /opt/software/gaussian/g16.b01/l101.exe)
 ----------------------------------------------------------------------
 After the closed shell GS is optimized, find out which excited state w
 e need
 ----------------------------------------------------------------------
 Symbolic Z-matrix:
 Charge =  0 Multiplicity = 1
 C                     0.35429  -1.47937  -0.30068 
 H                     4.61802  -1.28328   1.29805 
 C                     1.78959   1.48604   0.3137 
 O                     2.51655   1.44709  -0.67856 
 O                     1.08739  -1.59167   0.68272 
 N                     4.64178  -0.83217  -0.64035 
 H                     4.54254  -1.38286  -1.49002 
 N                     4.21673  -1.68419   0.45352 
 H                     3.2011   -1.64085   0.56767 
 H                     4.0152   -0.02933  -0.73513 
 C                     0.94441  -1.34421  -1.68628 
 H                     0.59689  -2.15548  -2.33388 
 H                     0.62986  -0.39991  -2.13981 
 H                     2.03185  -1.35996  -1.62133 
 C                     2.34462   1.20312   1.69138 
 H                     2.13324   2.03014   2.37627 
 H                     1.87762   0.30053   2.09587 
 H                     3.42118   1.04823   1.61972 
 C                    -1.12782  -1.46691  -0.13376 
 C                    -1.66107  -1.66547   1.1511 
 C                    -2.00002  -1.24392  -1.2101 
 C                    -3.0362   -1.64507   1.35551 
 H                    -0.97697  -1.82964   1.97628 
 C                    -3.37897  -1.21781  -1.00329 
 H                    -1.611    -1.07944  -2.2084 
 C                    -3.89843  -1.41902   0.27693 
 H                    -3.43947  -1.80029   2.35146 
 H                    -4.04635  -1.03762  -1.84013 
 H                    -4.97248  -1.39839   0.4357 
 C                     0.33579   1.78998   0.16355 
 C                    -0.15191   2.12626  -1.11132 
 C                    -0.56215   1.70368   1.23851 
 C                    -1.50806   2.36076  -1.30891 
 H                     0.55151   2.19258  -1.93417 
 C                    -1.92258   1.93338   1.03808 
 H                    -0.21041   1.43512   2.22813 
 C                    -2.39736   2.25813  -0.23361 
 H                    -1.87676   2.6149   -2.2978 
 H                    -2.61288   1.84333   1.8703 
 H                    -3.45857   2.42581  -0.38923 
 
 ITRead=  0  0  0  0  0  0  0  0  0  0  0  0  0  0  0  0  0  0  0  0
 ITRead=  0  0  0  0  0  0  0  0  0  0  0  0  0  0  0  0  0  0  0  0
 MicOpt= -1 -1 -1 -1 -1 -1 -1 -1 -1 -1 -1 -1 -1 -1 -1 -1 -1 -1 -1 -1
 MicOpt= -1 -1 -1 -1 -1 -1 -1 -1 -1 -1 -1 -1 -1 -1 -1 -1 -1 -1 -1 -1
 NAtoms=     40 NQM=       40 NQMF=       0 NMMI=      0 NMMIF=      0
                NMic=       0 NMicF=      0.
                    Isotopes and Nuclear Properties:
 (Nuclear quadrupole moments (NQMom) in fm**2, nuclear magnetic moments (NMagM)
  in nuclear magnetons)

  Atom         1           2           3           4           5           6           7           8           9          10
 IAtWgt=          12           1          12          16          16          14           1          14           1           1
 AtmWgt=  12.0000000   1.0078250  12.0000000  15.9949146  15.9949146  14.0030740   1.0078250  14.0030740   1.0078250   1.0078250
 NucSpn=           0           1           0           0           0           2           1           2           1           1
 AtZEff=  -0.0000000  -0.0000000  -0.0000000  -0.0000000  -0.0000000  -0.0000000  -0.0000000  -0.0000000  -0.0000000  -0.0000000
 NQMom=    0.0000000   0.0000000   0.0000000   0.0000000   0.0000000   2.0440000   0.0000000   2.0440000   0.0000000   0.0000000
 NMagM=    0.0000000   2.7928460   0.0000000   0.0000000   0.0000000   0.4037610   2.7928460   0.4037610   2.7928460   2.7928460
 AtZNuc=   6.0000000   1.0000000   6.0000000   8.0000000   8.0000000   7.0000000   1.0000000   7.0000000   1.0000000   1.0000000

  Atom        11          12          13          14          15          16          17          18          19          20
 IAtWgt=          12           1           1           1          12           1           1           1          12          12
 AtmWgt=  12.0000000   1.0078250   1.0078250   1.0078250  12.0000000   1.0078250   1.0078250   1.0078250  12.0000000  12.0000000
 NucSpn=           0           1           1           1           0           1           1           1           0           0
 AtZEff=  -0.0000000  -0.0000000  -0.0000000  -0.0000000  -0.0000000  -0.0000000  -0.0000000  -0.0000000  -0.0000000  -0.0000000
 NQMom=    0.0000000   0.0000000   0.0000000   0.0000000   0.0000000   0.0000000   0.0000000   0.0000000   0.0000000   0.0000000
 NMagM=    0.0000000   2.7928460   2.7928460   2.7928460   0.0000000   2.7928460   2.7928460   2.7928460   0.0000000   0.0000000
 AtZNuc=   6.0000000   1.0000000   1.0000000   1.0000000   6.0000000   1.0000000   1.0000000   1.0000000   6.0000000   6.0000000

  Atom        21          22          23          24          25          26          27          28          29          30
 IAtWgt=          12          12           1          12           1          12           1           1           1          12
 AtmWgt=  12.0000000  12.0000000   1.0078250  12.0000000   1.0078250  12.0000000   1.0078250   1.0078250   1.0078250  12.0000000
 NucSpn=           0           0           1           0           1           0           1           1           1           0
 AtZEff=  -0.0000000  -0.0000000  -0.0000000  -0.0000000  -0.0000000  -0.0000000  -0.0000000  -0.0000000  -0.0000000  -0.0000000
 NQMom=    0.0000000   0.0000000   0.0000000   0.0000000   0.0000000   0.0000000   0.0000000   0.0000000   0.0000000   0.0000000
 NMagM=    0.0000000   0.0000000   2.7928460   0.0000000   2.7928460   0.0000000   2.7928460   2.7928460   2.7928460   0.0000000
 AtZNuc=   6.0000000   6.0000000   1.0000000   6.0000000   1.0000000   6.0000000   1.0000000   1.0000000   1.0000000   6.0000000

  Atom        31          32          33          34          35          36          37          38          39          40
 IAtWgt=          12          12          12           1          12           1          12           1           1           1
 AtmWgt=  12.0000000  12.0000000  12.0000000   1.0078250  12.0000000   1.0078250  12.0000000   1.0078250   1.0078250   1.0078250
 NucSpn=           0           0           0           1           0           1           0           1           1           1
 AtZEff=  -0.0000000  -0.0000000  -0.0000000  -0.0000000  -0.0000000  -0.0000000  -0.0000000  -0.0000000  -0.0000000  -0.0000000
 NQMom=    0.0000000   0.0000000   0.0000000   0.0000000   0.0000000   0.0000000   0.0000000   0.0000000   0.0000000   0.0000000
 NMagM=    0.0000000   0.0000000   0.0000000   2.7928460   0.0000000   2.7928460   0.0000000   2.7928460   2.7928460   2.7928460
 AtZNuc=   6.0000000   6.0000000   6.0000000   1.0000000   6.0000000   1.0000000   6.0000000   1.0000000   1.0000000   1.0000000
 Leave Link  101 at Thu May  9 23:55:53 2019, MaxMem=   104857600 cpu:               5.0 elap:               0.2
 (Enter /opt/software/gaussian/g16.b01/l202.exe)
                          Input orientation:                          
 ---------------------------------------------------------------------
 Center     Atomic      Atomic             Coordinates (Angstroms)
 Number     Number       Type             X           Y           Z
 ---------------------------------------------------------------------
      1          6           0        0.354292   -1.479367   -0.300682
      2          1           0        4.618022   -1.283283    1.298049
      3          6           0        1.789590    1.486036    0.313703
      4          8           0        2.516551    1.447090   -0.678564
      5          8           0        1.087393   -1.591673    0.682724
      6          7           0        4.641778   -0.832169   -0.640352
      7          1           0        4.542537   -1.382863   -1.490021
      8          7           0        4.216729   -1.684188    0.453524
      9          1           0        3.201097   -1.640852    0.567673
     10          1           0        4.015195   -0.029334   -0.735132
     11          6           0        0.944413   -1.344207   -1.686276
     12          1           0        0.596890   -2.155483   -2.333883
     13          1           0        0.629864   -0.399910   -2.139806
     14          1           0        2.031853   -1.359962   -1.621332
     15          6           0        2.344620    1.203121    1.691376
     16          1           0        2.133242    2.030138    2.376266
     17          1           0        1.877621    0.300528    2.095869
     18          1           0        3.421182    1.048234    1.619719
     19          6           0       -1.127817   -1.466906   -0.133755
     20          6           0       -1.661066   -1.665472    1.151099
     21          6           0       -2.000025   -1.243915   -1.210097
     22          6           0       -3.036203   -1.645070    1.355511
     23          1           0       -0.976966   -1.829640    1.976279
     24          6           0       -3.378972   -1.217805   -1.003288
     25          1           0       -1.611000   -1.079441   -2.208397
     26          6           0       -3.898430   -1.419016    0.276932
     27          1           0       -3.439469   -1.800289    2.351458
     28          1           0       -4.046348   -1.037619   -1.840128
     29          1           0       -4.972479   -1.398392    0.435704
     30          6           0        0.335793    1.789979    0.163553
     31          6           0       -0.151912    2.126260   -1.111322
     32          6           0       -0.562152    1.703684    1.238513
     33          6           0       -1.508064    2.360762   -1.308906
     34          1           0        0.551512    2.192584   -1.934174
     35          6           0       -1.922581    1.933380    1.038083
     36          1           0       -0.210412    1.435119    2.228133
     37          6           0       -2.397359    2.258132   -0.233613
     38          1           0       -1.876758    2.614901   -2.297804
     39          1           0       -2.612881    1.843333    1.870299
     40          1           0       -3.458570    2.425814   -0.389234
 ---------------------------------------------------------------------
                    Distance matrix (angstroms):
                    1          2          3          4          5
     1  C    0.000000
     2  H    4.557827   0.000000
     3  C    3.351293   4.078982   0.000000
     4  O    3.658184   3.972168   1.230684   0.000000
     5  O    1.231721   3.597092   3.178294   3.623490   0.000000
     6  N    4.349342   1.990343   3.797272   3.116580   3.867949
     7  H    4.354909   2.790869   4.366087   3.573754   4.086862
     8  N    3.940710   1.017341   3.995106   3.738600   3.139082
     9  H    2.980674   1.633702   3.440099   3.399573   2.117404
    10  H    3.961509   2.463659   2.889588   2.104510   3.608773
    11  C    1.512079   4.733425   3.567144   3.358339   2.386178
    12  H    2.156361   5.488275   4.657564   4.404964   3.107795
    13  H    2.150243   5.338970   3.304764   3.017652   3.097791
    14  H    2.138360   3.900889   3.450037   3.000547   2.500874
    15  C    3.889144   3.391942   1.511980   2.388660   3.226278
    16  H    4.758922   4.279654   2.160627   3.133506   4.132723
    17  H    3.351420   3.264165   2.142264   3.069253   2.490354
    18  H    4.413901   2.640430   2.135285   2.501909   3.646044
    19  C    1.491532   5.924394   4.175087   4.697830   2.364183
    20  C    2.490777   6.292425   4.747659   5.521611   2.789059
    21  C    2.534814   7.077492   4.912818   5.284269   3.638112
    22  C    3.777021   7.662986   5.846150   6.673229   4.178461
    23  H    2.660731   5.662366   4.627278   5.476295   2.447752
    24  C    3.807799   8.321800   5.979904   6.477986   4.788615
    25  H    2.767976   7.151044   4.950421   5.075473   3.987767
    26  C    4.292193   8.578523   6.387038   7.090805   5.005288
    27  H    4.639985   8.142489   6.503494   7.429716   4.829148
    28  H    4.683019   9.218450   6.713121   7.112992   5.746917
    29  H    5.378040   9.629880   7.352577   8.088506   6.067984
    30  C    3.302193   5.391614   1.492800   2.362719   3.502858
    31  C    3.730137   6.338953   2.491990   2.787337   4.310163
    32  C    3.652507   5.979943   2.536402   3.635854   3.726832
    33  C    4.385371   7.589744   3.777900   4.174884   5.130763
    34  H    4.023732   6.250234   2.661766   2.448203   4.632054
    35  C    4.315470   7.293421   3.808550   4.784271   4.648895
    36  H    3.899747   5.618589   2.769051   3.985644   3.637864
    37  C    4.641657   8.006446   4.292578   5.000228   5.272966
    38  H    5.072387   8.384996   4.640734   4.825649   5.946848
    39  H    4.955563   7.898681   4.683204   5.741497   5.186678
    40  H    5.458589   9.046307   5.377777   6.061657   6.160769
                    6          7          8          9         10
     6  N    0.000000
     7  H    1.017374   0.000000
     8  N    1.450230   1.993568   0.000000
     9  H    2.046669   2.469843   1.022945   0.000000
    10  H    1.022807   1.637067   2.047452   2.226443   0.000000
    11  C    3.876422   3.603680   3.924587   3.203265   3.473222
    12  H    4.580429   4.108184   4.592928   3.932654   4.331434
    13  H    4.304726   4.086249   4.608723   3.934669   3.683870
    14  H    2.837710   2.514220   3.030484   2.497554   2.547463
    15  C    3.854387   4.651821   3.656996   3.175601   3.193385
    16  H    4.856494   5.692227   4.672694   4.229361   4.178991
    17  H    4.050984   4.774326   3.479629   2.802843   3.562667
    18  H    3.183346   4.103432   3.075555   2.895932   2.656939
    19  C    5.826470   5.830903   5.381104   4.388822   5.373904
    20  C    6.605266   6.748339   5.919074   4.897103   6.201190
    21  C    6.678899   6.550021   6.450543   5.510871   6.154971
    22  C    7.974689   8.099574   7.308908   6.286861   7.530180
    23  H    6.277897   6.532975   5.414278   4.413165   5.959406
    24  C    8.038213   7.938165   7.748193   6.778215   7.493869
    25  H    6.451135   6.202753   6.435368   5.583729   5.909933
    26  C    8.609353   8.623999   8.121410   7.108940   8.098207
    27  H    8.671490   8.868124   7.888790   6.877821   8.260468
    28  H    8.772982   8.602948   8.599845   7.660735   8.199154
    29  H    9.690843   9.707945   9.193669   8.178236   9.166431
    30  C    5.105236   5.522493   5.216856   4.488194   4.201849
    31  C    5.652750   5.873262   6.004438   5.315339   4.706685
    32  C    6.086179   6.559689   5.910295   5.079172   5.277379
    33  C    6.961489   7.117394   7.227796   6.458379   6.045508
    34  H    5.249132   5.376744   5.845022   5.289118   4.286225
    35  C    7.318211   7.693278   7.149800   6.264862   6.500286
    36  H    6.075570   6.660046   5.699025   4.884375   5.364822
    37  C    7.698366   7.937100   7.730472   6.869268   6.826776
    38  H    7.557827   7.605391   7.948746   7.218518   6.644474
    39  H    8.129684   8.538155   7.816280   6.902081   7.363867
    40  H    8.734595   8.929472   8.747147   7.861591   7.874297
                   11         12         13         14         15
    11  C    0.000000
    12  H    1.094685   0.000000
    13  H    1.093768   1.766576   0.000000
    14  H    1.089491   1.788771   1.776538   0.000000
    15  C    4.456231   5.526074   4.493112   4.200149   0.000000
    16  H    5.413295   6.485777   5.344173   5.242504   1.094400
    17  H    4.228552   5.224458   4.470845   4.074138   1.093790
    18  H    4.773653   5.819914   4.901286   4.270135   1.090005
    19  C    2.592202   2.879117   2.872658   3.493972   4.745310
    20  C    3.865544   4.181337   4.204767   4.627889   4.956435
    21  C    2.984379   2.972847   2.914279   4.054457   5.769096
    22  C    5.018794   5.203029   5.216101   5.884562   6.097397
    23  H    4.164331   4.600075   4.644156   4.713427   4.506855
    24  C    4.378825   4.296185   4.246339   5.447863   6.773596
    25  H    2.621612   2.459348   2.342635   3.700502   6.005435
    26  C    5.226176   5.250394   5.233034   6.226970   6.917509
    27  H    5.977435   6.194415   6.220288   6.775863   6.550715
    28  H    5.002536   4.801362   4.729000   6.090674   7.637860
    29  H    6.286123   6.265913   6.246316   7.300243   7.866671
    30  C    3.689906   4.676754   3.191795   3.998070   2.591145
    31  C    3.684649   4.515383   2.837338   4.145200   3.865226
    32  C    4.484838   5.385031   4.154401   4.928844   2.984120
    33  C    4.459131   5.087030   3.589212   5.145135   5.018466
    34  H    3.567172   4.366636   2.601816   3.861329   4.163999
    35  C    5.136571   5.868278   4.696615   5.792766   4.378250
    36  H    4.937699   5.861412   4.811682   5.259145   2.621091
    37  C    5.123916   5.732073   4.456774   5.885090   5.225418
    38  H    4.899746   5.373714   3.923927   5.615549   5.977183
    39  H    5.955164   6.630860   5.623920   6.635220   5.001870
    40  H    5.939835   6.420023   5.269204   6.781955   6.284977
                   16         17         18         19         20
    16  H    0.000000
    17  H    1.770739   0.000000
    18  H    1.787537   1.779990   0.000000
    19  C    5.400373   4.138563   5.485799   0.000000
    20  C    5.436482   4.156928   5.780402   1.405216   0.000000
    21  C    6.376936   5.324552   6.530796   1.403205   2.422365
    22  C    6.424349   5.336586   7.001536   2.427260   1.390396
    23  H    4.973054   3.563788   5.268112   2.146293   1.084374
    24  C    7.235677   6.288233   7.632640   2.426075   2.791593
    25  H    6.686401   5.709772   6.671156   2.165118   3.410594
    26  C    7.258439   6.295088   7.840097   2.801295   2.414686
    27  H    6.762240   5.722779   7.464453   3.410449   2.149827
    28  H    8.085570   7.237135   8.490308   3.407905   3.877010
    29  H    8.124769   7.250265   8.822778   3.887210   3.398320
    30  C    2.860874   2.886095   3.491451   3.582994   4.111306
    31  C    4.170664   4.211695   4.624687   3.849529   4.666190
    32  C    2.943842   2.942176   4.054859   3.500820   3.544921
    33  C    5.191234   5.224933   5.881925   4.022016   4.720762
    34  H    4.594361   4.645394   4.709002   4.410615   5.412856
    35  C    4.271978   4.269268   5.447714   3.683314   3.610111
    36  H    2.422541   2.380057   3.702475   3.852518   3.588602
    37  C    5.233526   5.247300   6.225280   3.936701   4.225426
    38  H    6.186193   6.225435   6.772710   4.680296   5.501186
    39  H    4.776671   4.753497   6.091378   4.144796   3.706064
    40  H    6.250833   6.258395   7.298261   4.544331   4.726761
                   21         22         23         24         25
    21  C    0.000000
    22  C    2.795878   0.000000
    23  H    3.397457   2.158675   0.000000
    24  C    1.394613   2.421565   3.875796   0.000000
    25  H    1.083972   3.879765   4.298408   2.144098   0.000000
    26  C    2.417821   1.399239   3.404606   1.396168   3.394776
    27  H    3.881524   1.085646   2.491092   3.405476   4.965400
    28  H    2.151031   3.406097   4.961186   1.085430   2.463390
    29  H    3.401177   2.157790   4.303890   2.154663   4.288653
    30  C    4.067859   4.958899   4.255697   4.920138   4.201157
    31  C    3.844913   5.350451   5.085581   4.648479   3.689042
    32  C    4.092861   4.165185   3.633283   4.636296   4.552698
    33  C    3.639435   5.047872   5.351072   4.049672   3.557341
    34  H    4.340985   6.198493   5.814308   5.286398   3.931641
    35  C    3.893008   3.761146   3.991832   4.027187   4.440023
    36  H    4.711832   4.270144   3.362988   5.245937   5.288427
    37  C    3.657284   4.262443   4.859117   3.692980   3.956959
    38  H    4.011080   5.730478   6.231481   4.315328   3.704967
    39  H    4.404036   3.551502   4.022211   4.267899   5.116848
    40  H    4.033371   4.449115   5.464696   3.695857   4.360009
                   26         27         28         29         30
    26  C    0.000000
    27  H    2.158627   0.000000
    28  H    2.156220   4.303413   0.000000
    29  H    1.085917   2.486313   2.483402   0.000000
    30  C    5.314052   5.650624   5.586878   6.198187   0.000000
    31  C    5.341594   6.181963   5.070298   6.168819   1.405791
    32  C    4.669758   4.668557   5.397443   5.451455   1.403314
    33  C    4.745045   5.868810   4.274819   5.401581   2.427702
    34  H    6.142852   7.087849   5.619909   7.001850   2.146878
    35  C    3.965084   4.238654   4.649873   4.556912   2.426030
    36  H    5.055170   4.572733   6.113885   5.823991   2.164892
    37  C    4.004409   4.923349   4.020203   4.522101   2.801255
    38  H    5.195085   6.599364   4.272878   5.758652   3.410888
    39  H    3.851542   3.767060   4.911413   4.258468   3.407419
    40  H    3.926827   5.037033   3.800782   4.194877   3.886779
                   31         32         33         34         35
    31  C    0.000000
    32  C    2.422518   0.000000
    33  C    1.390388   2.795683   0.000000
    34  H    1.084569   3.397825   2.158957   0.000000
    35  C    2.791489   1.394166   2.421330   3.875904   0.000000
    36  H    3.410727   1.084065   3.879608   4.298730   2.143830
    37  C    2.414497   2.417137   1.399155   3.404709   1.395739
    38  H    2.149791   3.881242   1.085560   2.491400   3.405101
    39  H    3.876400   2.150382   3.405246   4.960784   1.084991
    40  H    3.397813   3.400040   2.157429   4.303719   2.153831
                   36         37         38         39         40
    36  H    0.000000
    37  C    3.394154   0.000000
    38  H    4.965149   2.158517   0.000000
    39  H    2.463035   2.155215   4.302357   0.000000
    40  H    4.287495   1.085589   2.486066   2.481927   0.000000
 Stoichiometry    C16H20N2O2
 Framework group  C1[X(C16H20N2O2)]
 Deg. of freedom   114
 Full point group                 C1      NOp   1
 Largest Abelian subgroup         C1      NOp   1
 Largest concise Abelian subgroup C1      NOp   1
                         Standard orientation:                         
 ---------------------------------------------------------------------
 Center     Atomic      Atomic             Coordinates (Angstroms)
 Number     Number       Type             X           Y           Z
 ---------------------------------------------------------------------
      1          6           0        0.354292   -1.479367   -0.300682
      2          1           0        4.618022   -1.283283    1.298049
      3          6           0        1.789590    1.486036    0.313703
      4          8           0        2.516551    1.447090   -0.678564
      5          8           0        1.087393   -1.591673    0.682724
      6          7           0        4.641778   -0.832169   -0.640352
      7          1           0        4.542537   -1.382863   -1.490021
      8          7           0        4.216729   -1.684188    0.453524
      9          1           0        3.201097   -1.640852    0.567673
     10          1           0        4.015195   -0.029334   -0.735132
     11          6           0        0.944413   -1.344207   -1.686276
     12          1           0        0.596890   -2.155483   -2.333883
     13          1           0        0.629864   -0.399910   -2.139806
     14          1           0        2.031853   -1.359962   -1.621332
     15          6           0        2.344620    1.203121    1.691376
     16          1           0        2.133242    2.030138    2.376266
     17          1           0        1.877621    0.300528    2.095869
     18          1           0        3.421182    1.048234    1.619719
     19          6           0       -1.127817   -1.466906   -0.133755
     20          6           0       -1.661066   -1.665472    1.151099
     21          6           0       -2.000025   -1.243915   -1.210097
     22          6           0       -3.036203   -1.645070    1.355511
     23          1           0       -0.976966   -1.829640    1.976279
     24          6           0       -3.378972   -1.217805   -1.003288
     25          1           0       -1.611000   -1.079441   -2.208397
     26          6           0       -3.898430   -1.419016    0.276932
     27          1           0       -3.439469   -1.800289    2.351458
     28          1           0       -4.046348   -1.037619   -1.840128
     29          1           0       -4.972479   -1.398392    0.435704
     30          6           0        0.335793    1.789979    0.163553
     31          6           0       -0.151912    2.126260   -1.111322
     32          6           0       -0.562152    1.703684    1.238513
     33          6           0       -1.508064    2.360762   -1.308906
     34          1           0        0.551512    2.192584   -1.934174
     35          6           0       -1.922581    1.933380    1.038083
     36          1           0       -0.210412    1.435119    2.228133
     37          6           0       -2.397359    2.258132   -0.233613
     38          1           0       -1.876758    2.614901   -2.297804
     39          1           0       -2.612881    1.843333    1.870299
     40          1           0       -3.458570    2.425814   -0.389234
 ---------------------------------------------------------------------
 Rotational constants (GHZ):           0.4970317           0.2618455           0.2147225
 Leave Link  202 at Thu May  9 23:55:53 2019, MaxMem=   104857600 cpu:               2.3 elap:               0.1
 (Enter /opt/software/gaussian/g16.b01/l301.exe)
 Standard basis: 6-31G(d,p) (6D, 7F)
 Ernie: Thresh=  0.10000D-02 Tol=  0.10000D-05 Strict=F.
 There are   400 symmetry adapted cartesian basis functions of A   symmetry.
 There are   400 symmetry adapted basis functions of A   symmetry.
   400 basis functions,   700 primitive gaussians,   400 cartesian basis functions
    73 alpha electrons       73 beta electrons
       nuclear repulsion energy      1570.5520442434 Hartrees.
 IExCor=  402 DFT=T Ex+Corr=B3LYP ExCW=0 ScaHFX=  0.200000
 ScaDFX=  0.800000  0.720000  1.000000  0.810000 ScalE2=  1.000000  1.000000
 IRadAn=      5 IRanWt=     -1 IRanGd=            0 ICorTp=0 IEmpDi=131
 NAtoms=   40 NActive=   40 NUniq=   40 SFac= 1.00D+00 NAtFMM=   60 NAOKFM=F Big=F
 Integral buffers will be    131072 words long.
 Raffenetti 2 integral format.
 Two-electron integral symmetry is turned on.
 R6Disp:  Grimme-D3 Dispersion energy=       -0.0479907269 Hartrees.
 Nuclear repulsion after empirical dispersion term =     1570.5040535165 Hartrees.
 ------------------------------------------------------------------------------
 Polarizable Continuum Model (PCM)
 =================================
 Model                : PCM.
 Atomic radii         : UFF (Universal Force Field).
 Polarization charges : Total charges.
 Charge compensation  : None.
 Solution method      : On-the-fly selection.
 Cavity type          : Scaled VdW (van der Waals Surface) (Alpha=1.100).
 Cavity algorithm     : GePol (No added spheres)
                        Default sphere list used, NSphG=   40.
                        Lebedev-Laikov grids with approx.  5.0 points / Ang**2.
                        Smoothing algorithm: York/Karplus (Gamma=1.0000).
                        Polarization charges: spherical gaussians, with
                                              point-specific exponents (IZeta= 3).
                        Self-potential: point-specific (ISelfS= 7).
                        Self-field    : sphere-specific E.n sum rule (ISelfD= 2).
 Solvent              : Acetonitrile, Eps=  35.688000 Eps(inf)=   1.806874
 ------------------------------------------------------------------------------
 GePol: Number of generator spheres                  =      40
 GePol: Total number of spheres                      =      40
 GePol: Number of exposed spheres                    =      40 (100.00%)
 GePol: Number of points                             =    2729
 GePol: Average weight of points                     =       0.13
 GePol: Minimum weight of points                     =   0.45D-10
 GePol: Maximum weight of points                     =    0.20577
 GePol: Number of points with low weight             =     210
 GePol: Fraction of low-weight points (<1% of avg)   =       7.70%
 GePol: Cavity surface area                          =    347.345 Ang**2
 GePol: Cavity volume                                =    412.341 Ang**3
 Leave Link  301 at Thu May  9 23:55:53 2019, MaxMem=   104857600 cpu:               4.6 elap:               0.2
 (Enter /opt/software/gaussian/g16.b01/l302.exe)
 NPDir=0 NMtPBC=     1 NCelOv=     1 NCel=       1 NClECP=     1 NCelD=      1
         NCelK=      1 NCelE2=     1 NClLst=     1 CellRange=     0.0.
 One-electron integrals computed using PRISM.
 One-electron integral symmetry used in STVInt
 PrsmSu:  requested number of processors reduced to:  27 ShMem   1 Linda.
 NBasis=   400 RedAO= T EigKep=  4.63D-04  NBF=   400
 NBsUse=   400 1.00D-06 EigRej= -1.00D+00 NBFU=   400
 Precomputing XC quadrature grid using
 IXCGrd= 4 IRadAn=           5 IRanWt=          -1 IRanGd=           0 AccXCQ= 0.00D+00.
 Generated NRdTot=       0 NPtTot=           0 NUsed=           0 NTot=          32
 NSgBfM=   399   398   398   398   399 MxSgAt=    40 MxSgA2=    40.
 Leave Link  302 at Thu May  9 23:55:54 2019, MaxMem=   104857600 cpu:              17.4 elap:               0.6
 (Enter /opt/software/gaussian/g16.b01/l303.exe)
 DipDrv:  MaxL=1.
 Leave Link  303 at Thu May  9 23:55:54 2019, MaxMem=   104857600 cpu:               2.8 elap:               0.2
 (Enter /opt/software/gaussian/g16.b01/l308.exe)
 Leave Link  308 at Thu May  9 23:55:55 2019, MaxMem=   104857600 cpu:               3.3 elap:               0.2
 (Enter /opt/software/gaussian/g16.b01/l401.exe)
 Core hamiltonian diagonalized for initial guess.
 JPrj=0 DoOrth=F DoCkMO=T.
 Mixing orbitals, IMix= 1 IMixAn=  0 NRI=1 NE=   73 Coef=  7.07106781D-01  7.07106781D-01
 Mixing orbitals, IMix= 1 IMixAn=  0 NRI=1 NE=   73 Coef= -7.07106781D-01  7.07106781D-01
 Initial guess <Sx>= 0.0000 <Sy>= 0.0000 <Sz>= 0.0000 <S**2>= 1.0000 S= 0.6180
 Leave Link  401 at Thu May  9 23:55:55 2019, MaxMem=   104857600 cpu:               5.8 elap:               0.2
 (Enter /opt/software/gaussian/g16.b01/l502.exe)
 Integral symmetry usage will be decided dynamically.
 UHF open shell SCF:
 Using DIIS extrapolation, IDIIS=  1040.
 NGot=   104857600 LenX=   104520454 LenY=   104360013
 Requested convergence on RMS density matrix=1.00D-08 within 128 cycles.
 Requested convergence on MAX density matrix=1.00D-06.
 Requested convergence on             energy=1.00D-06.
 No special actions if energy rises.
 Fock matrices will be formed incrementally for  20 cycles.

 Cycle   1  Pass 1  IDiag  1:
 FoFJK:  IHMeth= 1 ICntrl=       0 DoSepK=F KAlg= 0 I1Cent=           0 FoldK=F
 IRaf= 800000000 NMat=       1 IRICut=       1 DoRegI=T DoRafI=F ISym2E= 0 IDoP0=0 IntGTp=1.
 FoFCou: FMM=F IPFlag=           0 FMFlag=      100000 FMFlg1=           0
         NFxFlg=           0 DoJE=F BraDBF=F KetDBF=F FulRan=T
         wScrn=  0.000000 ICntrl=         0 IOpCl=  1 I1Cent=           0 NGrid=           0
         NMat0=    1 NMatS0=      1 NMatT0=    0 NMatD0=    1 NMtDS0=    0 NMtDT0=    0
 Symmetry not used in FoFCou.
 Inv3:  Mode=1 IEnd=    22342323.
 Iteration    1 A*A^-1 deviation from unit magnitude is 3.33D-15 for    442.
 Iteration    1 A*A^-1 deviation from orthogonality  is 2.62D-15 for   1725    424.
 Iteration    1 A^-1*A deviation from unit magnitude is 3.77D-15 for    760.
 Iteration    1 A^-1*A deviation from orthogonality  is 3.42D-14 for   1915   1890.
 E= -533.657360452149    
 DIIS: error= 3.46D-01 at cycle   1 NSaved=   1.
 NSaved= 1 IEnMin= 1 EnMin= -533.657360452149     IErMin= 1 ErrMin= 3.46D-01
 ErrMax= 3.46D-01  0.00D+00 EMaxC= 1.00D-01 BMatC= 7.26D+02 BMatP= 7.26D+02
 IDIUse=3 WtCom= 0.00D+00 WtEn= 1.00D+00
 Coeff-Com:  0.100D+01
 Coeff-En:   0.100D+01
 Coeff:      0.100D+01
 Gap=    -1.322 Goal=   None    Shift=    0.000
 Gap=     1.491 Goal=   None    Shift=    0.000
 GapD=   -1.322 DampG=0.250 DampE=0.250 DampFc=0.2500 IDamp=-1.
 Damping current iteration by 2.50D-01
 RMSDP=1.10D-01 MaxDP=1.13D+01              OVMax= 9.99D-01

 Cycle   2  Pass 1  IDiag  1:
 RMSU=  1.54D-02    CP:  7.59D-01
 E= -699.145931379076     Delta-E=     -165.488570926927 Rises=F Damp=T
 DIIS: error= 2.50D-01 at cycle   2 NSaved=   2.
 NSaved= 2 IEnMin= 2 EnMin= -699.145931379076     IErMin= 2 ErrMin= 2.50D-01
 ErrMax= 2.50D-01  0.00D+00 EMaxC= 1.00D-01 BMatC= 2.34D+02 BMatP= 7.26D+02
 IDIUse=3 WtCom= 0.00D+00 WtEn= 1.00D+00
 Coeff-Com: -0.116D+01 0.216D+01
 Coeff-En:   0.000D+00 0.100D+01
 Coeff:      0.000D+00 0.100D+01
 Gap=    -0.186 Goal=   None    Shift=    0.000
 Gap=    -0.114 Goal=   None    Shift=    0.000
 RMSDP=1.08D-01 MaxDP=7.93D+00 DE=-1.65D+02 OVMax= 9.99D-01

 Cycle   3  Pass 1  IDiag  1:
 RMSU=  8.79D-02    CP:  1.15D-01  2.15D+00
 E= -737.181425306196     Delta-E=      -38.035493927120 Rises=F Damp=F
 DIIS: error= 1.64D-01 at cycle   3 NSaved=   3.
 NSaved= 3 IEnMin= 3 EnMin= -737.181425306196     IErMin= 3 ErrMin= 1.64D-01
 ErrMax= 1.64D-01  0.00D+00 EMaxC= 1.00D-01 BMatC= 1.80D+02 BMatP= 2.34D+02
 IDIUse=3 WtCom= 0.00D+00 WtEn= 1.00D+00
 EnCoef did   100 forward-backward iterations
 Coeff-Com: -0.996D+00 0.187D+01 0.126D+00
 Coeff-En:   0.332D+00 0.184D-01 0.649D+00
 Coeff:      0.332D+00 0.184D-01 0.649D+00
 Gap=    -0.097 Goal=   None    Shift=    0.000
 Gap=    -0.098 Goal=   None    Shift=    0.000
 RMSDP=9.67D-02 MaxDP=7.01D+00 DE=-3.80D+01 OVMax= 9.98D-01

 Cycle   4  Pass 1  IDiag  1:
 RMSU=  4.14D-02    CP:  1.41D-01  2.66D-01  6.26D-02
 E= -822.492476586493     Delta-E=      -85.311051280297 Rises=F Damp=F
 DIIS: error= 1.17D-01 at cycle   4 NSaved=   4.
 NSaved= 4 IEnMin= 4 EnMin= -822.492476586493     IErMin= 4 ErrMin= 1.17D-01
 ErrMax= 1.17D-01  0.00D+00 EMaxC= 1.00D-01 BMatC= 1.30D+02 BMatP= 1.80D+02
 IDIUse=3 WtCom= 0.00D+00 WtEn= 1.00D+00
 EnCoef did     7 forward-backward iterations
 Coeff-Com: -0.791D+00 0.147D+01 0.120D+00 0.201D+00
 Coeff-En:   0.249D-01 0.000D+00 0.324D+00 0.651D+00
 Coeff:      0.249D-01 0.000D+00 0.324D+00 0.651D+00
 Gap=     0.467 Goal=   None    Shift=    0.000
 Gap=     0.493 Goal=   None    Shift=    0.000
 RMSDP=5.53D-02 MaxDP=2.73D+00 DE=-8.53D+01 OVMax= 9.55D-01

 Cycle   5  Pass 1  IDiag  1:
 RMSU=  4.08D-02    CP:  1.66D-01  2.66D-01  7.70D-02  1.02D-01
 E= -717.938527432938     Delta-E=      104.553949153555 Rises=F Damp=F
 DIIS: error= 2.39D-01 at cycle   5 NSaved=   5.
 NSaved= 5 IEnMin= 4 EnMin= -822.492476586493     IErMin= 4 ErrMin= 1.17D-01
 ErrMax= 2.39D-01  0.00D+00 EMaxC= 1.00D-01 BMatC= 3.35D+02 BMatP= 1.30D+02
 IDIUse=2 WtCom= 0.00D+00 WtEn= 1.00D+00
 EnCoef did     5 forward-backward iterations
 Coeff-En:   0.000D+00 0.000D+00 0.197D+00 0.580D+00 0.223D+00
 Coeff:      0.000D+00 0.000D+00 0.197D+00 0.580D+00 0.223D+00
 Gap=    -0.208 Goal=   None    Shift=    0.000
 Gap=    -0.227 Goal=   None    Shift=    0.000
 RMSDP=4.13D-02 MaxDP=2.83D+00 DE= 1.05D+02 OVMax= 9.93D-01

 Cycle   6  Pass 1  IDiag  1:
 RMSU=  1.44D-02    CP:  4.01D-02  2.06D-01  2.82D-02  9.65D-02  1.04D-01
 E= -875.069367876182     Delta-E=     -157.130840443244 Rises=F Damp=F
 DIIS: error= 9.13D-02 at cycle   6 NSaved=   6.
 NSaved= 6 IEnMin= 6 EnMin= -875.069367876182     IErMin= 6 ErrMin= 9.13D-02
 ErrMax= 9.13D-02  0.00D+00 EMaxC= 1.00D-01 BMatC= 1.72D+01 BMatP= 1.30D+02
 IDIUse=3 WtCom= 8.71D-02 WtEn= 9.13D-01
 Coeff-Com: -0.232D+00 0.434D+00 0.217D-02 0.157D+00 0.107D-01 0.629D+00
 Coeff-En:   0.000D+00 0.000D+00 0.000D+00 0.102D+00 0.000D+00 0.898D+00
 Coeff:     -0.202D-01 0.378D-01 0.189D-03 0.107D+00 0.928D-03 0.875D+00
 Gap=    -0.611 Goal=   None    Shift=    0.000
 Gap=    -0.615 Goal=   None    Shift=    0.000
 RMSDP=1.58D-02 MaxDP=1.38D+00 DE=-1.57D+02 OVMax= 9.82D-01

 Cycle   7  Pass 1  IDiag  1:
 RMSU=  1.45D-02    CP:  3.88D-02  3.74D-01  2.98D-02  1.58D-01  5.81D-02
                    CP:  6.66D-01
 E= -858.404813736556     Delta-E=       16.664554139627 Rises=F Damp=F
 DIIS: error= 1.68D-01 at cycle   7 NSaved=   7.
 NSaved= 7 IEnMin= 6 EnMin= -875.069367876182     IErMin= 6 ErrMin= 9.13D-02
 ErrMax= 1.68D-01  0.00D+00 EMaxC= 1.00D-01 BMatC= 5.79D+01 BMatP= 1.72D+01
 IDIUse=2 WtCom= 0.00D+00 WtEn= 1.00D+00
 Coeff-En:   0.000D+00 0.000D+00 0.000D+00 0.000D+00 0.000D+00 0.722D+00
 Coeff-En:   0.278D+00
 Coeff:      0.000D+00 0.000D+00 0.000D+00 0.000D+00 0.000D+00 0.722D+00
 Coeff:      0.278D+00
 Gap=    -0.005 Goal=   None    Shift=    0.000
 Gap=    -0.005 Goal=   None    Shift=    0.000
 RMSDP=1.35D-02 MaxDP=1.45D+00 DE= 1.67D+01 OVMax= 9.79D-01

 Cycle   8  Pass 1  IDiag  1:
 RMSU=  7.33D-03    CP:  3.79D-02  1.67D-01  1.29D-02  1.21D-01  7.84D-02
                    CP:  7.59D-01  2.70D-01
 E= -876.478100010734     Delta-E=      -18.073286274179 Rises=F Damp=F
 DIIS: error= 6.83D-02 at cycle   8 NSaved=   8.
 NSaved= 8 IEnMin= 8 EnMin= -876.478100010734     IErMin= 8 ErrMin= 6.83D-02
 ErrMax= 6.83D-02  0.00D+00 EMaxC= 1.00D-01 BMatC= 1.33D+01 BMatP= 1.72D+01
 IDIUse=3 WtCom= 3.17D-01 WtEn= 6.83D-01
 EnCoef did     3 forward-backward iterations
 Coeff-Com: -0.589D-01 0.102D+00-0.475D-02-0.100D-03 0.530D-02 0.438D+00
 Coeff-Com:  0.956D-01 0.423D+00
 Coeff-En:   0.000D+00 0.000D+00 0.000D+00 0.000D+00 0.000D+00 0.464D+00
 Coeff-En:   0.542D-01 0.482D+00
 Coeff:     -0.187D-01 0.323D-01-0.151D-02-0.318D-04 0.168D-02 0.456D+00
 Coeff:      0.673D-01 0.463D+00
 Gap=    -0.638 Goal=   None    Shift=    0.000
 Gap=    -0.639 Goal=   None    Shift=    0.000
 RMSDP=7.14D-03 MaxDP=5.09D-01 DE=-1.81D+01 OVMax= 7.88D-01

 Cycle   9  Pass 1  IDiag  1:
 RMSU=  5.17D-03    CP:  3.67D-02  1.80D-01  2.25D-02  1.11D-01  8.57D-02
                    CP:  8.54D-01  2.23D-01  3.76D-01
 E= -878.843808351592     Delta-E=       -2.365708340857 Rises=F Damp=F
 DIIS: error= 5.16D-02 at cycle   9 NSaved=   9.
 NSaved= 9 IEnMin= 9 EnMin= -878.843808351592     IErMin= 9 ErrMin= 5.16D-02
 ErrMax= 5.16D-02  0.00D+00 EMaxC= 1.00D-01 BMatC= 8.01D+00 BMatP= 1.33D+01
 IDIUse=3 WtCom= 4.84D-01 WtEn= 5.16D-01
 EnCoef did     4 forward-backward iterations
 Coeff-Com: -0.357D-01 0.645D-01-0.742D-02-0.138D-01-0.574D-02 0.260D+00
 Coeff-Com:  0.141D-01 0.382D+00 0.342D+00
 Coeff-En:   0.000D+00 0.000D+00 0.000D+00 0.000D+00 0.000D+00 0.142D+00
 Coeff-En:   0.000D+00 0.354D+00 0.504D+00
 Coeff:     -0.173D-01 0.312D-01-0.360D-02-0.666D-02-0.278D-02 0.199D+00
 Coeff:      0.683D-02 0.368D+00 0.425D+00
 Gap=     0.189 Goal=   None    Shift=    0.000
 Gap=     0.189 Goal=   None    Shift=    0.000
 RMSDP=4.65D-03 MaxDP=3.59D-01 DE=-2.37D+00 OVMax= 7.91D-01

 Cycle  10  Pass 1  IDiag  1:
 RMSU=  2.97D-03    CP:  3.51D-02  1.76D-01  1.63D-02  1.04D-01  7.99D-02
                    CP:  8.37D-01  2.02D-01  5.49D-01  3.71D-01
 E= -881.661523641470     Delta-E=       -2.817715289878 Rises=F Damp=F
 DIIS: error= 1.13D-02 at cycle  10 NSaved=  10.
 NSaved=10 IEnMin=10 EnMin= -881.661523641470     IErMin=10 ErrMin= 1.13D-02
 ErrMax= 1.13D-02  0.00D+00 EMaxC= 1.00D-01 BMatC= 4.04D-01 BMatP= 8.01D+00
 IDIUse=3 WtCom= 8.87D-01 WtEn= 1.13D-01
 Coeff-Com: -0.630D-02 0.141D-01-0.392D-02 0.160D-02 0.826D-03-0.341D-02
 Coeff-Com:  0.769D-03 0.102D+00 0.111D+00 0.783D+00
 Coeff-En:   0.000D+00 0.000D+00 0.000D+00 0.000D+00 0.000D+00 0.000D+00
 Coeff-En:   0.000D+00 0.000D+00 0.000D+00 0.100D+01
 Coeff:     -0.559D-02 0.125D-01-0.348D-02 0.142D-02 0.733D-03-0.303D-02
 Coeff:      0.682D-03 0.905D-01 0.986D-01 0.808D+00
 Gap=     0.229 Goal=   None    Shift=    0.000
 Gap=     0.229 Goal=   None    Shift=    0.000
 RMSDP=1.29D-03 MaxDP=6.03D-02 DE=-2.82D+00 OVMax= 8.12D-02

 Cycle  11  Pass 1  IDiag  1:
 RMSU=  1.19D-03    CP:  3.51D-02  1.71D-01  1.57D-02  1.05D-01  8.00D-02
                    CP:  8.23D-01  2.12D-01  5.94D-01  3.97D-01  9.17D-01
 E= -881.706775400981     Delta-E=       -0.045251759511 Rises=F Damp=F
 DIIS: error= 8.02D-03 at cycle  11 NSaved=  11.
 NSaved=11 IEnMin=11 EnMin= -881.706775400981     IErMin=11 ErrMin= 8.02D-03
 ErrMax= 8.02D-03  0.00D+00 EMaxC= 1.00D-01 BMatC= 2.26D-01 BMatP= 4.04D-01
 IDIUse=3 WtCom= 9.20D-01 WtEn= 8.02D-02
 Coeff-Com: -0.895D-03 0.279D-02-0.811D-03 0.193D-03 0.996D-03-0.247D-01
 Coeff-Com:  0.404D-02 0.378D-01 0.139D-01 0.471D+00 0.496D+00
 Coeff-En:   0.000D+00 0.000D+00 0.000D+00 0.000D+00 0.000D+00 0.000D+00
 Coeff-En:   0.000D+00 0.000D+00 0.000D+00 0.310D+00 0.690D+00
 Coeff:     -0.823D-03 0.257D-02-0.746D-03 0.177D-03 0.917D-03-0.228D-01
 Coeff:      0.371D-02 0.348D-01 0.128D-01 0.458D+00 0.511D+00
 Gap=     0.148 Goal=   None    Shift=    0.000
 Gap=     0.148 Goal=   None    Shift=    0.000
 RMSDP=6.75D-04 MaxDP=4.16D-02 DE=-4.53D-02 OVMax= 5.75D-02

 Cycle  12  Pass 1  IDiag  1:
 RMSU=  4.69D-04    CP:  3.50D-02  1.71D-01  1.53D-02  1.05D-01  8.01D-02
                    CP:  8.23D-01  2.14D-01  6.00D-01  3.68D-01  9.51D-01
                    CP:  6.25D-01
 E= -881.751263864835     Delta-E=       -0.044488463855 Rises=F Damp=F
 DIIS: error= 3.69D-03 at cycle  12 NSaved=  12.
 NSaved=12 IEnMin=12 EnMin= -881.751263864835     IErMin=12 ErrMin= 3.69D-03
 ErrMax= 3.69D-03  0.00D+00 EMaxC= 1.00D-01 BMatC= 3.32D-02 BMatP= 2.26D-01
 IDIUse=3 WtCom= 9.63D-01 WtEn= 3.69D-02
 Coeff-Com:  0.272D-04-0.269D-03 0.231D-03-0.530D-03 0.177D-03-0.155D-01
 Coeff-Com:  0.356D-02 0.140D-01-0.283D-02 0.175D+00 0.290D+00 0.536D+00
 Coeff-En:   0.000D+00 0.000D+00 0.000D+00 0.000D+00 0.000D+00 0.000D+00
 Coeff-En:   0.000D+00 0.000D+00 0.000D+00 0.000D+00 0.427D-01 0.957D+00
 Coeff:      0.262D-04-0.259D-03 0.223D-03-0.510D-03 0.170D-03-0.149D-01
 Coeff:      0.343D-02 0.135D-01-0.273D-02 0.169D+00 0.281D+00 0.551D+00
 Gap=     0.157 Goal=   None    Shift=    0.000
 Gap=     0.157 Goal=   None    Shift=    0.000
 RMSDP=2.84D-04 MaxDP=1.98D-02 DE=-4.45D-02 OVMax= 2.29D-02

 Cycle  13  Pass 1  IDiag  1:
 RMSU=  1.79D-04    CP:  3.50D-02  1.72D-01  1.53D-02  1.05D-01  7.98D-02
                    CP:  8.22D-01  2.15D-01  6.02D-01  3.68D-01  9.46D-01
                    CP:  6.74D-01  5.52D-01
 E= -881.757171154181     Delta-E=       -0.005907289345 Rises=F Damp=F
 DIIS: error= 1.42D-03 at cycle  13 NSaved=  13.
 NSaved=13 IEnMin=13 EnMin= -881.757171154181     IErMin=13 ErrMin= 1.42D-03
 ErrMax= 1.42D-03  0.00D+00 EMaxC= 1.00D-01 BMatC= 7.22D-03 BMatP= 3.32D-02
 IDIUse=3 WtCom= 9.86D-01 WtEn= 1.42D-02
 Coeff-Com:  0.106D-03-0.423D-03 0.327D-03 0.174D-03-0.601D-03-0.742D-02
 Coeff-Com:  0.123D-02 0.407D-02 0.307D-02 0.470D-01 0.641D-01 0.306D+00
 Coeff-Com:  0.582D+00
 Coeff-En:   0.000D+00 0.000D+00 0.000D+00 0.000D+00 0.000D+00 0.000D+00
 Coeff-En:   0.000D+00 0.000D+00 0.000D+00 0.000D+00 0.000D+00 0.136D+00
 Coeff-En:   0.864D+00
 Coeff:      0.104D-03-0.417D-03 0.322D-03 0.171D-03-0.592D-03-0.732D-02
 Coeff:      0.121D-02 0.402D-02 0.302D-02 0.463D-01 0.632D-01 0.304D+00
 Coeff:      0.586D+00
 Gap=     0.159 Goal=   None    Shift=    0.000
 Gap=     0.159 Goal=   None    Shift=    0.000
 RMSDP=1.13D-04 MaxDP=9.17D-03 DE=-5.91D-03 OVMax= 9.37D-03

 Cycle  14  Pass 1  IDiag  1:
 RMSU=  6.77D-05    CP:  3.50D-02  1.72D-01  1.53D-02  1.05D-01  7.97D-02
                    CP:  8.23D-01  2.15D-01  6.01D-01  3.69D-01  9.45D-01
                    CP:  6.44D-01  6.38D-01  5.99D-01
 E= -881.758373430316     Delta-E=       -0.001202276135 Rises=F Damp=F
 DIIS: error= 6.58D-04 at cycle  14 NSaved=  14.
 NSaved=14 IEnMin=14 EnMin= -881.758373430316     IErMin=14 ErrMin= 6.58D-04
 ErrMax= 6.58D-04  0.00D+00 EMaxC= 1.00D-01 BMatC= 1.40D-03 BMatP= 7.22D-03
 IDIUse=3 WtCom= 9.93D-01 WtEn= 6.58D-03
 Coeff-Com:  0.419D-06-0.333D-04 0.323D-03 0.252D-03-0.322D-03-0.327D-02
 Coeff-Com:  0.387D-03 0.445D-03 0.444D-02-0.423D-02-0.219D-01 0.264D-01
 Coeff-Com:  0.303D+00 0.694D+00
 Coeff-En:   0.000D+00 0.000D+00 0.000D+00 0.000D+00 0.000D+00 0.000D+00
 Coeff-En:   0.000D+00 0.000D+00 0.000D+00 0.000D+00 0.000D+00 0.000D+00
 Coeff-En:   0.641D-01 0.936D+00
 Coeff:      0.416D-06-0.331D-04 0.321D-03 0.250D-03-0.320D-03-0.325D-02
 Coeff:      0.385D-03 0.442D-03 0.441D-02-0.420D-02-0.218D-01 0.262D-01
 Coeff:      0.302D+00 0.696D+00
 Gap=     0.162 Goal=   None    Shift=    0.000
 Gap=     0.162 Goal=   None    Shift=    0.000
 RMSDP=5.25D-05 MaxDP=3.61D-03 DE=-1.20D-03 OVMax= 4.94D-03

 Cycle  15  Pass 1  IDiag  1:
 RMSU=  4.43D-05    CP:  3.50D-02  1.71D-01  1.53D-02  1.05D-01  7.96D-02
                    CP:  8.22D-01  2.15D-01  6.02D-01  3.68D-01  9.42D-01
                    CP:  6.46D-01  6.40D-01  7.27D-01  9.15D-01
 E= -881.758628104963     Delta-E=       -0.000254674647 Rises=F Damp=F
 DIIS: error= 3.16D-04 at cycle  15 NSaved=  15.
 NSaved=15 IEnMin=15 EnMin= -881.758628104963     IErMin=15 ErrMin= 3.16D-04
 ErrMax= 3.16D-04  0.00D+00 EMaxC= 1.00D-01 BMatC= 3.60D-04 BMatP= 1.40D-03
 IDIUse=3 WtCom= 9.97D-01 WtEn= 3.16D-03
 Coeff-Com:  0.164D-04-0.394D-04 0.121D-03 0.156D-04-0.391D-05-0.132D-02
 Coeff-Com:  0.198D-03-0.566D-03 0.344D-02-0.102D-01-0.250D-01-0.699D-01
 Coeff-Com:  0.454D-01 0.390D+00 0.668D+00
 Coeff-En:   0.000D+00 0.000D+00 0.000D+00 0.000D+00 0.000D+00 0.000D+00
 Coeff-En:   0.000D+00 0.000D+00 0.000D+00 0.000D+00 0.000D+00 0.000D+00
 Coeff-En:   0.000D+00 0.000D+00 0.100D+01
 Coeff:      0.164D-04-0.393D-04 0.121D-03 0.156D-04-0.390D-05-0.131D-02
 Coeff:      0.197D-03-0.564D-03 0.343D-02-0.101D-01-0.249D-01-0.696D-01
 Coeff:      0.452D-01 0.389D+00 0.669D+00
 Gap=     0.164 Goal=   None    Shift=    0.000
 Gap=     0.164 Goal=   None    Shift=    0.000
 RMSDP=2.77D-05 MaxDP=1.71D-03 DE=-2.55D-04 OVMax= 2.27D-03

 Cycle  16  Pass 1  IDiag  1:
 RMSU=  2.01D-05    CP:  3.50D-02  1.72D-01  1.53D-02  1.05D-01  7.96D-02
                    CP:  8.22D-01  2.15D-01  6.02D-01  3.69D-01  9.41D-01
                    CP:  6.43D-01  6.25D-01  7.70D-01  1.05D+00  7.67D-01
 E= -881.758688489515     Delta-E=       -0.000060384552 Rises=F Damp=F
 DIIS: error= 1.61D-04 at cycle  16 NSaved=  16.
 NSaved=16 IEnMin=16 EnMin= -881.758688489515     IErMin=16 ErrMin= 1.61D-04
 ErrMax= 1.61D-04  0.00D+00 EMaxC= 1.00D-01 BMatC= 8.83D-05 BMatP= 3.60D-04
 IDIUse=3 WtCom= 9.98D-01 WtEn= 1.61D-03
 Coeff-Com: -0.827D-05 0.149D-04 0.301D-04-0.718D-05 0.124D-04-0.816D-03
 Coeff-Com:  0.548D-04-0.317D-03 0.209D-02-0.827D-03-0.271D-02-0.333D-01
 Coeff-Com: -0.219D-01 0.107D+00 0.368D+00 0.582D+00
 Coeff-En:   0.000D+00 0.000D+00 0.000D+00 0.000D+00 0.000D+00 0.000D+00
 Coeff-En:   0.000D+00 0.000D+00 0.000D+00 0.000D+00 0.000D+00 0.000D+00
 Coeff-En:   0.000D+00 0.000D+00 0.512D-01 0.949D+00
 Coeff:     -0.825D-05 0.148D-04 0.300D-04-0.717D-05 0.124D-04-0.814D-03
 Coeff:      0.547D-04-0.316D-03 0.209D-02-0.826D-03-0.271D-02-0.333D-01
 Coeff:     -0.218D-01 0.107D+00 0.368D+00 0.583D+00
 Gap=     0.164 Goal=   None    Shift=    0.000
 Gap=     0.164 Goal=   None    Shift=    0.000
 RMSDP=1.22D-05 MaxDP=6.32D-04 DE=-6.04D-05 OVMax= 9.53D-04

 Cycle  17  Pass 1  IDiag  1:
 RMSU=  7.47D-06    CP:  3.50D-02  1.72D-01  1.53D-02  1.05D-01  7.96D-02
                    CP:  8.22D-01  2.15D-01  6.02D-01  3.70D-01  9.41D-01
                    CP:  6.42D-01  6.19D-01  7.53D-01  1.05D+00  8.46D-01
                    CP:  6.71D-01
 E= -881.758707767107     Delta-E=       -0.000019277592 Rises=F Damp=F
 DIIS: error= 4.82D-05 at cycle  17 NSaved=  17.
 NSaved=17 IEnMin=17 EnMin= -881.758707767107     IErMin=17 ErrMin= 4.82D-05
 ErrMax= 4.82D-05  0.00D+00 EMaxC= 1.00D-01 BMatC= 1.53D-05 BMatP= 8.83D-05
 IDIUse=1 WtCom= 1.00D+00 WtEn= 0.00D+00
 Coeff-Com:  0.843D-05-0.202D-04-0.349D-05 0.158D-05-0.239D-05-0.960D-04
 Coeff-Com:  0.691D-05-0.251D-03 0.426D-03 0.167D-02 0.688D-02 0.380D-02
 Coeff-Com: -0.286D-01-0.531D-01 0.209D-02 0.309D+00 0.758D+00
 Coeff:      0.843D-05-0.202D-04-0.349D-05 0.158D-05-0.239D-05-0.960D-04
 Coeff:      0.691D-05-0.251D-03 0.426D-03 0.167D-02 0.688D-02 0.380D-02
 Coeff:     -0.286D-01-0.531D-01 0.209D-02 0.309D+00 0.758D+00
 Gap=     0.165 Goal=   None    Shift=    0.000
 Gap=     0.165 Goal=   None    Shift=    0.000
 RMSDP=5.87D-06 MaxDP=2.38D-04 DE=-1.93D-05 OVMax= 2.91D-04

 Cycle  18  Pass 1  IDiag  1:
 RMSU=  3.48D-06    CP:  3.50D-02  1.71D-01  1.53D-02  1.05D-01  7.96D-02
                    CP:  8.22D-01  2.15D-01  6.01D-01  3.70D-01  9.40D-01
                    CP:  6.43D-01  6.21D-01  7.48D-01  1.06D+00  8.78D-01
                    CP:  8.41D-01  8.99D-01
 E= -881.758711256190     Delta-E=       -0.000003489083 Rises=F Damp=F
 DIIS: error= 1.92D-05 at cycle  18 NSaved=  18.
 NSaved=18 IEnMin=18 EnMin= -881.758711256190     IErMin=18 ErrMin= 1.92D-05
 ErrMax= 1.92D-05  0.00D+00 EMaxC= 1.00D-01 BMatC= 1.41D-06 BMatP= 1.53D-05
 IDIUse=1 WtCom= 1.00D+00 WtEn= 0.00D+00
 Coeff-Com: -0.332D-05 0.411D-05-0.674D-06 0.246D-05-0.245D-05-0.114D-04
 Coeff-Com:  0.606D-06-0.603D-04 0.907D-04 0.118D-02 0.427D-02 0.509D-02
 Coeff-Com: -0.122D-01-0.335D-01-0.285D-01 0.790D-01 0.350D+00 0.634D+00
 Coeff:     -0.332D-05 0.411D-05-0.674D-06 0.246D-05-0.245D-05-0.114D-04
 Coeff:      0.606D-06-0.603D-04 0.907D-04 0.118D-02 0.427D-02 0.509D-02
 Coeff:     -0.122D-01-0.335D-01-0.285D-01 0.790D-01 0.350D+00 0.634D+00
 Gap=     0.165 Goal=   None    Shift=    0.000
 Gap=     0.165 Goal=   None    Shift=    0.000
 RMSDP=1.97D-06 MaxDP=8.41D-05 DE=-3.49D-06 OVMax= 2.31D-04

 Cycle  19  Pass 1  IDiag  1:
 RMSU=  1.49D-06    CP:  3.50D-02  1.72D-01  1.53D-02  1.05D-01  7.96D-02
                    CP:  8.22D-01  2.15D-01  6.01D-01  3.70D-01  9.40D-01
                    CP:  6.43D-01  6.20D-01  7.45D-01  1.06D+00  8.79D-01
                    CP:  8.45D-01  9.70D-01  9.05D-01
 E= -881.758711597323     Delta-E=       -0.000000341133 Rises=F Damp=F
 DIIS: error= 5.79D-06 at cycle  19 NSaved=  19.
 NSaved=19 IEnMin=19 EnMin= -881.758711597323     IErMin=19 ErrMin= 5.79D-06
 ErrMax= 5.79D-06  0.00D+00 EMaxC= 1.00D-01 BMatC= 1.76D-07 BMatP= 1.41D-06
 IDIUse=1 WtCom= 1.00D+00 WtEn= 0.00D+00
 Coeff-Com: -0.335D-06 0.392D-06 0.650D-06-0.115D-06-0.534D-06 0.390D-05
 Coeff-Com:  0.410D-06-0.837D-05-0.467D-05 0.176D-03 0.940D-03 0.149D-02
 Coeff-Com: -0.188D-02-0.804D-02-0.130D-01-0.729D-02 0.607D-01 0.320D+00
 Coeff-Com:  0.647D+00
 Coeff:     -0.335D-06 0.392D-06 0.650D-06-0.115D-06-0.534D-06 0.390D-05
 Coeff:      0.410D-06-0.837D-05-0.467D-05 0.176D-03 0.940D-03 0.149D-02
 Coeff:     -0.188D-02-0.804D-02-0.130D-01-0.729D-02 0.607D-01 0.320D+00
 Coeff:      0.647D+00
 Gap=     0.165 Goal=   None    Shift=    0.000
 Gap=     0.165 Goal=   None    Shift=    0.000
 RMSDP=6.11D-07 MaxDP=3.31D-05 DE=-3.41D-07 OVMax= 6.57D-05

 Cycle  20  Pass 1  IDiag  1:
 RMSU=  4.34D-07    CP:  3.50D-02  1.72D-01  1.53D-02  1.05D-01  7.96D-02
                    CP:  8.22D-01  2.15D-01  6.01D-01  3.70D-01  9.40D-01
                    CP:  6.43D-01  6.20D-01  7.45D-01  1.06D+00  8.81D-01
                    CP:  8.46D-01  9.86D-01  9.67D-01  7.87D-01
 E= -881.758711635371     Delta-E=       -0.000000038048 Rises=F Damp=F
 DIIS: error= 2.80D-06 at cycle  20 NSaved=  20.
 NSaved=20 IEnMin=20 EnMin= -881.758711635371     IErMin=20 ErrMin= 2.80D-06
 ErrMax= 2.80D-06  0.00D+00 EMaxC= 1.00D-01 BMatC= 2.10D-08 BMatP= 1.76D-07
 IDIUse=1 WtCom= 1.00D+00 WtEn= 0.00D+00
 Coeff-Com:  0.498D-06-0.866D-06 0.508D-06-0.203D-06-0.546D-07 0.652D-06
 Coeff-Com:  0.334D-06-0.208D-05-0.446D-05 0.133D-04 0.225D-03 0.313D-03
 Coeff-Com: -0.406D-03-0.187D-02-0.404D-02-0.774D-02 0.112D-01 0.135D+00
 Coeff-Com:  0.355D+00 0.513D+00
 Coeff:      0.498D-06-0.866D-06 0.508D-06-0.203D-06-0.546D-07 0.652D-06
 Coeff:      0.334D-06-0.208D-05-0.446D-05 0.133D-04 0.225D-03 0.313D-03
 Coeff:     -0.406D-03-0.187D-02-0.404D-02-0.774D-02 0.112D-01 0.135D+00
 Coeff:      0.355D+00 0.513D+00
 Gap=     0.165 Goal=   None    Shift=    0.000
 Gap=     0.165 Goal=   None    Shift=    0.000
 RMSDP=2.32D-07 MaxDP=1.04D-05 DE=-3.80D-08 OVMax= 2.56D-05

 Cycle  21  Pass 1  IDiag  1:
 Restarting incremental Fock formation.
 E= -881.758711640741     Delta-E=       -0.000000005369 Rises=F Damp=F
 DIIS: error= 5.91D-07 at cycle  21 NSaved=  20.
 NSaved=20 IEnMin=20 EnMin= -881.758711640741     IErMin=20 ErrMin= 5.91D-07
 ErrMax= 5.91D-07  0.00D+00 EMaxC= 1.00D-01 BMatC= 1.29D-09 BMatP= 2.10D-08
 IDIUse=1 WtCom= 1.00D+00 WtEn= 0.00D+00
 Coeff-Com: -0.129D-07-0.277D-07-0.795D-07-0.372D-07-0.487D-06 0.203D-06
 Coeff-Com:  0.701D-07-0.866D-06 0.294D-05 0.179D-04-0.438D-04-0.500D-04
 Coeff-Com:  0.242D-04-0.221D-03-0.239D-02-0.107D-02 0.274D-01 0.876D-01
 Coeff-Com:  0.233D+00 0.656D+00
 Coeff:     -0.129D-07-0.277D-07-0.795D-07-0.372D-07-0.487D-06 0.203D-06
 Coeff:      0.701D-07-0.866D-06 0.294D-05 0.179D-04-0.438D-04-0.500D-04
 Coeff:      0.242D-04-0.221D-03-0.239D-02-0.107D-02 0.274D-01 0.876D-01
 Coeff:      0.233D+00 0.656D+00
 Gap=     0.165 Goal=   None    Shift=    0.000
 Gap=     0.165 Goal=   None    Shift=    0.000
 RMSDP=5.96D-08 MaxDP=2.47D-06 DE=-5.37D-09 OVMax= 7.16D-06

 Cycle  22  Pass 1  IDiag  1:
 RMSU=  5.96D-08    CP:  1.00D+00
 E= -881.758711641054     Delta-E=       -0.000000000313 Rises=F Damp=F
 DIIS: error= 2.46D-07 at cycle  22 NSaved=  20.
 NSaved=20 IEnMin=20 EnMin= -881.758711641054     IErMin=20 ErrMin= 2.46D-07
 ErrMax= 2.46D-07  0.00D+00 EMaxC= 1.00D-01 BMatC= 1.83D-10 BMatP= 1.29D-09
 IDIUse=1 WtCom= 1.00D+00 WtEn= 0.00D+00
 Coeff-Com: -0.196D-07-0.151D-07 0.975D-08 0.124D-06 0.183D-07 0.185D-06
 Coeff-Com: -0.484D-06-0.477D-05-0.143D-04-0.626D-04-0.151D-04 0.115D-03
 Coeff-Com:  0.242D-03-0.698D-03-0.151D-02 0.438D-02 0.182D-01 0.813D-01
 Coeff-Com:  0.342D+00 0.556D+00
 Coeff:     -0.196D-07-0.151D-07 0.975D-08 0.124D-06 0.183D-07 0.185D-06
 Coeff:     -0.484D-06-0.477D-05-0.143D-04-0.626D-04-0.151D-04 0.115D-03
 Coeff:      0.242D-03-0.698D-03-0.151D-02 0.438D-02 0.182D-01 0.813D-01
 Coeff:      0.342D+00 0.556D+00
 Gap=     0.165 Goal=   None    Shift=    0.000
 Gap=     0.165 Goal=   None    Shift=    0.000
 RMSDP=1.97D-08 MaxDP=1.09D-06 DE=-3.13D-10 OVMax= 2.14D-06

 Cycle  23  Pass 1  IDiag  1:
 RMSU=  1.84D-08    CP:  1.00D+00  8.80D-01
 E= -881.758711641108     Delta-E=       -0.000000000054 Rises=F Damp=F
 DIIS: error= 1.16D-07 at cycle  23 NSaved=  20.
 NSaved=20 IEnMin=20 EnMin= -881.758711641108     IErMin=20 ErrMin= 1.16D-07
 ErrMax= 1.16D-07  0.00D+00 EMaxC= 1.00D-01 BMatC= 1.50D-11 BMatP= 1.83D-10
 IDIUse=1 WtCom= 1.00D+00 WtEn= 0.00D+00
 Coeff-Com: -0.835D-08 0.860D-09 0.359D-07-0.658D-09 0.735D-07-0.368D-08
 Coeff-Com: -0.210D-05-0.553D-05-0.151D-04 0.370D-06 0.178D-04 0.143D-03
 Coeff-Com:  0.139D-03-0.145D-03-0.121D-02-0.510D-02-0.189D-02 0.467D-01
 Coeff-Com:  0.209D+00 0.752D+00
 Coeff:     -0.835D-08 0.860D-09 0.359D-07-0.658D-09 0.735D-07-0.368D-08
 Coeff:     -0.210D-05-0.553D-05-0.151D-04 0.370D-06 0.178D-04 0.143D-03
 Coeff:      0.139D-03-0.145D-03-0.121D-02-0.510D-02-0.189D-02 0.467D-01
 Coeff:      0.209D+00 0.752D+00
 Gap=     0.165 Goal=   None    Shift=    0.000
 Gap=     0.165 Goal=   None    Shift=    0.000
 RMSDP=7.94D-09 MaxDP=6.10D-07 DE=-5.39D-11 OVMax= 1.38D-06

 Error on total polarization charges =  0.00980
 SCF Done:  E(UB3LYP) =  -881.758711641     A.U. after   23 cycles
            NFock= 23  Conv=0.79D-08     -V/T= 2.0096
 <Sx>= 0.0000 <Sy>= 0.0000 <Sz>= 0.0000 <S**2>= 0.0000 S= 0.0000
 <L.S>=  0.00000000000    
 KE= 8.733729548095D+02 PE=-5.190425721690D+03 EE= 1.864790001723D+03
 Annihilation of the first spin contaminant:
 S**2 before annihilation     0.0000,   after    -0.0000
 Leave Link  502 at Thu May  9 23:57:07 2019, MaxMem=   104857600 cpu:            2265.4 elap:              71.9
 (Enter /opt/software/gaussian/g16.b01/l801.exe)
 DoSCS=F DFT=T ScalE2(SS,OS)=  1.000000  1.000000
 ExpMin= 1.61D-01 ExpMax= 5.48D+03 ExpMxC= 8.25D+02 IAcc=3 IRadAn=         5 AccDes= 0.00D+00
 HarFok:  IExCor=  205 AccDes= 0.00D+00 IRadAn=         5 IDoV=-2 UseB2=F ITyADJ=14
 ICtDFT= 12500011 ScaDFX=  1.000000  1.000000  1.000000  1.000000
 Largest valence mixing into a core orbital is  5.78D-05
 Largest core mixing into a valence orbital is  1.44D-05
 Largest valence mixing into a core orbital is  5.78D-05
 Largest core mixing into a valence orbital is  1.44D-05
 Range of M.O.s used for correlation:    21   400
 NBasis=   400 NAE=    73 NBE=    73 NFC=    20 NFV=     0
 NROrb=    380 NOA=    53 NOB=    53 NVA=   327 NVB=   327
 Leave Link  801 at Thu May  9 23:57:08 2019, MaxMem=   104857600 cpu:               4.6 elap:               0.2
 (Enter /opt/software/gaussian/g16.b01/l914.exe)
 UHF ground state
 Ignoring spin specification with unrestricted ground state.
 Two-electron integrals replicated using symmetry.
 MDV=   104857600 DFT=T DoStab=F Mixed=T DoRPA=T DoScal=F NonHer=T
 NEqPCM:  Using non-equilibrium solvation (IEInf=1, Eps=  35.6880, EpsInf=   1.8069)
 Inv3:  Mode=1 IEnd=    22342323.
 Iteration    1 A*A^-1 deviation from unit magnitude is 3.44D-15 for    618.
 Iteration    1 A*A^-1 deviation from orthogonality  is 1.80D-15 for   2191    828.
 Iteration    1 A^-1*A deviation from unit magnitude is 3.22D-15 for    618.
 Iteration    1 A^-1*A deviation from orthogonality  is 2.89D-14 for   1749   1725.
 Making orbital integer symmetry assigments:
 Orbital symmetries:
 Alpha Orbitals:
       Occupied  (A) (A) (A) (A) (A) (A) (A) (A) (A) (A) (A) (A)
                 (A) (A) (A) (A) (A) (A) (A) (A) (A) (A) (A) (A)
                 (A) (A) (A) (A) (A) (A) (A) (A) (A) (A) (A) (A)
                 (A) (A) (A) (A) (A) (A) (A) (A) (A) (A) (A) (A)
                 (A) (A) (A) (A) (A) (A) (A) (A) (A) (A) (A) (A)
                 (A) (A) (A) (A) (A) (A) (A) (A) (A) (A) (A) (A)
                 (A)
       Virtual   (A) (A) (A) (A) (A) (A) (A) (A) (A) (A) (A) (A)
                 (A) (A) (A) (A) (A) (A) (A) (A) (A) (A) (A) (A)
                 (A) (A) (A) (A) (A) (A) (A) (A) (A) (A) (A) (A)
                 (A) (A) (A) (A) (A) (A) (A) (A) (A) (A) (A) (A)
                 (A) (A) (A) (A) (A) (A) (A) (A) (A) (A) (A) (A)
                 (A) (A) (A) (A) (A) (A) (A) (A) (A) (A) (A) (A)
                 (A) (A) (A) (A) (A) (A) (A) (A) (A) (A) (A) (A)
                 (A) (A) (A) (A) (A) (A) (A) (A) (A) (A) (A) (A)
                 (A) (A) (A) (A) (A) (A) (A) (A) (A) (A) (A) (A)
                 (A) (A) (A) (A) (A) (A) (A) (A) (A) (A) (A) (A)
                 (A) (A) (A) (A) (A) (A) (A) (A) (A) (A) (A) (A)
                 (A) (A) (A) (A) (A) (A) (A) (A) (A) (A) (A) (A)
                 (A) (A) (A) (A) (A) (A) (A) (A) (A) (A) (A) (A)
                 (A) (A) (A) (A) (A) (A) (A) (A) (A) (A) (A) (A)
                 (A) (A) (A) (A) (A) (A) (A) (A) (A) (A) (A) (A)
                 (A) (A) (A) (A) (A) (A) (A) (A) (A) (A) (A) (A)
                 (A) (A) (A) (A) (A) (A) (A) (A) (A) (A) (A) (A)
                 (A) (A) (A) (A) (A) (A) (A) (A) (A) (A) (A) (A)
                 (A) (A) (A) (A) (A) (A) (A) (A) (A) (A) (A) (A)
                 (A) (A) (A) (A) (A) (A) (A) (A) (A) (A) (A) (A)
                 (A) (A) (A) (A) (A) (A) (A) (A) (A) (A) (A) (A)
                 (A) (A) (A) (A) (A) (A) (A) (A) (A) (A) (A) (A)
                 (A) (A) (A) (A) (A) (A) (A) (A) (A) (A) (A) (A)
                 (A) (A) (A) (A) (A) (A) (A) (A) (A) (A) (A) (A)
                 (A) (A) (A) (A) (A) (A) (A) (A) (A) (A) (A) (A)
                 (A) (A) (A) (A) (A) (A) (A) (A) (A) (A) (A) (A)
                 (A) (A) (A) (A) (A) (A) (A) (A) (A) (A) (A) (A)
                 (A) (A) (A)
 Beta  Orbitals:
       Occupied  (A) (A) (A) (A) (A) (A) (A) (A) (A) (A) (A) (A)
                 (A) (A) (A) (A) (A) (A) (A) (A) (A) (A) (A) (A)
                 (A) (A) (A) (A) (A) (A) (A) (A) (A) (A) (A) (A)
                 (A) (A) (A) (A) (A) (A) (A) (A) (A) (A) (A) (A)
                 (A) (A) (A) (A) (A) (A) (A) (A) (A) (A) (A) (A)
                 (A) (A) (A) (A) (A) (A) (A) (A) (A) (A) (A) (A)
                 (A)
       Virtual   (A) (A) (A) (A) (A) (A) (A) (A) (A) (A) (A) (A)
                 (A) (A) (A) (A) (A) (A) (A) (A) (A) (A) (A) (A)
                 (A) (A) (A) (A) (A) (A) (A) (A) (A) (A) (A) (A)
                 (A) (A) (A) (A) (A) (A) (A) (A) (A) (A) (A) (A)
                 (A) (A) (A) (A) (A) (A) (A) (A) (A) (A) (A) (A)
                 (A) (A) (A) (A) (A) (A) (A) (A) (A) (A) (A) (A)
                 (A) (A) (A) (A) (A) (A) (A) (A) (A) (A) (A) (A)
                 (A) (A) (A) (A) (A) (A) (A) (A) (A) (A) (A) (A)
                 (A) (A) (A) (A) (A) (A) (A) (A) (A) (A) (A) (A)
                 (A) (A) (A) (A) (A) (A) (A) (A) (A) (A) (A) (A)
                 (A) (A) (A) (A) (A) (A) (A) (A) (A) (A) (A) (A)
                 (A) (A) (A) (A) (A) (A) (A) (A) (A) (A) (A) (A)
                 (A) (A) (A) (A) (A) (A) (A) (A) (A) (A) (A) (A)
                 (A) (A) (A) (A) (A) (A) (A) (A) (A) (A) (A) (A)
                 (A) (A) (A) (A) (A) (A) (A) (A) (A) (A) (A) (A)
                 (A) (A) (A) (A) (A) (A) (A) (A) (A) (A) (A) (A)
                 (A) (A) (A) (A) (A) (A) (A) (A) (A) (A) (A) (A)
                 (A) (A) (A) (A) (A) (A) (A) (A) (A) (A) (A) (A)
                 (A) (A) (A) (A) (A) (A) (A) (A) (A) (A) (A) (A)
                 (A) (A) (A) (A) (A) (A) (A) (A) (A) (A) (A) (A)
                 (A) (A) (A) (A) (A) (A) (A) (A) (A) (A) (A) (A)
                 (A) (A) (A) (A) (A) (A) (A) (A) (A) (A) (A) (A)
                 (A) (A) (A) (A) (A) (A) (A) (A) (A) (A) (A) (A)
                 (A) (A) (A) (A) (A) (A) (A) (A) (A) (A) (A) (A)
                 (A) (A) (A) (A) (A) (A) (A) (A) (A) (A) (A) (A)
                 (A) (A) (A) (A) (A) (A) (A) (A) (A) (A) (A) (A)
                 (A) (A) (A) (A) (A) (A) (A) (A) (A) (A) (A) (A)
                 (A) (A) (A)
    48 initial guesses have been made.
 Convergence on wavefunction:    0.001000000000000
 Davidson Disk Diagonalization:  ConvIn= 1.00D-03 SkipCon=T Conv= 1.00D-03.
 Max sub-space:  2000 roots to seek:    48 dimension of matrix:        34662
 Iteration     1 Dimension    48 NMult     0 NNew     48
 CISAX will form     3 AO SS matrices at one time.
 NMat=     3 NSing=     3 JSym2X= 0.
 FoFJK:  IHMeth= 1 ICntrl=       0 DoSepK=F KAlg= 0 I1Cent=           0 FoldK=F
 IRaf= 800000000 NMat=       6 IRICut=       1 DoRegI=T DoRafI=F ISym2E= 0 IDoP0=0 IntGTp=1.
 NMat=     3 NSing=     3 JSym2X= 0.
 NMat=     3 NSing=     3 JSym2X= 0.
 NMat=     3 NSing=     3 JSym2X= 0.
 NMat=     3 NSing=     3 JSym2X= 0.
 NMat=     3 NSing=     3 JSym2X= 0.
 NMat=     3 NSing=     3 JSym2X= 0.
 NMat=     3 NSing=     3 JSym2X= 0.
 NMat=     3 NSing=     3 JSym2X= 0.
 NMat=     3 NSing=     3 JSym2X= 0.
 NMat=     3 NSing=     3 JSym2X= 0.
 NMat=     3 NSing=     3 JSym2X= 0.
 NMat=     3 NSing=     3 JSym2X= 0.
 NMat=     3 NSing=     3 JSym2X= 0.
 NMat=     3 NSing=     3 JSym2X= 0.
 NMat=     3 NSing=     3 JSym2X= 0.
 New state      2 was old state     15
 New state      3 was old state     12
 New state      4 was old state     17
 New state      5 was old state      2
 New state      6 was old state      9
 New state      7 was old state      4
 New state      8 was old state     13
 New state      9 was old state     21
 New state     10 was old state      3
 New state     11 was old state     24
 New state     12 was old state      6
 Excitation Energies [eV] at current iteration:
 Root      1 :     3.543807950488610
 Root      2 :     3.592338307034921
 Root      3 :     3.710199553866864
 Root      4 :     3.750406921865022
 Root      5 :     3.777493372217949
 Root      6 :     3.916788018274109
 Root      7 :     3.922629693678282
 Root      8 :     4.021154234992421
 Root      9 :     4.043272653552784
 Root     10 :     4.154306967600185
 Root     11 :     4.182759533321816
 Root     12 :     4.197947217643521
 Root     13 :     4.239876077737327
 Root     14 :     4.270340705262010
 Root     15 :     4.443310598597762
 Root     16 :     4.449195906473256
 Root     17 :     4.500220602569694
 Root     18 :     4.630002653471627
 Root     19 :     4.638696272655771
 Root     20 :     4.729796865490274
 Root     21 :     4.737329373570444
 Root     22 :     4.759989512623200
 Root     23 :     4.767296020813583
 Root     24 :     4.786079652225382
 Root     25 :     4.800592632342210
 Root     26 :     4.815891812234748
 Root     27 :     4.836050370377184
 Root     28 :     4.881752883453641
 Root     29 :     5.062910929490066
 Root     30 :     5.121501384848748
 Root     31 :     5.214743469025207
 Root     32 :     5.359580237105165
 Root     33 :     5.463657300642786
 Root     34 :     5.480638491408712
 Root     35 :     5.524032798002208
 Root     36 :     5.665538381555455
 Root     37 :     5.666407902418966
 Root     38 :     5.726240782821526
 Root     39 :     5.818149318365561
 Root     40 :     5.827623624764695
 Root     41 :     5.917465827265270
 Root     42 :     6.003275636706372
 Root     43 :     6.016499304168796
 Root     44 :     6.016915284229230
 Root     45 :     6.103736013356829
 Root     46 :     6.619243900602238
 Root     47 :     6.841328353644287
 Root     48 :     7.246447544990571
 Iteration     2 Dimension    72 NMult    48 NNew     24
 CISAX will form     3 AO SS matrices at one time.
 NMat=     3 NSing=     3 JSym2X= 0.
 NMat=     3 NSing=     3 JSym2X= 0.
 NMat=     3 NSing=     3 JSym2X= 0.
 NMat=     3 NSing=     3 JSym2X= 0.
 NMat=     3 NSing=     3 JSym2X= 0.
 NMat=     3 NSing=     3 JSym2X= 0.
 NMat=     3 NSing=     3 JSym2X= 0.
 NMat=     3 NSing=     3 JSym2X= 0.
 New state      1 was old state      3
 Root      1 not converged, maximum delta is    0.243101946194311
 New state      2 was old state      4
 Root      2 not converged, maximum delta is    0.303891213581617
 New state      3 was old state      1
 Root      3 not converged, maximum delta is    0.259077555712412
 New state      4 was old state      2
 Root      4 not converged, maximum delta is    0.348441978959779
 Root      5 not converged, maximum delta is    0.047155020959423
 Root      6 not converged, maximum delta is    0.068656560888276
 Root      7 not converged, maximum delta is    0.069370528792078
 Root      8 not converged, maximum delta is    0.111930816962157
 Root      9 not converged, maximum delta is    0.108526048951959
 New state     10 was old state     11
 Root     10 not converged, maximum delta is    0.226461257444130
 New state     11 was old state     10
 Root     11 not converged, maximum delta is    0.038011613279254
 Root     12 not converged, maximum delta is    0.237994417722907
 Excitation Energies [eV] at current iteration:
 Root      1 :     3.330029737025938   Change is   -0.380169816840926
 Root      2 :     3.343333867797137   Change is   -0.407073054067886
 Root      3 :     3.359455067999176   Change is   -0.184352882489434
 Root      4 :     3.396790447639552   Change is   -0.195547859395369
 Root      5 :     3.719884401859823   Change is   -0.057608970358125
 Root      6 :     3.802017450566404   Change is   -0.114770567707706
 Root      7 :     3.828768685378377   Change is   -0.093861008299904
 Root      8 :     3.896071154887474   Change is   -0.125083080104947
 Root      9 :     3.986944563416457   Change is   -0.056328090136328
 Root     10 :     4.117027364577560   Change is   -0.065732168744256
 Root     11 :     4.131653527209230   Change is   -0.022653440390956
 Root     12 :     4.170939247807172   Change is   -0.027007969836349
 Iteration     3 Dimension    96 NMult    72 NNew     24
 CISAX will form     3 AO SS matrices at one time.
 NMat=     3 NSing=     3 JSym2X= 0.
 NMat=     3 NSing=     3 JSym2X= 0.
 NMat=     3 NSing=     3 JSym2X= 0.
 NMat=     3 NSing=     3 JSym2X= 0.
 NMat=     3 NSing=     3 JSym2X= 0.
 NMat=     3 NSing=     3 JSym2X= 0.
 NMat=     3 NSing=     3 JSym2X= 0.
 NMat=     3 NSing=     3 JSym2X= 0.
 Root      1 not converged, maximum delta is    0.129045591722263
 Root      2 not converged, maximum delta is    0.096700284369625
 Root      3 not converged, maximum delta is    0.149284764768804
 Root      4 not converged, maximum delta is    0.128133988446576
 Root      5 not converged, maximum delta is    0.002605769642967
 Root      6 not converged, maximum delta is    0.015806550591181
 Root      7 not converged, maximum delta is    0.004242200623954
 Root      8 not converged, maximum delta is    0.018556525413479
 Root      9 not converged, maximum delta is    0.012368820421500
 Root     10 not converged, maximum delta is    0.007082095060018
 Root     11 not converged, maximum delta is    0.012785943446902
 Root     12 not converged, maximum delta is    0.015036899892549
 Excitation Energies [eV] at current iteration:
 Root      1 :     3.290721600006149   Change is   -0.039308137019788
 Root      2 :     3.303708760176135   Change is   -0.039625107621001
 Root      3 :     3.350031153012320   Change is   -0.009423914986856
 Root      4 :     3.383189015910614   Change is   -0.013601431728937
 Root      5 :     3.717906589050490   Change is   -0.001977812809333
 Root      6 :     3.797268031788679   Change is   -0.004749418777725
 Root      7 :     3.825157651935374   Change is   -0.003611033443003
 Root      8 :     3.889281197018153   Change is   -0.006789957869320
 Root      9 :     3.983325136176015   Change is   -0.003619427240442
 Root     10 :     4.113030974459955   Change is   -0.003996390117605
 Root     11 :     4.129359547588032   Change is   -0.002293979621198
 Root     12 :     4.169671337168128   Change is   -0.001267910639044
 Iteration     4 Dimension   120 NMult    96 NNew     24
 CISAX will form     3 AO SS matrices at one time.
 NMat=     3 NSing=     3 JSym2X= 0.
 NMat=     3 NSing=     3 JSym2X= 0.
 NMat=     3 NSing=     3 JSym2X= 0.
 NMat=     3 NSing=     3 JSym2X= 0.
 NMat=     3 NSing=     3 JSym2X= 0.
 NMat=     3 NSing=     3 JSym2X= 0.
 NMat=     3 NSing=     3 JSym2X= 0.
 NMat=     3 NSing=     3 JSym2X= 0.
 Root      1 not converged, maximum delta is    0.005701354522944
 Root      2 not converged, maximum delta is    0.007273336505669
 Root      3 not converged, maximum delta is    0.003580001733260
 Root      4 not converged, maximum delta is    0.004289999577971
 Root      5 not converged, maximum delta is    0.001081549138226
 Root      6 not converged, maximum delta is    0.002450682028247
 Root      7 not converged, maximum delta is    0.001166121959502
 Root      8 not converged, maximum delta is    0.002023891386393
 Root      9 not converged, maximum delta is    0.003971409070921
 Root     10 not converged, maximum delta is    0.002594436495371
 Root     11 not converged, maximum delta is    0.005427096163813
 Root     12 has converged.
 Excitation Energies [eV] at current iteration:
 Root      1 :     3.288739390905196   Change is   -0.001982209100953
 Root      2 :     3.301611541744164   Change is   -0.002097218431971
 Root      3 :     3.349820951054105   Change is   -0.000210201958215
 Root      4 :     3.382802873536954   Change is   -0.000386142373661
 Root      5 :     3.717594191068278   Change is   -0.000312397982212
 Root      6 :     3.796965613046966   Change is   -0.000302418741713
 Root      7 :     3.824747535889441   Change is   -0.000410116045934
 Root      8 :     3.888891159170153   Change is   -0.000390037848000
 Root      9 :     3.982919242654245   Change is   -0.000405893521770
 Root     10 :     4.112360309436911   Change is   -0.000670665023044
 Root     11 :     4.129000839826207   Change is   -0.000358707761824
 Root     12 :     4.169508081055358   Change is   -0.000163256112770
 Iteration     5 Dimension   142 NMult   120 NNew     22
 CISAX will form     3 AO SS matrices at one time.
 NMat=     3 NSing=     3 JSym2X= 0.
 NMat=     3 NSing=     3 JSym2X= 0.
 NMat=     3 NSing=     3 JSym2X= 0.
 NMat=     3 NSing=     3 JSym2X= 0.
 NMat=     3 NSing=     3 JSym2X= 0.
 NMat=     3 NSing=     3 JSym2X= 0.
 NMat=     3 NSing=     3 JSym2X= 0.
 NMat=     1 NSing=     1 JSym2X= 0.
 Root      1 has converged.
 Root      2 has converged.
 Root      3 has converged.
 Root      4 has converged.
 Root      5 has converged.
 Root      6 has converged.
 Root      7 has converged.
 Root      8 has converged.
 Root      9 has converged.
 Root     10 has converged.
 Root     11 has converged.
 Root     12 has converged.
 Excitation Energies [eV] at current iteration:
 Root      1 :     3.288652857537969   Change is   -0.000086533367227
 Root      2 :     3.301537136280854   Change is   -0.000074405463311
 Root      3 :     3.349812112970248   Change is   -0.000008838083857
 Root      4 :     3.382786631152652   Change is   -0.000016242384302
 Root      5 :     3.717577455408878   Change is   -0.000016735659400
 Root      6 :     3.796933813004549   Change is   -0.000031800042417
 Root      7 :     3.824715933178827   Change is   -0.000031602710615
 Root      8 :     3.888864850850992   Change is   -0.000026308319161
 Root      9 :     3.982889668101446   Change is   -0.000029574552800
 Root     10 :     4.112318284236530   Change is   -0.000042025200382
 Root     11 :     4.128968685478785   Change is   -0.000032154347423
 Root     12 :     4.169504044167914   Change is   -0.000004036887444
 Convergence achieved on expansion vectors.
 ***********************************************************************
 Excited states from <AA,BB:AA,BB> singles matrix:
 ***********************************************************************
 
 ExtSpn:  IState=     1 X2= 1.033 Y2= 0.033 X2-Y2-1= 4.44D-16
          S2Grnd=  0.000 Ra=  0.500 Rb=  0.500 T=  1.000 S2Ext=  2.000 S2=  2.000
 ExtSpn:  IState=     2 X2= 1.033 Y2= 0.033 X2-Y2-1= 0.00D+00
          S2Grnd=  0.000 Ra=  0.500 Rb=  0.500 T=  1.000 S2Ext=  2.000 S2=  2.000
 ExtSpn:  IState=     3 X2= 1.004 Y2= 0.004 X2-Y2-1= 1.33D-15
          S2Grnd=  0.000 Ra=  0.500 Rb=  0.500 T=  1.000 S2Ext=  2.000 S2=  2.000
 ExtSpn:  IState=     4 X2= 1.006 Y2= 0.006 X2-Y2-1=-4.44D-16
          S2Grnd=  0.000 Ra=  0.500 Rb=  0.500 T=  1.000 S2Ext=  2.000 S2=  2.000
 ExtSpn:  IState=     5 X2= 1.001 Y2= 0.001 X2-Y2-1=-1.44D-15
          S2Grnd=  0.000 Ra=  0.500 Rb=  0.500 T= -1.000 S2Ext=  0.000 S2=  0.000
 ExtSpn:  IState=     6 X2= 1.004 Y2= 0.004 X2-Y2-1= 1.11D-15
          S2Grnd=  0.000 Ra=  0.500 Rb=  0.500 T=  1.000 S2Ext=  2.000 S2=  2.000
 ExtSpn:  IState=     7 X2= 1.001 Y2= 0.001 X2-Y2-1= 0.00D+00
          S2Grnd=  0.000 Ra=  0.500 Rb=  0.500 T= -1.000 S2Ext=  0.000 S2=  0.000
 ExtSpn:  IState=     8 X2= 1.004 Y2= 0.004 X2-Y2-1= 8.88D-16
          S2Grnd=  0.000 Ra=  0.500 Rb=  0.500 T=  1.000 S2Ext=  2.000 S2=  2.000
 ExtSpn:  IState=     9 X2= 1.001 Y2= 0.001 X2-Y2-1= 6.66D-16
          S2Grnd=  0.000 Ra=  0.500 Rb=  0.500 T=  1.000 S2Ext=  2.000 S2=  2.000
 ExtSpn:  IState=    10 X2= 1.001 Y2= 0.001 X2-Y2-1=-5.55D-16
          S2Grnd=  0.000 Ra=  0.500 Rb=  0.500 T= -1.000 S2Ext=  0.000 S2=  0.000
 ExtSpn:  IState=    11 X2= 1.000 Y2= 0.000 X2-Y2-1=-7.77D-16
          S2Grnd=  0.000 Ra=  0.500 Rb=  0.500 T=  1.000 S2Ext=  2.000 S2=  2.000
 ExtSpn:  IState=    12 X2= 1.000 Y2= 0.000 X2-Y2-1= 1.11D-15
          S2Grnd=  0.000 Ra=  0.500 Rb=  0.500 T= -1.000 S2Ext=  0.000 S2=  0.000
 1PDM for each excited state written to RWF  633
 Ground to excited state transition densities written to RWF  633
 Ground to excited state transition electric dipole moments (Au):
       state          X           Y           Z        Dip. S.      Osc.
[...]
    15  C   -0.000000  -0.000000   0.000000   0.000000  -0.000000   0.000000
    16  H    0.000000  -0.000000  -0.000000  -0.000000  -0.000000  -0.000000
    17  H    0.000000   0.000000  -0.000000  -0.000000   0.000000  -0.000000
    18  H    0.000000  -0.000000   0.000000   0.000000   0.000000  -0.000000
    19  C   -0.000008   0.000000   0.000000   0.000000   0.000000   0.000000
    20  C    0.000000   0.000009  -0.000000  -0.000000  -0.000000  -0.000000
    21  C    0.000000  -0.000000   0.000009  -0.000000   0.000000  -0.000000
    22  C    0.000000  -0.000000  -0.000000  -0.000009   0.000000   0.000000
    23  H    0.000000  -0.000000   0.000000   0.000000  -0.000001  -0.000000
    24  C    0.000000  -0.000000  -0.000000   0.000000  -0.000000  -0.000009
    25  H    0.000000   0.000000   0.000000  -0.000000   0.000000   0.000000
    26  C   -0.000000  -0.000000  -0.000000   0.000000   0.000000   0.000000
    27  H   -0.000000  -0.000000   0.000000  -0.000000   0.000000  -0.000000
    28  H   -0.000000   0.000000  -0.000000  -0.000000   0.000000  -0.000000
    29  H   -0.000000   0.000000   0.000000   0.000000   0.000000   0.000000
    30  C    0.000000  -0.000000   0.000000  -0.000000   0.000000  -0.000000
    31  C    0.000000   0.000000  -0.000000  -0.000000  -0.000000   0.000000
    32  C   -0.000000  -0.000000   0.000000   0.000000   0.000000  -0.000000
    33  C   -0.000000   0.000000  -0.000000  -0.000000   0.000000   0.000000
    34  H    0.000000   0.000000  -0.000000   0.000000  -0.000000  -0.000000
    35  C    0.000000  -0.000000   0.000000  -0.000000   0.000000   0.000000
    36  H   -0.000000   0.000000  -0.000000  -0.000000  -0.000000   0.000000
    37  C   -0.000000  -0.000000  -0.000000   0.000000   0.000000  -0.000000
    38  H    0.000000  -0.000000  -0.000000  -0.000000   0.000000  -0.000000
    39  H    0.000000  -0.000000  -0.000000  -0.000000   0.000000   0.000000
    40  H    0.000000  -0.000000  -0.000000   0.000000  -0.000000  -0.000000
              25         26         27         28         29         30
     1  C    0.000000   0.000000  -0.000000  -0.000000  -0.000000  -0.000000
     2  H   -0.000000   0.000000  -0.000000  -0.000000   0.000000  -0.000000
     3  C   -0.000000   0.000000   0.000000   0.000000  -0.000000  -0.000000
     4  O   -0.000000  -0.000000   0.000000   0.000000   0.000000  -0.000000
     5  O    0.000000  -0.000000   0.000000   0.000000  -0.000000   0.000000
     6  N    0.000000  -0.000000  -0.000000  -0.000000   0.000000  -0.000000
     7  H    0.000000  -0.000000  -0.000000  -0.000000   0.000000   0.000000
     8  N    0.000000  -0.000000   0.000000   0.000000  -0.000000   0.000000
     9  H   -0.000000   0.000000  -0.000000  -0.000000   0.000000   0.000000
    10  H    0.000000   0.000000  -0.000000  -0.000000   0.000000   0.000000
    11  C   -0.000000  -0.000000   0.000000   0.000000  -0.000000   0.000000
    12  H    0.000000  -0.000000   0.000000  -0.000000   0.000000  -0.000000
    13  H    0.000000  -0.000000  -0.000000   0.000000   0.000000   0.000000
    14  H   -0.000000   0.000000  -0.000000   0.000000   0.000000  -0.000000
    15  C   -0.000000  -0.000000  -0.000000  -0.000000  -0.000000   0.000000
    16  H   -0.000000   0.000000   0.000000  -0.000000  -0.000000   0.000000
    17  H    0.000000   0.000000   0.000000  -0.000000   0.000000   0.000000
    18  H    0.000000   0.000000   0.000000   0.000000  -0.000000   0.000000
    19  C    0.000000  -0.000000  -0.000000  -0.000000  -0.000000   0.000000
    20  C    0.000000  -0.000000  -0.000000   0.000000   0.000000  -0.000000
    21  C    0.000000  -0.000000   0.000000  -0.000000   0.000000   0.000000
    22  C   -0.000000   0.000000  -0.000000  -0.000000   0.000000  -0.000000
    23  H    0.000000   0.000000   0.000000   0.000000   0.000000   0.000000
    24  C    0.000000   0.000000  -0.000000  -0.000000   0.000000  -0.000000
    25  H   -0.000001   0.000000   0.000000   0.000000   0.000000   0.000000
    26  C    0.000000   0.000009  -0.000000  -0.000000   0.000000   0.000000
    27  H    0.000000  -0.000000   0.000001  -0.000000   0.000000  -0.000000
    28  H    0.000000  -0.000000  -0.000000   0.000001   0.000000  -0.000000
    29  H    0.000000   0.000000   0.000000   0.000000  -0.000001  -0.000000
    30  C    0.000000   0.000000  -0.000000  -0.000000  -0.000000  -0.000001
    31  C    0.000000  -0.000000   0.000000   0.000000  -0.000000   0.000000
    32  C    0.000000  -0.000000  -0.000000  -0.000000   0.000000   0.000000
    33  C   -0.000000  -0.000000   0.000000  -0.000000   0.000000   0.000000
    34  H   -0.000000  -0.000000   0.000000   0.000000  -0.000000  -0.000000
    35  C    0.000000   0.000000  -0.000000  -0.000000   0.000000   0.000000
    36  H    0.000000  -0.000000  -0.000000   0.000000   0.000000   0.000000
    37  C    0.000000   0.000000  -0.000000  -0.000000   0.000000  -0.000000
    38  H   -0.000000  -0.000000  -0.000000   0.000000   0.000000  -0.000000
    39  H    0.000000   0.000000   0.000000  -0.000000   0.000000  -0.000000
    40  H    0.000000   0.000000  -0.000000   0.000000  -0.000000  -0.000000
              31         32         33         34         35         36
     1  C    0.000000  -0.000000  -0.000000  -0.000000   0.000000  -0.000000
     2  H    0.000000   0.000000  -0.000000  -0.000000   0.000000  -0.000000
     3  C   -0.000000  -0.000000   0.000000  -0.000000   0.000000  -0.000000
     4  O    0.000000  -0.000000   0.000000   0.000000   0.000000   0.000000
     5  O   -0.000000  -0.000000  -0.000000  -0.000000  -0.000000   0.000000
     6  N    0.000000   0.000000   0.000000   0.000000   0.000000   0.000000
     7  H   -0.000000  -0.000000  -0.000000  -0.000000   0.000000  -0.000000
     8  N   -0.000000   0.000000   0.000000   0.000000  -0.000000   0.000000
     9  H   -0.000000  -0.000000  -0.000000  -0.000000   0.000000  -0.000000
    10  H   -0.000000  -0.000000  -0.000000  -0.000000   0.000000  -0.000000
    11  C   -0.000000  -0.000000   0.000000   0.000000  -0.000000   0.000000
    12  H    0.000000  -0.000000   0.000000   0.000000   0.000000  -0.000000
    13  H    0.000000   0.000000  -0.000000   0.000000   0.000000   0.000000
    14  H    0.000000  -0.000000   0.000000   0.000000  -0.000000  -0.000000
    15  C    0.000000  -0.000000   0.000000   0.000000  -0.000000  -0.000000
    16  H   -0.000000   0.000000  -0.000000  -0.000000  -0.000000   0.000000
    17  H    0.000000   0.000000  -0.000000  -0.000000  -0.000000   0.000000
    18  H   -0.000000   0.000000  -0.000000  -0.000000   0.000000  -0.000000
    19  C    0.000000  -0.000000  -0.000000   0.000000   0.000000  -0.000000
    20  C    0.000000  -0.000000   0.000000   0.000000  -0.000000   0.000000
    21  C   -0.000000   0.000000  -0.000000  -0.000000   0.000000  -0.000000
    22  C   -0.000000   0.000000  -0.000000   0.000000  -0.000000  -0.000000
    23  H   -0.000000   0.000000   0.000000  -0.000000   0.000000  -0.000000
    24  C    0.000000  -0.000000   0.000000  -0.000000   0.000000   0.000000
    25  H    0.000000   0.000000  -0.000000  -0.000000   0.000000   0.000000
    26  C   -0.000000  -0.000000  -0.000000  -0.000000   0.000000  -0.000000
    27  H    0.000000  -0.000000   0.000000   0.000000  -0.000000  -0.000000
    28  H    0.000000  -0.000000  -0.000000   0.000000  -0.000000   0.000000
    29  H   -0.000000   0.000000   0.000000  -0.000000   0.000000   0.000000
    30  C    0.000000   0.000000   0.000000  -0.000000   0.000000   0.000000
    31  C    0.000001  -0.000000  -0.000000  -0.000000  -0.000000   0.000000
    32  C   -0.000000   0.000001   0.000000   0.000000  -0.000000   0.000000
    33  C   -0.000000   0.000000  -0.000001   0.000000   0.000000  -0.000000
    34  H   -0.000000   0.000000   0.000000  -0.000000  -0.000000   0.000000
    35  C   -0.000000  -0.000000   0.000000  -0.000000  -0.000001   0.000000
    36  H    0.000000   0.000000  -0.000000   0.000000   0.000000  -0.000000
    37  C   -0.000000  -0.000000   0.000000   0.000000   0.000000   0.000000
    38  H   -0.000000   0.000000   0.000000   0.000000  -0.000000  -0.000000
    39  H    0.000000  -0.000000  -0.000000   0.000000   0.000000  -0.000000
    40  H    0.000000   0.000000   0.000000   0.000000   0.000000   0.000000
              37         38         39         40
     1  C    0.000000  -0.000000   0.000000   0.000000
     2  H   -0.000000  -0.000000   0.000000   0.000000
     3  C    0.000000  -0.000000  -0.000000   0.000000
     4  O   -0.000000   0.000000   0.000000  -0.000000
     5  O    0.000000  -0.000000  -0.000000  -0.000000
     6  N   -0.000000   0.000000   0.000000  -0.000000
     7  H    0.000000  -0.000000  -0.000000   0.000000
     8  N    0.000000  -0.000000  -0.000000   0.000000
     9  H    0.000000   0.000000   0.000000  -0.000000
    10  H    0.000000  -0.000000  -0.000000   0.000000
    11  C    0.000000   0.000000  -0.000000   0.000000
    12  H    0.000000   0.000000   0.000000   0.000000
    13  H   -0.000000  -0.000000  -0.000000  -0.000000
    14  H   -0.000000  -0.000000   0.000000   0.000000
    15  C   -0.000000   0.000000   0.000000  -0.000000
    16  H   -0.000000   0.000000  -0.000000  -0.000000
    17  H   -0.000000  -0.000000  -0.000000   0.000000
    18  H    0.000000  -0.000000  -0.000000   0.000000
    19  C   -0.000000   0.000000   0.000000   0.000000
    20  C   -0.000000  -0.000000  -0.000000  -0.000000
    21  C   -0.000000  -0.000000  -0.000000  -0.000000
    22  C    0.000000  -0.000000  -0.000000   0.000000
    23  H    0.000000   0.000000   0.000000  -0.000000
    24  C   -0.000000  -0.000000   0.000000  -0.000000
    25  H    0.000000  -0.000000   0.000000   0.000000
    26  C    0.000000  -0.000000   0.000000   0.000000
    27  H   -0.000000  -0.000000   0.000000  -0.000000
    28  H   -0.000000   0.000000  -0.000000   0.000000
    29  H    0.000000   0.000000   0.000000  -0.000000
    30  C   -0.000000  -0.000000  -0.000000  -0.000000
    31  C   -0.000000  -0.000000   0.000000   0.000000
    32  C   -0.000000   0.000000  -0.000000   0.000000
    33  C    0.000000   0.000000  -0.000000   0.000000
    34  H    0.000000   0.000000   0.000000   0.000000
    35  C    0.000000  -0.000000   0.000000   0.000000
    36  H    0.000000  -0.000000  -0.000000   0.000000
    37  C    0.000001  -0.000000  -0.000000   0.000000
    38  H   -0.000000   0.000000  -0.000000   0.000000
    39  H   -0.000000  -0.000000   0.000000   0.000000
    40  H    0.000000   0.000000   0.000000  -0.000000
 Mulliken charges and spin densities:
               1          2
     1  C    0.403363   0.000002
     2  H    0.255037  -0.000000
     3  C    0.409154   0.000002
     4  O   -0.505828  -0.000002
     5  O   -0.503042  -0.000003
     6  N   -0.557097  -0.000000
     7  H    0.257364   0.000000
     8  N   -0.563584   0.000000
     9  H    0.271368   0.000000
    10  H    0.270400   0.000000
    11  C   -0.399913  -0.000000
    12  H    0.146393   0.000000
    13  H    0.150573   0.000000
    14  H    0.124114   0.000000
    15  C   -0.406271  -0.000000
    16  H    0.142391   0.000000
    17  H    0.160191   0.000000
    18  H    0.129764   0.000000
    19  C    0.062817  -0.000008
    20  C   -0.102740   0.000009
    21  C   -0.116068   0.000009
    22  C   -0.099085  -0.000009
    23  H    0.111339  -0.000001
    24  C   -0.102254  -0.000009
    25  H    0.111796  -0.000001
    26  C   -0.084963   0.000009
    27  H    0.109344   0.000001
    28  H    0.110077   0.000001
    29  H    0.111849  -0.000001
    30  C    0.040861  -0.000001
    31  C   -0.112836   0.000001
    32  C   -0.116935   0.000001
    33  C   -0.097579  -0.000001
    34  H    0.114617  -0.000000
    35  C   -0.091397  -0.000001
    36  H    0.112568  -0.000000
    37  C   -0.077106   0.000001
    38  H    0.109988   0.000000
    39  H    0.109825   0.000000
    40  H    0.111505  -0.000000
 Sum of Mulliken charges =  -0.00000   0.00000
 Mulliken charges and spin densities with hydrogens summed into heavy atoms:
               1          2
     1  C    0.403363   0.000002
     3  C    0.409154   0.000002
     4  O   -0.505828  -0.000002
     5  O   -0.503042  -0.000003
     6  N   -0.029333   0.000000
     8  N   -0.037179   0.000000
    11  C    0.021166  -0.000000
    15  C    0.026075  -0.000000
    19  C    0.062817  -0.000008
    20  C    0.008598   0.000008
    21  C   -0.004272   0.000008
    22  C    0.010259  -0.000008
    24  C    0.007823  -0.000008
    26  C    0.026887   0.000008
    30  C    0.040861  -0.000001
    31  C    0.001781   0.000001
    32  C   -0.004367   0.000001
    33  C    0.012409  -0.000001
    35  C    0.018428  -0.000001
    37  C    0.034399   0.000001
 Electronic spatial extent (au):  <R**2>=           5515.4327
 Charge=             -0.0000 electrons
 Dipole moment (field-independent basis, Debye):
    X=             -9.7712    Y=              2.1429    Z=              0.1512  Tot=             10.0046
 Quadrupole moment (field-independent basis, Debye-Ang):
   XX=           -136.0271   YY=           -125.0118   ZZ=           -102.1660
   XY=              7.1016   XZ=              4.2619   YZ=              5.1626
 Traceless Quadrupole moment (field-independent basis, Debye-Ang):
   XX=            -14.9588   YY=             -3.9435   ZZ=             18.9023
   XY=              7.1016   XZ=              4.2619   YZ=              5.1626
 Octapole moment (field-independent basis, Debye-Ang**2):
  XXX=           -215.4125  YYY=             10.0958  ZZZ=             -0.6683  XYY=            -19.4443
  XXY=             39.5051  XXZ=             21.6851  XZZ=              8.2454  YZZ=             -3.4607
  YYZ=             -7.1180  XYZ=             20.9775
 Hexadecapole moment (field-independent basis, Debye-Ang**3):
 XXXX=          -5011.9793 YYYY=          -2108.4871 ZZZZ=           -889.4660 XXXY=            206.9781
 XXXZ=             86.2101 YYYX=             28.5450 YYYZ=              2.7151 ZZZX=             -4.5133
 ZZZY=             -8.5554 XXYY=          -1172.5019 XXZZ=           -770.5887 YYZZ=           -452.7215
 XXYZ=             20.5432 YYXZ=            -11.1975 ZZXY=            -15.9165
 N-N= 1.570504053516D+03 E-N=-5.190425723231D+03  KE= 8.733729548095D+02
 Leave Link  601 at Fri May 10 00:07:56 2019, MaxMem=   104857600 cpu:               4.8 elap:               0.2
 (Enter /opt/software/gaussian/g16.b01/l9999.exe)
 Electronic transition elements 
                 1             2             3             4             5 
      1  -0.881638D+03 -0.881637D+03 -0.881636D+03 -0.881634D+03 -0.881622D+03
      2   0.000000D+00 -0.110721D-05  0.000000D+00  0.000000D+00  0.137007D+00
      3  -0.219000D-05 -0.312952D-05  0.000000D+00  0.000000D+00 -0.991771D-01
      4   0.284981D-05  0.000000D+00  0.000000D+00  0.000000D+00 -0.254268D-01
      5   0.000000D+00  0.000000D+00  0.000000D+00  0.000000D+00 -0.189229D-01
      6   0.000000D+00  0.000000D+00  0.000000D+00  0.000000D+00  0.149695D-01
      7   0.000000D+00  0.103584D-05  0.000000D+00  0.000000D+00  0.290204D-02
      8   0.000000D+00  0.264634D-05 -0.395169D-05 -0.701919D-05  0.164593D+00
      9   0.000000D+00  0.000000D+00  0.000000D+00  0.000000D+00  0.617823D-01
     10  -0.369757D-05 -0.508147D-05 -0.991814D-05 -0.570447D-05  0.782679D+00
     11  -0.302609D-05 -0.191710D-05  0.000000D+00  0.000000D+00 -0.114152D+00
     12   0.474482D-05  0.120354D-05  0.102761D-05  0.000000D+00 -0.164226D-02
     13   0.597714D-05  0.423326D-05  0.162815D-05  0.105308D-05  0.941426D-02
     14  -0.921665D-05 -0.131715D-04 -0.345205D-05 -0.368792D-05  0.901803D-01
     15   0.464982D-05  0.395132D-05  0.174484D-05  0.193855D-05  0.617608D-02
     16   0.000000D+00  0.000000D+00  0.000000D+00  0.000000D+00 -0.132209D-02
                 6             7             8             9            10 
      1  -0.881619D+03 -0.881618D+03 -0.881616D+03 -0.881612D+03 -0.881608D+03
      2  -0.160550D-05  0.685257D-01 -0.297652D-05  0.141348D-05  0.174580D+00
      3  -0.279871D-05 -0.629888D-01 -0.343680D-05  0.000000D+00 -0.110344D+00
      4   0.603190D-05 -0.120158D-01  0.746222D-05  0.000000D+00  0.629996D-02
      5   0.000000D+00 -0.897834D-02  0.000000D+00  0.000000D+00 -0.250628D-01
      6   0.000000D+00  0.817412D-02  0.000000D+00  0.000000D+00  0.204445D-01
      7   0.000000D+00 -0.406885D-04  0.000000D+00  0.000000D+00 -0.286984D-02
      8   0.000000D+00 -0.663725D+00  0.000000D+00 -0.128022D-05  0.142040D+00
      9   0.000000D+00  0.114906D+00  0.000000D+00  0.000000D+00  0.308799D-02
     10   0.000000D+00  0.232055D+00  0.000000D+00 -0.626239D-05 -0.309459D+00
     11  -0.202208D-05 -0.922269D-01 -0.304998D-05 -0.549139D-05 -0.193967D+00
     12   0.235596D-05  0.537481D-02  0.421415D-05  0.135135D-05  0.372388D-01
     13   0.446128D-05  0.108214D-01  0.625981D-05  0.110604D-05  0.163604D-01
     14  -0.412719D-05  0.586339D-01 -0.431017D-05  0.000000D+00 -0.125027D-01
     15   0.120552D-04  0.867366D-02  0.140766D-04  0.000000D+00  0.187824D-01
     16   0.142838D-05  0.468072D-01  0.000000D+00  0.000000D+00 -0.105333D-01
                11            12 
      1  -0.881607D+03 -0.881605D+03
      2  -0.223402D-04 -0.212004D+00
      3   0.863872D-05  0.691660D-01
      4   0.196118D-05  0.258495D-01
      5   0.324186D-05  0.291004D-01
      6  -0.133763D-05 -0.674185D-02
      7   0.000000D+00 -0.445291D-02
      8  -0.332700D-04 -0.326208D+00
      9   0.000000D+00  0.929122D-02
     10  -0.961693D-05 -0.235942D+00
     11   0.142418D-05  0.116862D+00
     12  -0.406222D-05 -0.410991D-01
     13  -0.100165D-05 -0.208025D-01
     14  -0.528428D-05 -0.350995D-01
     15   0.000000D+00 -0.157923D-01
     16   0.000000D+00  0.162210D-01
 1\1\GINC-GRA464\SP\UB3LYP TD-FC\6-31G(d,p)\C16H20N2O2\RZK\10-May-2019\
 0\\#p td=(50-50,nstates=12) ub3lyp/6-31g(d,p) scrf=(iefpcm,solvent=ace
 tonitrile) guess=(core,mix,always) empiricaldispersion=gd3\\After the 
 closed shell GS is optimized, find out which excited state we need\\0,
 1\C,0,0.354292,-1.479367,-0.300682\H,0,4.618022,-1.283283,1.298049\C,0
 ,1.78959,1.486036,0.313703\O,0,2.516551,1.44709,-0.678564\O,0,1.087393
 ,-1.591673,0.682724\N,0,4.641778,-0.832169,-0.640352\H,0,4.542537,-1.3
 82863,-1.490021\N,0,4.216729,-1.684188,0.453524\H,0,3.201097,-1.640852
 ,0.567673\H,0,4.015195,-0.029334,-0.735132\C,0,0.944413,-1.344207,-1.6
 86276\H,0,0.59689,-2.155483,-2.333883\H,0,0.629864,-0.39991,-2.139806\
 H,0,2.031853,-1.359962,-1.621332\C,0,2.34462,1.203121,1.691376\H,0,2.1
 33242,2.030138,2.376266\H,0,1.877621,0.300528,2.095869\H,0,3.421182,1.
 048234,1.619719\C,0,-1.127817,-1.466906,-0.133755\C,0,-1.661066,-1.665
 472,1.151099\C,0,-2.000025,-1.243915,-1.210097\C,0,-3.036203,-1.64507,
 1.355511\H,0,-0.976966,-1.82964,1.976279\C,0,-3.378972,-1.217805,-1.00
 3288\H,0,-1.611,-1.079441,-2.208397\C,0,-3.89843,-1.419016,0.276932\H,
 0,-3.439469,-1.800289,2.351458\H,0,-4.046348,-1.037619,-1.840128\H,0,-
 4.972479,-1.398392,0.435704\C,0,0.335793,1.789979,0.163553\C,0,-0.1519
 12,2.12626,-1.111322\C,0,-0.562152,1.703684,1.238513\C,0,-1.508064,2.3
 60762,-1.308906\H,0,0.551512,2.192584,-1.934174\C,0,-1.922581,1.93338,
 1.038083\H,0,-0.210412,1.435119,2.228133\C,0,-2.397359,2.258132,-0.233
 613\H,0,-1.876758,2.614901,-2.297804\H,0,-2.612881,1.843333,1.870299\H
 ,0,-3.45857,2.425814,-0.389234\\Version=ES64L-G16RevB.01\State=1-A\HF=
 -881.7587116\S2=0.\S2-1=0.\S2A=0.\RMSD=7.941e-09\PG=C01 [X(C16H20N2O2)
 ]\\@


 THERE ARE TWO THINGS THAT EVERYBODY THINKS THEY CAN DO BETTER THAN
 ANYONE ELSE - PUNCH THE FIRE, AND EDIT A DAILY PAPER.
 -- UNCLE ESEK, "CENTURY MAGAZINE", 1885
 Job cpu time:       0 days  6 hours 23 minutes 59.1 seconds.
 Elapsed time:       0 days  0 hours 12 minutes  2.8 seconds.
 File lengths (MBytes):  RWF=   1604 Int=      0 D2E=      0 Chk=    104 Scr=      1
 Normal termination of Gaussian 16 at Fri May 10 00:07:57 2019.
