 Entering Gaussian System, Link 0=g16
 Initial command:
 /opt/software/gaussian/g16.b01/l1.exe "/localscratch/rzk.14578051.0/Gau-9525.inp" -scrdir="/localscratch/rzk.14578051.0/"
 Entering Link 1 = /opt/software/gaussian/g16.b01/l1.exe PID=      9531.
  
 Copyright (c) 1988-2017, Gaussian, Inc.  All Rights Reserved.
  
 This is part of the Gaussian(R) 16 program.  It is based on
 the Gaussian(R) 09 system (copyright 2009, Gaussian, Inc.),
 the Gaussian(R) 03 system (copyright 2003, Gaussian, Inc.),
 the Gaussian(R) 98 system (copyright 1998, Gaussian, Inc.),
 the Gaussian(R) 94 system (copyright 1995, Gaussian, Inc.),
 the Gaussian 92(TM) system (copyright 1992, Gaussian, Inc.),
 the Gaussian 90(TM) system (copyright 1990, Gaussian, Inc.),
 the Gaussian 88(TM) system (copyright 1988, Gaussian, Inc.),
 the Gaussian 86(TM) system (copyright 1986, Carnegie Mellon
 University), and the Gaussian 82(TM) system (copyright 1983,
 Carnegie Mellon University). Gaussian is a federally registered
 trademark of Gaussian, Inc.
  
 This software contains proprietary and confidential information,
 including trade secrets, belonging to Gaussian, Inc.
  
 This software is provided under written license and may be
 used, copied, transmitted, or stored only in accord with that
 written license.
  
 The following legend is applicable only to US Government
 contracts under FAR:
  
                    RESTRICTED RIGHTS LEGEND
  
 Use, reproduction and disclosure by the US Government is
 subject to restrictions as set forth in subparagraphs (a)
 and (c) of the Commercial Computer Software - Restricted
 Rights clause in FAR 52.227-19.
  
 Gaussian, Inc.
 340 Quinnipiac St., Bldg. 40, Wallingford CT 06492
  
  
 ---------------------------------------------------------------
 Warning -- This program may not be used in any manner that
 competes with the business of Gaussian, Inc. or will provide
 assistance to any competitor of Gaussian, Inc.  The licensee
 of this program is prohibited from giving any competitor of
 Gaussian, Inc. access to this program.  By using this program,
 the user acknowledges that Gaussian, Inc. is engaged in the
 business of creating and licensing software in the field of
 computational chemistry and represents and warrants to the
 licensee that it is not a competitor of Gaussian, Inc. and that
 it will not use this program in any manner prohibited above.
 ---------------------------------------------------------------
  

 Cite this work as:
 Gaussian 16, Revision B.01,
 M. J. Frisch, G. W. Trucks, H. B. Schlegel, G. E. Scuseria, 
 M. A. Robb, J. R. Cheeseman, G. Scalmani, V. Barone, 
 G. A. Petersson, H. Nakatsuji, X. Li, M. Caricato, A. V. Marenich, 
 J. Bloino, B. G. Janesko, R. Gomperts, B. Mennucci, H. P. Hratchian, 
 J. V. Ortiz, A. F. Izmaylov, J. L. Sonnenberg, D. Williams-Young, 
 F. Ding, F. Lipparini, F. Egidi, J. Goings, B. Peng, A. Petrone, 
 T. Henderson, D. Ranasinghe, V. G. Zakrzewski, J. Gao, N. Rega, 
 G. Zheng, W. Liang, M. Hada, M. Ehara, K. Toyota, R. Fukuda, 
 J. Hasegawa, M. Ishida, T. Nakajima, Y. Honda, O. Kitao, H. Nakai, 
 T. Vreven, K. Throssell, J. A. Montgomery, Jr., J. E. Peralta, 
 F. Ogliaro, M. J. Bearpark, J. J. Heyd, E. N. Brothers, K. N. Kudin, 
 V. N. Staroverov, T. A. Keith, R. Kobayashi, J. Normand, 
 K. Raghavachari, A. P. Rendell, J. C. Burant, S. S. Iyengar, 
 J. Tomasi, M. Cossi, J. M. Millam, M. Klene, C. Adamo, R. Cammi, 
 J. W. Ochterski, R. L. Martin, K. Morokuma, O. Farkas, 
 J. B. Foresman, and D. J. Fox, Gaussian, Inc., Wallingford CT, 2016.
 
 ******************************************
 Gaussian 16:  ES64L-G16RevB.01 20-Dec-2017
                10-May-2019 
 ******************************************
 %NProcShared=32
 Will use up to   32 processors via shared memory.
 %chk=Step03-opt-td-singlet1.chk
 ----------------------------------------------------------------------
 #p opt td=(singlets,root=1) ub3lyp/6-31g(d,p) scrf=(iefpcm,solvent=ace
 tonitrile) guess=(core,mix,always) empiricaldispersion=gd3
 ----------------------------------------------------------------------
 1/18=20,19=15,26=3,38=1/1,3;
 2/9=110,12=2,17=6,18=5,40=1/2;
 3/5=1,6=6,7=101,11=2,25=1,30=1,70=2201,71=1,72=2,74=-5,116=2,124=31/1,2,3,8;
 4/5=2,13=-1/1;
 5/5=2,38=5,53=2/2;
 8/6=1,10=2,107=1/1;
 9/8=1,15=2,42=1,48=1,70=2/14;
 10/5=4,28=1/2;
 6/7=2,8=2,9=2,10=2/1;
 7/12=6,13=5,14=1/1,2,3,16;
 1/18=20,19=15,26=3/3(2);
 2/9=110/2;
 99//99;
 2/9=110/2;
 3/5=1,6=6,7=101,11=2,25=1,30=1,70=2205,71=1,72=2,74=-5,116=2,124=31/1,2,3,8;
 4/5=2,13=-1/1;
 5/5=2,38=5,53=2/2;
 8/6=1,10=2,107=1/1;
 9/8=1,15=2,42=1,48=1,49=4,70=2/14;
 10/5=4,28=1/2;
 7/12=6,13=5,14=1/1,2,3,16;
 1/18=20,19=15,26=3/3(-8);
 2/9=110/2;
 6/7=2,8=2,9=2,10=2/1;
 99/9=10/99;
 Leave Link    1 at Fri May 10 00:43:17 2019, MaxMem=           0 cpu:               3.7 elap:               0.1
 (Enter /opt/software/gaussian/g16.b01/l101.exe)
 ------------------------------------
 Optimized the lowest excited singlet
 ------------------------------------
 Symbolic Z-matrix:
 Charge =  0 Multiplicity = 1
 C                     0.35429  -1.47937  -0.30068 
 H                     4.61802  -1.28328   1.29805 
 C                     1.78959   1.48604   0.3137 
 O                     2.51655   1.44709  -0.67856 
 O                     1.08739  -1.59167   0.68272 
 N                     4.64178  -0.83217  -0.64035 
 H                     4.54254  -1.38286  -1.49002 
 N                     4.21673  -1.68419   0.45352 
 H                     3.2011   -1.64085   0.56767 
 H                     4.0152   -0.02933  -0.73513 
 C                     0.94441  -1.34421  -1.68628 
 H                     0.59689  -2.15548  -2.33388 
 H                     0.62986  -0.39991  -2.13981 
 H                     2.03185  -1.35996  -1.62133 
 C                     2.34462   1.20312   1.69138 
 H                     2.13324   2.03014   2.37627 
 H                     1.87762   0.30053   2.09587 
 H                     3.42118   1.04823   1.61972 
 C                    -1.12782  -1.46691  -0.13376 
 C                    -1.66107  -1.66547   1.1511 
 C                    -2.00002  -1.24392  -1.2101 
 C                    -3.0362   -1.64507   1.35551 
 H                    -0.97697  -1.82964   1.97628 
 C                    -3.37897  -1.21781  -1.00329 
 H                    -1.611    -1.07944  -2.2084 
 C                    -3.89843  -1.41902   0.27693 
 H                    -3.43947  -1.80029   2.35146 
 H                    -4.04635  -1.03762  -1.84013 
 H                    -4.97248  -1.39839   0.4357 
 C                     0.33579   1.78998   0.16355 
 C                    -0.15191   2.12626  -1.11132 
 C                    -0.56215   1.70368   1.23851 
 C                    -1.50806   2.36076  -1.30891 
 H                     0.55151   2.19258  -1.93417 
 C                    -1.92258   1.93338   1.03808 
 H                    -0.21041   1.43512   2.22813 
 C                    -2.39736   2.25813  -0.23361 
 H                    -1.87676   2.6149   -2.2978 
 H                    -2.61288   1.84333   1.8703 
 H                    -3.45857   2.42581  -0.38923 
 
 Add virtual bond connecting atoms H10        and O4         Dist= 3.98D+00.
 Add virtual bond connecting atoms H9         and O5         Dist= 4.00D+00.
 ITRead=  0  0  0  0  0  0  0  0  0  0  0  0  0  0  0  0  0  0  0  0
 ITRead=  0  0  0  0  0  0  0  0  0  0  0  0  0  0  0  0  0  0  0  0
 MicOpt= -1 -1 -1 -1 -1 -1 -1 -1 -1 -1 -1 -1 -1 -1 -1 -1 -1 -1 -1 -1
 MicOpt= -1 -1 -1 -1 -1 -1 -1 -1 -1 -1 -1 -1 -1 -1 -1 -1 -1 -1 -1 -1
 NAtoms=     40 NQM=       40 NQMF=       0 NMMI=      0 NMMIF=      0
                NMic=       0 NMicF=      0.
                    Isotopes and Nuclear Properties:
 (Nuclear quadrupole moments (NQMom) in fm**2, nuclear magnetic moments (NMagM)
  in nuclear magnetons)

  Atom         1           2           3           4           5           6           7           8           9          10
 IAtWgt=          12           1          12          16          16          14           1          14           1           1
 AtmWgt=  12.0000000   1.0078250  12.0000000  15.9949146  15.9949146  14.0030740   1.0078250  14.0030740   1.0078250   1.0078250
 NucSpn=           0           1           0           0           0           2           1           2           1           1
 AtZEff=  -0.0000000  -0.0000000  -0.0000000  -0.0000000  -0.0000000  -0.0000000  -0.0000000  -0.0000000  -0.0000000  -0.0000000
 NQMom=    0.0000000   0.0000000   0.0000000   0.0000000   0.0000000   2.0440000   0.0000000   2.0440000   0.0000000   0.0000000
 NMagM=    0.0000000   2.7928460   0.0000000   0.0000000   0.0000000   0.4037610   2.7928460   0.4037610   2.7928460   2.7928460
 AtZNuc=   6.0000000   1.0000000   6.0000000   8.0000000   8.0000000   7.0000000   1.0000000   7.0000000   1.0000000   1.0000000

  Atom        11          12          13          14          15          16          17          18          19          20
 IAtWgt=          12           1           1           1          12           1           1           1          12          12
 AtmWgt=  12.0000000   1.0078250   1.0078250   1.0078250  12.0000000   1.0078250   1.0078250   1.0078250  12.0000000  12.0000000
 NucSpn=           0           1           1           1           0           1           1           1           0           0
 AtZEff=  -0.0000000  -0.0000000  -0.0000000  -0.0000000  -0.0000000  -0.0000000  -0.0000000  -0.0000000  -0.0000000  -0.0000000
 NQMom=    0.0000000   0.0000000   0.0000000   0.0000000   0.0000000   0.0000000   0.0000000   0.0000000   0.0000000   0.0000000
 NMagM=    0.0000000   2.7928460   2.7928460   2.7928460   0.0000000   2.7928460   2.7928460   2.7928460   0.0000000   0.0000000
 AtZNuc=   6.0000000   1.0000000   1.0000000   1.0000000   6.0000000   1.0000000   1.0000000   1.0000000   6.0000000   6.0000000

  Atom        21          22          23          24          25          26          27          28          29          30
 IAtWgt=          12          12           1          12           1          12           1           1           1          12
 AtmWgt=  12.0000000  12.0000000   1.0078250  12.0000000   1.0078250  12.0000000   1.0078250   1.0078250   1.0078250  12.0000000
 NucSpn=           0           0           1           0           1           0           1           1           1           0
 AtZEff=  -0.0000000  -0.0000000  -0.0000000  -0.0000000  -0.0000000  -0.0000000  -0.0000000  -0.0000000  -0.0000000  -0.0000000
 NQMom=    0.0000000   0.0000000   0.0000000   0.0000000   0.0000000   0.0000000   0.0000000   0.0000000   0.0000000   0.0000000
 NMagM=    0.0000000   0.0000000   2.7928460   0.0000000   2.7928460   0.0000000   2.7928460   2.7928460   2.7928460   0.0000000
 AtZNuc=   6.0000000   6.0000000   1.0000000   6.0000000   1.0000000   6.0000000   1.0000000   1.0000000   1.0000000   6.0000000

  Atom        31          32          33          34          35          36          37          38          39          40
 IAtWgt=          12          12          12           1          12           1          12           1           1           1
 AtmWgt=  12.0000000  12.0000000  12.0000000   1.0078250  12.0000000   1.0078250  12.0000000   1.0078250   1.0078250   1.0078250
 NucSpn=           0           0           0           1           0           1           0           1           1           1
 AtZEff=  -0.0000000  -0.0000000  -0.0000000  -0.0000000  -0.0000000  -0.0000000  -0.0000000  -0.0000000  -0.0000000  -0.0000000
 NQMom=    0.0000000   0.0000000   0.0000000   0.0000000   0.0000000   0.0000000   0.0000000   0.0000000   0.0000000   0.0000000
 NMagM=    0.0000000   0.0000000   0.0000000   2.7928460   0.0000000   2.7928460   0.0000000   2.7928460   2.7928460   2.7928460
 AtZNuc=   6.0000000   6.0000000   6.0000000   1.0000000   6.0000000   1.0000000   6.0000000   1.0000000   1.0000000   1.0000000
 Leave Link  101 at Fri May 10 00:43:17 2019, MaxMem=   104857600 cpu:               5.7 elap:               0.2
 (Enter /opt/software/gaussian/g16.b01/l103.exe)

 GradGradGradGradGradGradGradGradGradGradGradGradGradGradGradGradGradGrad
 Berny optimization.
 Initialization pass.
                           ----------------------------
                           !    Initial Parameters    !
                           ! (Angstroms and Degrees)  !
 --------------------------                            --------------------------
 ! Name  Definition              Value          Derivative Info.                !
 --------------------------------------------------------------------------------
 ! R1    R(1,5)                  1.2317         estimate D2E/DX2                !
 ! R2    R(1,11)                 1.5121         estimate D2E/DX2                !
 ! R3    R(1,19)                 1.4915         estimate D2E/DX2                !
 ! R4    R(2,8)                  1.0173         estimate D2E/DX2                !
 ! R5    R(3,4)                  1.2307         estimate D2E/DX2                !
 ! R6    R(3,15)                 1.512          estimate D2E/DX2                !
 ! R7    R(3,30)                 1.4928         estimate D2E/DX2                !
 ! R8    R(4,10)                 2.1045         estimate D2E/DX2                !
 ! R9    R(5,9)                  2.1174         estimate D2E/DX2                !
 ! R10   R(6,7)                  1.0174         estimate D2E/DX2                !
 ! R11   R(6,8)                  1.4502         estimate D2E/DX2                !
 ! R12   R(6,10)                 1.0228         estimate D2E/DX2                !
 ! R13   R(8,9)                  1.0229         estimate D2E/DX2                !
 ! R14   R(11,12)                1.0947         estimate D2E/DX2                !
 ! R15   R(11,13)                1.0938         estimate D2E/DX2                !
 ! R16   R(11,14)                1.0895         estimate D2E/DX2                !
 ! R17   R(15,16)                1.0944         estimate D2E/DX2                !
 ! R18   R(15,17)                1.0938         estimate D2E/DX2                !
 ! R19   R(15,18)                1.09           estimate D2E/DX2                !
 ! R20   R(19,20)                1.4052         estimate D2E/DX2                !
 ! R21   R(19,21)                1.4032         estimate D2E/DX2                !
 ! R22   R(20,22)                1.3904         estimate D2E/DX2                !
 ! R23   R(20,23)                1.0844         estimate D2E/DX2                !
 ! R24   R(21,24)                1.3946         estimate D2E/DX2                !
 ! R25   R(21,25)                1.084          estimate D2E/DX2                !
 ! R26   R(22,26)                1.3992         estimate D2E/DX2                !
 ! R27   R(22,27)                1.0856         estimate D2E/DX2                !
 ! R28   R(24,26)                1.3962         estimate D2E/DX2                !
 ! R29   R(24,28)                1.0854         estimate D2E/DX2                !
 ! R30   R(26,29)                1.0859         estimate D2E/DX2                !
 ! R31   R(30,31)                1.4058         estimate D2E/DX2                !
 ! R32   R(30,32)                1.4033         estimate D2E/DX2                !
 ! R33   R(31,33)                1.3904         estimate D2E/DX2                !
 ! R34   R(31,34)                1.0846         estimate D2E/DX2                !
 ! R35   R(32,35)                1.3942         estimate D2E/DX2                !
 ! R36   R(32,36)                1.0841         estimate D2E/DX2                !
 ! R37   R(33,37)                1.3992         estimate D2E/DX2                !
 ! R38   R(33,38)                1.0856         estimate D2E/DX2                !
 ! R39   R(35,37)                1.3957         estimate D2E/DX2                !
 ! R40   R(35,39)                1.085          estimate D2E/DX2                !
 ! R41   R(37,40)                1.0856         estimate D2E/DX2                !
 ! A1    A(5,1,11)             120.4962         estimate D2E/DX2                !
 ! A2    A(5,1,19)             120.1875         estimate D2E/DX2                !
 ! A3    A(11,1,19)            119.3152         estimate D2E/DX2                !
 ! A4    A(4,3,15)             120.7901         estimate D2E/DX2                !
 ! A5    A(4,3,30)             120.0403         estimate D2E/DX2                !
 ! A6    A(15,3,30)            119.1596         estimate D2E/DX2                !
 ! A7    A(3,4,10)             117.6788         estimate D2E/DX2                !
 ! A8    A(1,5,9)              123.5648         estimate D2E/DX2                !
 ! A9    A(7,6,8)              106.4597         estimate D2E/DX2                !
 ! A10   A(7,6,10)             106.7219         estimate D2E/DX2                !
 ! A11   A(8,6,10)             110.579          estimate D2E/DX2                !
 ! A12   A(2,8,6)              106.2016         estimate D2E/DX2                !
 ! A13   A(2,8,9)              106.3978         estimate D2E/DX2                !
 ! A14   A(6,8,9)              110.5041         estimate D2E/DX2                !
 ! A15   A(1,11,12)            110.6075         estimate D2E/DX2                !
 ! A16   A(1,11,13)            110.1757         estimate D2E/DX2                !
 ! A17   A(1,11,14)            109.4887         estimate D2E/DX2                !
 ! A18   A(12,11,13)           107.6515         estimate D2E/DX2                !
 ! A19   A(12,11,14)           109.963          estimate D2E/DX2                !
 ! A20   A(13,11,14)           108.9197         estimate D2E/DX2                !
 ! A21   A(3,15,16)            110.9726         estimate D2E/DX2                !
 ! A22   A(3,15,17)            109.5504         estimate D2E/DX2                !
 ! A23   A(3,15,18)            109.2232         estimate D2E/DX2                !
 ! A24   A(16,15,17)           108.0406         estimate D2E/DX2                !
 ! A25   A(16,15,18)           109.8333         estimate D2E/DX2                !
 ! A26   A(17,15,18)           109.1924         estimate D2E/DX2                !
 ! A27   A(1,19,20)            118.5699         estimate D2E/DX2                !
 ! A28   A(1,19,21)            122.2177         estimate D2E/DX2                !
 ! A29   A(20,19,21)           119.2051         estimate D2E/DX2                !
 ! A30   A(19,20,22)           120.5084         estimate D2E/DX2                !
 ! A31   A(19,20,23)           118.5408         estimate D2E/DX2                !
 ! A32   A(22,20,23)           120.9502         estimate D2E/DX2                !
 ! A33   A(19,21,24)           120.2535         estimate D2E/DX2                !
 ! A34   A(19,21,25)           120.4954         estimate D2E/DX2                !
 ! A35   A(24,21,25)           119.2478         estimate D2E/DX2                !
 ! A36   A(20,22,26)           119.9004         estimate D2E/DX2                !
 ! A37   A(20,22,27)           120.0098         estimate D2E/DX2                !
 ! A38   A(26,22,27)           120.0893         estimate D2E/DX2                !
 ! A39   A(21,24,26)           120.0767         estimate D2E/DX2                !
 ! A40   A(21,24,28)           119.7833         estimate D2E/DX2                !
 ! A41   A(26,24,28)           120.1398         estimate D2E/DX2                !
 ! A42   A(22,26,24)           120.0551         estimate D2E/DX2                !
 ! A43   A(22,26,29)           119.9895         estimate D2E/DX2                !
 ! A44   A(24,26,29)           119.9553         estimate D2E/DX2                !
 ! A45   A(3,30,31)            118.5407         estimate D2E/DX2                !
 ! A46   A(3,30,32)            122.2482         estimate D2E/DX2                !
 ! A47   A(31,30,32)           119.1699         estimate D2E/DX2                !
 ! A48   A(30,31,33)           120.5042         estimate D2E/DX2                !
 ! A49   A(30,31,34)           118.5325         estimate D2E/DX2                !
 ! A50   A(33,31,34)           120.9624         estimate D2E/DX2                !
 ! A51   A(30,32,35)           120.2739         estimate D2E/DX2                !
 ! A52   A(30,32,36)           120.4574         estimate D2E/DX2                !
 ! A53   A(35,32,36)           119.253          estimate D2E/DX2                !
 ! A54   A(31,33,37)           119.8915         estimate D2E/DX2                !
 ! A55   A(31,33,38)           120.0139         estimate D2E/DX2                !
 ! A56   A(37,33,38)           120.0927         estimate D2E/DX2                !
 ! A57   A(32,35,37)           120.0828         estimate D2E/DX2                !
 ! A58   A(32,35,39)           119.7942         estimate D2E/DX2                !
 ! A59   A(37,35,39)           120.1157         estimate D2E/DX2                !
 ! A60   A(33,37,35)           120.0722         estimate D2E/DX2                !
 ! A61   A(33,37,40)           119.9882         estimate D2E/DX2                !
 ! A62   A(35,37,40)           119.9388         estimate D2E/DX2                !
 ! A63   L(5,9,8,4,-1)         179.7256         estimate D2E/DX2                !
 ! A64   L(4,10,6,5,-1)        170.4039         estimate D2E/DX2                !
 ! A65   L(5,9,8,4,-2)         183.5336         estimate D2E/DX2                !
 ! A66   L(4,10,6,5,-2)        183.3014         estimate D2E/DX2                !
 ! D1    D(11,1,5,9)            -1.0028         estimate D2E/DX2                !
 ! D2    D(19,1,5,9)           179.381          estimate D2E/DX2                !
 ! D3    D(5,1,11,12)          120.9748         estimate D2E/DX2                !
 ! D4    D(5,1,11,13)         -120.1239         estimate D2E/DX2                !
 ! D5    D(5,1,11,14)           -0.357          estimate D2E/DX2                !
 ! D6    D(19,1,11,12)         -59.4056         estimate D2E/DX2                !
 ! D7    D(19,1,11,13)          59.4957         estimate D2E/DX2                !
 ! D8    D(19,1,11,14)         179.2626         estimate D2E/DX2                !
 ! D9    D(5,1,19,20)           -3.7483         estimate D2E/DX2                !
 ! D10   D(5,1,19,21)          175.2553         estimate D2E/DX2                !
 ! D11   D(11,1,19,20)         176.6309         estimate D2E/DX2                !
 ! D12   D(11,1,19,21)          -4.3655         estimate D2E/DX2                !
 ! D13   D(15,3,4,10)           37.1982         estimate D2E/DX2                !
 ! D14   D(30,3,4,10)         -141.6378         estimate D2E/DX2                !
 ! D15   D(4,3,15,16)          124.9368         estimate D2E/DX2                !
 ! D16   D(4,3,15,17)         -115.8492         estimate D2E/DX2                !
 ! D17   D(4,3,15,18)            3.707          estimate D2E/DX2                !
 ! D18   D(30,3,15,16)         -56.2171         estimate D2E/DX2                !
 ! D19   D(30,3,15,17)          62.9969         estimate D2E/DX2                !
 ! D20   D(30,3,15,18)        -177.4468         estimate D2E/DX2                !
 ! D21   D(4,3,30,31)           -4.7419         estimate D2E/DX2                !
 ! D22   D(4,3,30,32)          172.8996         estimate D2E/DX2                !
 ! D23   D(15,3,30,31)         176.4031         estimate D2E/DX2                !
 ! D24   D(15,3,30,32)          -5.9553         estimate D2E/DX2                !
 ! D25   D(3,4,6,7)            125.4723         estimate D2E/DX2                !
 ! D26   D(3,4,6,8)             12.4685         estimate D2E/DX2                !
 ! D27   D(1,5,8,2)            149.6409         estimate D2E/DX2                !
 ! D28   D(1,5,8,6)             34.1385         estimate D2E/DX2                !
 ! D29   D(7,6,8,2)            160.1137         estimate D2E/DX2                !
 ! D30   D(7,6,8,9)            -84.8923         estimate D2E/DX2                !
 ! D31   D(10,6,8,2)           -84.3299         estimate D2E/DX2                !
 ! D32   D(10,6,8,9)            30.6642         estimate D2E/DX2                !
 ! D33   D(1,19,20,22)         179.1956         estimate D2E/DX2                !
 ! D34   D(1,19,20,23)          -0.5245         estimate D2E/DX2                !
 ! D35   D(21,19,20,22)          0.1614         estimate D2E/DX2                !
 ! D36   D(21,19,20,23)       -179.5588         estimate D2E/DX2                !
 ! D37   D(1,19,21,24)        -178.879          estimate D2E/DX2                !
 ! D38   D(1,19,21,25)           0.4525         estimate D2E/DX2                !
 ! D39   D(20,19,21,24)          0.1185         estimate D2E/DX2                !
 ! D40   D(20,19,21,25)        179.45           estimate D2E/DX2                !
 ! D41   D(19,20,22,26)         -0.3064         estimate D2E/DX2                !
 ! D42   D(19,20,22,27)        179.9462         estimate D2E/DX2                !
 ! D43   D(23,20,22,26)        179.407          estimate D2E/DX2                !
 ! D44   D(23,20,22,27)         -0.3404         estimate D2E/DX2                !
 ! D45   D(19,21,24,26)         -0.2521         estimate D2E/DX2                !
 ! D46   D(19,21,24,28)        179.5632         estimate D2E/DX2                !
 ! D47   D(25,21,24,26)       -179.5919         estimate D2E/DX2                !
 ! D48   D(25,21,24,28)          0.2234         estimate D2E/DX2                !
 ! D49   D(20,22,26,24)          0.1718         estimate D2E/DX2                !
 ! D50   D(20,22,26,29)       -179.7283         estimate D2E/DX2                !
 ! D51   D(27,22,26,24)        179.919          estimate D2E/DX2                !
 ! D52   D(27,22,26,29)          0.0189         estimate D2E/DX2                !
 ! D53   D(21,24,26,22)          0.107          estimate D2E/DX2                !
 ! D54   D(21,24,26,29)       -179.9929         estimate D2E/DX2                !
 ! D55   D(28,24,26,22)       -179.7077         estimate D2E/DX2                !
 ! D56   D(28,24,26,29)          0.1925         estimate D2E/DX2                !
 ! D57   D(3,30,31,33)         177.2263         estimate D2E/DX2                !
 ! D58   D(3,30,31,34)          -2.441          estimate D2E/DX2                !
 ! D59   D(32,30,31,33)         -0.4893         estimate D2E/DX2                !
 ! D60   D(32,30,31,34)        179.8433         estimate D2E/DX2                !
 ! D61   D(3,30,32,35)        -176.862          estimate D2E/DX2                !
 ! D62   D(3,30,32,36)           1.6854         estimate D2E/DX2                !
 ! D63   D(31,30,32,35)          0.7652         estimate D2E/DX2                !
 ! D64   D(31,30,32,36)        179.3126         estimate D2E/DX2                !
 ! D65   D(30,31,33,37)         -0.1941         estimate D2E/DX2                !
 ! D66   D(30,31,33,38)       -179.6845         estimate D2E/DX2                !
 ! D67   D(34,31,33,37)        179.4651         estimate D2E/DX2                !
 ! D68   D(34,31,33,38)         -0.0253         estimate D2E/DX2                !
 ! D69   D(30,32,35,37)         -0.3583         estimate D2E/DX2                !
 ! D70   D(30,32,35,39)        178.6656         estimate D2E/DX2                !
 ! D71   D(36,32,35,37)       -178.9231         estimate D2E/DX2                !
 ! D72   D(36,32,35,39)          0.1009         estimate D2E/DX2                !
 ! D73   D(31,33,37,35)          0.6091         estimate D2E/DX2                !
 ! D74   D(31,33,37,40)       -179.0534         estimate D2E/DX2                !
 ! D75   D(38,33,37,35)       -179.9009         estimate D2E/DX2                !
 ! D76   D(38,33,37,40)          0.4366         estimate D2E/DX2                !
 ! D77   D(32,35,37,33)         -0.3336         estimate D2E/DX2                !
 ! D78   D(32,35,37,40)        179.329          estimate D2E/DX2                !
 ! D79   D(39,35,37,33)       -179.3544         estimate D2E/DX2                !
 ! D80   D(39,35,37,40)          0.3082         estimate D2E/DX2                !
 --------------------------------------------------------------------------------
 Trust Radius=3.00D-01 FncErr=1.00D-07 GrdErr=1.00D-06 EigMax=2.50D+02 EigMin=1.00D-04
 Number of steps in this run=    197 maximum allowed number of steps=    240.
 GradGradGradGradGradGradGradGradGradGradGradGradGradGradGradGradGradGrad

 Leave Link  103 at Fri May 10 00:43:18 2019, MaxMem=   104857600 cpu:               2.2 elap:               0.1
 (Enter /opt/software/gaussian/g16.b01/l202.exe)
                          Input orientation:                          
 ---------------------------------------------------------------------
 Center     Atomic      Atomic             Coordinates (Angstroms)
 Number     Number       Type             X           Y           Z
 ---------------------------------------------------------------------
      1          6           0        0.354292   -1.479367   -0.300682
      2          1           0        4.618022   -1.283283    1.298049
      3          6           0        1.789590    1.486036    0.313703
      4          8           0        2.516551    1.447090   -0.678564
      5          8           0        1.087393   -1.591673    0.682724
      6          7           0        4.641778   -0.832169   -0.640352
      7          1           0        4.542537   -1.382863   -1.490021
      8          7           0        4.216729   -1.684188    0.453524
      9          1           0        3.201097   -1.640852    0.567673
     10          1           0        4.015195   -0.029334   -0.735132
     11          6           0        0.944413   -1.344207   -1.686276
     12          1           0        0.596890   -2.155483   -2.333883
     13          1           0        0.629864   -0.399910   -2.139806
     14          1           0        2.031853   -1.359962   -1.621332
     15          6           0        2.344620    1.203121    1.691376
     16          1           0        2.133242    2.030138    2.376266
     17          1           0        1.877621    0.300528    2.095869
     18          1           0        3.421182    1.048234    1.619719
     19          6           0       -1.127817   -1.466906   -0.133755
     20          6           0       -1.661066   -1.665472    1.151099
     21          6           0       -2.000025   -1.243915   -1.210097
     22          6           0       -3.036203   -1.645070    1.355511
     23          1           0       -0.976966   -1.829640    1.976279
     24          6           0       -3.378972   -1.217805   -1.003288
     25          1           0       -1.611000   -1.079441   -2.208397
     26          6           0       -3.898430   -1.419016    0.276932
     27          1           0       -3.439469   -1.800289    2.351458
     28          1           0       -4.046348   -1.037619   -1.840128
     29          1           0       -4.972479   -1.398392    0.435704
     30          6           0        0.335793    1.789979    0.163553
     31          6           0       -0.151912    2.126260   -1.111322
     32          6           0       -0.562152    1.703684    1.238513
     33          6           0       -1.508064    2.360762   -1.308906
     34          1           0        0.551512    2.192584   -1.934174
     35          6           0       -1.922581    1.933380    1.038083
     36          1           0       -0.210412    1.435119    2.228133
     37          6           0       -2.397359    2.258132   -0.233613
     38          1           0       -1.876758    2.614901   -2.297804
     39          1           0       -2.612881    1.843333    1.870299
     40          1           0       -3.458570    2.425814   -0.389234
 ---------------------------------------------------------------------
                    Distance matrix (angstroms):
                    1          2          3          4          5
     1  C    0.000000
     2  H    4.557827   0.000000
     3  C    3.351293   4.078982   0.000000
     4  O    3.658184   3.972168   1.230684   0.000000
     5  O    1.231721   3.597092   3.178294   3.623490   0.000000
     6  N    4.349342   1.990343   3.797272   3.116580   3.867949
     7  H    4.354909   2.790869   4.366087   3.573754   4.086862
     8  N    3.940710   1.017341   3.995106   3.738600   3.139082
     9  H    2.980674   1.633702   3.440099   3.399573   2.117404
    10  H    3.961509   2.463659   2.889588   2.104510   3.608773
    11  C    1.512079   4.733425   3.567144   3.358339   2.386178
    12  H    2.156361   5.488275   4.657564   4.404964   3.107795
    13  H    2.150243   5.338970   3.304764   3.017652   3.097791
    14  H    2.138360   3.900889   3.450037   3.000547   2.500874
    15  C    3.889144   3.391942   1.511980   2.388660   3.226278
    16  H    4.758922   4.279654   2.160627   3.133506   4.132723
    17  H    3.351420   3.264165   2.142264   3.069253   2.490354
    18  H    4.413901   2.640430   2.135285   2.501909   3.646044
    19  C    1.491532   5.924394   4.175087   4.697830   2.364183
    20  C    2.490777   6.292425   4.747659   5.521611   2.789059
    21  C    2.534814   7.077492   4.912818   5.284269   3.638112
    22  C    3.777021   7.662986   5.846150   6.673229   4.178461
    23  H    2.660731   5.662366   4.627278   5.476295   2.447752
    24  C    3.807799   8.321800   5.979904   6.477986   4.788615
    25  H    2.767976   7.151044   4.950421   5.075473   3.987767
    26  C    4.292193   8.578523   6.387038   7.090805   5.005288
    27  H    4.639985   8.142489   6.503494   7.429716   4.829148
    28  H    4.683019   9.218450   6.713121   7.112992   5.746917
    29  H    5.378040   9.629880   7.352577   8.088506   6.067984
    30  C    3.302193   5.391614   1.492800   2.362719   3.502858
    31  C    3.730137   6.338953   2.491990   2.787337   4.310163
    32  C    3.652507   5.979943   2.536402   3.635854   3.726832
    33  C    4.385371   7.589744   3.777900   4.174884   5.130763
    34  H    4.023732   6.250234   2.661766   2.448203   4.632054
    35  C    4.315470   7.293421   3.808550   4.784271   4.648895
    36  H    3.899747   5.618589   2.769051   3.985644   3.637864
    37  C    4.641657   8.006446   4.292578   5.000228   5.272966
    38  H    5.072387   8.384996   4.640734   4.825649   5.946848
    39  H    4.955563   7.898681   4.683204   5.741497   5.186678
    40  H    5.458589   9.046307   5.377777   6.061657   6.160769
                    6          7          8          9         10
     6  N    0.000000
     7  H    1.017374   0.000000
     8  N    1.450230   1.993568   0.000000
     9  H    2.046669   2.469843   1.022945   0.000000
    10  H    1.022807   1.637067   2.047452   2.226443   0.000000
    11  C    3.876422   3.603680   3.924587   3.203265   3.473222
    12  H    4.580429   4.108184   4.592928   3.932654   4.331434
    13  H    4.304726   4.086249   4.608723   3.934669   3.683870
    14  H    2.837710   2.514220   3.030484   2.497554   2.547463
    15  C    3.854387   4.651821   3.656996   3.175601   3.193385
    16  H    4.856494   5.692227   4.672694   4.229361   4.178991
    17  H    4.050984   4.774326   3.479629   2.802843   3.562667
    18  H    3.183346   4.103432   3.075555   2.895932   2.656939
    19  C    5.826470   5.830903   5.381104   4.388822   5.373904
    20  C    6.605266   6.748339   5.919074   4.897103   6.201190
    21  C    6.678899   6.550021   6.450543   5.510871   6.154971
    22  C    7.974689   8.099574   7.308908   6.286861   7.530180
    23  H    6.277897   6.532975   5.414278   4.413165   5.959406
    24  C    8.038213   7.938165   7.748193   6.778215   7.493869
    25  H    6.451135   6.202753   6.435368   5.583729   5.909933
    26  C    8.609353   8.623999   8.121410   7.108940   8.098207
    27  H    8.671490   8.868124   7.888790   6.877821   8.260468
    28  H    8.772982   8.602948   8.599845   7.660735   8.199154
    29  H    9.690843   9.707945   9.193669   8.178236   9.166431
    30  C    5.105236   5.522493   5.216856   4.488194   4.201849
    31  C    5.652750   5.873262   6.004438   5.315339   4.706685
    32  C    6.086179   6.559689   5.910295   5.079172   5.277379
    33  C    6.961489   7.117394   7.227796   6.458379   6.045508
    34  H    5.249132   5.376744   5.845022   5.289118   4.286225
    35  C    7.318211   7.693278   7.149800   6.264862   6.500286
    36  H    6.075570   6.660046   5.699025   4.884375   5.364822
    37  C    7.698366   7.937100   7.730472   6.869268   6.826776
    38  H    7.557827   7.605391   7.948746   7.218518   6.644474
    39  H    8.129684   8.538155   7.816280   6.902081   7.363867
    40  H    8.734595   8.929472   8.747147   7.861591   7.874297
                   11         12         13         14         15
    11  C    0.000000
    12  H    1.094685   0.000000
    13  H    1.093768   1.766576   0.000000
    14  H    1.089491   1.788771   1.776538   0.000000
    15  C    4.456231   5.526074   4.493112   4.200149   0.000000
    16  H    5.413295   6.485777   5.344173   5.242504   1.094400
    17  H    4.228552   5.224458   4.470845   4.074138   1.093790
    18  H    4.773653   5.819914   4.901286   4.270135   1.090005
    19  C    2.592202   2.879117   2.872658   3.493972   4.745310
    20  C    3.865544   4.181337   4.204767   4.627889   4.956435
    21  C    2.984379   2.972847   2.914279   4.054457   5.769096
    22  C    5.018794   5.203029   5.216101   5.884562   6.097397
    23  H    4.164331   4.600075   4.644156   4.713427   4.506855
    24  C    4.378825   4.296185   4.246339   5.447863   6.773596
    25  H    2.621612   2.459348   2.342635   3.700502   6.005435
    26  C    5.226176   5.250394   5.233034   6.226970   6.917509
    27  H    5.977435   6.194415   6.220288   6.775863   6.550715
    28  H    5.002536   4.801362   4.729000   6.090674   7.637860
    29  H    6.286123   6.265913   6.246316   7.300243   7.866671
    30  C    3.689906   4.676754   3.191795   3.998070   2.591145
    31  C    3.684649   4.515383   2.837338   4.145200   3.865226
    32  C    4.484838   5.385031   4.154401   4.928844   2.984120
    33  C    4.459131   5.087030   3.589212   5.145135   5.018466
    34  H    3.567172   4.366636   2.601816   3.861329   4.163999
    35  C    5.136571   5.868278   4.696615   5.792766   4.378250
    36  H    4.937699   5.861412   4.811682   5.259145   2.621091
    37  C    5.123916   5.732073   4.456774   5.885090   5.225418
    38  H    4.899746   5.373714   3.923927   5.615549   5.977183
    39  H    5.955164   6.630860   5.623920   6.635220   5.001870
    40  H    5.939835   6.420023   5.269204   6.781955   6.284977
                   16         17         18         19         20
    16  H    0.000000
    17  H    1.770739   0.000000
    18  H    1.787537   1.779990   0.000000
    19  C    5.400373   4.138563   5.485799   0.000000
    20  C    5.436482   4.156928   5.780402   1.405216   0.000000
    21  C    6.376936   5.324552   6.530796   1.403205   2.422365
    22  C    6.424349   5.336586   7.001536   2.427260   1.390396
    23  H    4.973054   3.563788   5.268112   2.146293   1.084374
    24  C    7.235677   6.288233   7.632640   2.426075   2.791593
    25  H    6.686401   5.709772   6.671156   2.165118   3.410594
    26  C    7.258439   6.295088   7.840097   2.801295   2.414686
    27  H    6.762240   5.722779   7.464453   3.410449   2.149827
    28  H    8.085570   7.237135   8.490308   3.407905   3.877010
    29  H    8.124769   7.250265   8.822778   3.887210   3.398320
    30  C    2.860874   2.886095   3.491451   3.582994   4.111306
    31  C    4.170664   4.211695   4.624687   3.849529   4.666190
    32  C    2.943842   2.942176   4.054859   3.500820   3.544921
    33  C    5.191234   5.224933   5.881925   4.022016   4.720762
    34  H    4.594361   4.645394   4.709002   4.410615   5.412856
    35  C    4.271978   4.269268   5.447714   3.683314   3.610111
    36  H    2.422541   2.380057   3.702475   3.852518   3.588602
    37  C    5.233526   5.247300   6.225280   3.936701   4.225426
    38  H    6.186193   6.225435   6.772710   4.680296   5.501186
    39  H    4.776671   4.753497   6.091378   4.144796   3.706064
    40  H    6.250833   6.258395   7.298261   4.544331   4.726761
                   21         22         23         24         25
    21  C    0.000000
    22  C    2.795878   0.000000
    23  H    3.397457   2.158675   0.000000
    24  C    1.394613   2.421565   3.875796   0.000000
    25  H    1.083972   3.879765   4.298408   2.144098   0.000000
    26  C    2.417821   1.399239   3.404606   1.396168   3.394776
    27  H    3.881524   1.085646   2.491092   3.405476   4.965400
    28  H    2.151031   3.406097   4.961186   1.085430   2.463390
    29  H    3.401177   2.157790   4.303890   2.154663   4.288653
    30  C    4.067859   4.958899   4.255697   4.920138   4.201157
    31  C    3.844913   5.350451   5.085581   4.648479   3.689042
    32  C    4.092861   4.165185   3.633283   4.636296   4.552698
    33  C    3.639435   5.047872   5.351072   4.049672   3.557341
    34  H    4.340985   6.198493   5.814308   5.286398   3.931641
    35  C    3.893008   3.761146   3.991832   4.027187   4.440023
    36  H    4.711832   4.270144   3.362988   5.245937   5.288427
    37  C    3.657284   4.262443   4.859117   3.692980   3.956959
    38  H    4.011080   5.730478   6.231481   4.315328   3.704967
    39  H    4.404036   3.551502   4.022211   4.267899   5.116848
    40  H    4.033371   4.449115   5.464696   3.695857   4.360009
                   26         27         28         29         30
    26  C    0.000000
    27  H    2.158627   0.000000
    28  H    2.156220   4.303413   0.000000
    29  H    1.085917   2.486313   2.483402   0.000000
    30  C    5.314052   5.650624   5.586878   6.198187   0.000000
    31  C    5.341594   6.181963   5.070298   6.168819   1.405791
    32  C    4.669758   4.668557   5.397443   5.451455   1.403314
    33  C    4.745045   5.868810   4.274819   5.401581   2.427702
    34  H    6.142852   7.087849   5.619909   7.001850   2.146878
    35  C    3.965084   4.238654   4.649873   4.556912   2.426030
    36  H    5.055170   4.572733   6.113885   5.823991   2.164892
    37  C    4.004409   4.923349   4.020203   4.522101   2.801255
    38  H    5.195085   6.599364   4.272878   5.758652   3.410888
    39  H    3.851542   3.767060   4.911413   4.258468   3.407419
    40  H    3.926827   5.037033   3.800782   4.194877   3.886779
                   31         32         33         34         35
    31  C    0.000000
    32  C    2.422518   0.000000
    33  C    1.390388   2.795683   0.000000
    34  H    1.084569   3.397825   2.158957   0.000000
    35  C    2.791489   1.394166   2.421330   3.875904   0.000000
    36  H    3.410727   1.084065   3.879608   4.298730   2.143830
    37  C    2.414497   2.417137   1.399155   3.404709   1.395739
    38  H    2.149791   3.881242   1.085560   2.491400   3.405101
    39  H    3.876400   2.150382   3.405246   4.960784   1.084991
    40  H    3.397813   3.400040   2.157429   4.303719   2.153831
                   36         37         38         39         40
    36  H    0.000000
    37  C    3.394154   0.000000
    38  H    4.965149   2.158517   0.000000
    39  H    2.463035   2.155215   4.302357   0.000000
    40  H    4.287495   1.085589   2.486066   2.481927   0.000000
 Stoichiometry    C16H20N2O2
 Framework group  C1[X(C16H20N2O2)]
 Deg. of freedom   114
 Full point group                 C1      NOp   1
 Largest Abelian subgroup         C1      NOp   1
 Largest concise Abelian subgroup C1      NOp   1
                         Standard orientation:                         
 ---------------------------------------------------------------------
 Center     Atomic      Atomic             Coordinates (Angstroms)
 Number     Number       Type             X           Y           Z
 ---------------------------------------------------------------------
      1          6           0        0.354292   -1.479367   -0.300682
      2          1           0        4.618022   -1.283283    1.298049
      3          6           0        1.789590    1.486036    0.313703
      4          8           0        2.516551    1.447090   -0.678564
      5          8           0        1.087393   -1.591673    0.682724
      6          7           0        4.641778   -0.832169   -0.640352
      7          1           0        4.542537   -1.382863   -1.490021
      8          7           0        4.216729   -1.684188    0.453524
      9          1           0        3.201097   -1.640852    0.567673
     10          1           0        4.015195   -0.029334   -0.735132
     11          6           0        0.944413   -1.344207   -1.686276
     12          1           0        0.596890   -2.155483   -2.333883
     13          1           0        0.629864   -0.399910   -2.139806
     14          1           0        2.031853   -1.359962   -1.621332
     15          6           0        2.344620    1.203121    1.691376
     16          1           0        2.133242    2.030138    2.376266
     17          1           0        1.877621    0.300528    2.095869
     18          1           0        3.421182    1.048234    1.619719
     19          6           0       -1.127817   -1.466906   -0.133755
     20          6           0       -1.661066   -1.665472    1.151099
     21          6           0       -2.000025   -1.243915   -1.210097
     22          6           0       -3.036203   -1.645070    1.355511
     23          1           0       -0.976966   -1.829640    1.976279
     24          6           0       -3.378972   -1.217805   -1.003288
     25          1           0       -1.611000   -1.079441   -2.208397
     26          6           0       -3.898430   -1.419016    0.276932
     27          1           0       -3.439469   -1.800289    2.351458
     28          1           0       -4.046348   -1.037619   -1.840128
     29          1           0       -4.972479   -1.398392    0.435704
     30          6           0        0.335793    1.789979    0.163553
     31          6           0       -0.151912    2.126260   -1.111322
     32          6           0       -0.562152    1.703684    1.238513
     33          6           0       -1.508064    2.360762   -1.308906
     34          1           0        0.551512    2.192584   -1.934174
     35          6           0       -1.922581    1.933380    1.038083
     36          1           0       -0.210412    1.435119    2.228133
     37          6           0       -2.397359    2.258132   -0.233613
     38          1           0       -1.876758    2.614901   -2.297804
     39          1           0       -2.612881    1.843333    1.870299
     40          1           0       -3.458570    2.425814   -0.389234
 ---------------------------------------------------------------------
 Rotational constants (GHZ):           0.4970317           0.2618455           0.2147225
 Leave Link  202 at Fri May 10 00:43:18 2019, MaxMem=   104857600 cpu:               0.9 elap:               0.1
 (Enter /opt/software/gaussian/g16.b01/l301.exe)
 Standard basis: 6-31G(d,p) (6D, 7F)
 Ernie: Thresh=  0.10000D-02 Tol=  0.10000D-05 Strict=F.
 There are   400 symmetry adapted cartesian basis functions of A   symmetry.
 There are   400 symmetry adapted basis functions of A   symmetry.
   400 basis functions,   700 primitive gaussians,   400 cartesian basis functions
    73 alpha electrons       73 beta electrons
       nuclear repulsion energy      1570.5520442434 Hartrees.
 IExCor=  402 DFT=T Ex+Corr=B3LYP ExCW=0 ScaHFX=  0.200000
 ScaDFX=  0.800000  0.720000  1.000000  0.810000 ScalE2=  1.000000  1.000000
 IRadAn=      5 IRanWt=     -1 IRanGd=            0 ICorTp=0 IEmpDi=131
 NAtoms=   40 NActive=   40 NUniq=   40 SFac= 1.00D+00 NAtFMM=   60 NAOKFM=F Big=F
 Integral buffers will be    131072 words long.
 Raffenetti 2 integral format.
 Two-electron integral symmetry is turned on.
 R6Disp:  Grimme-D3 Dispersion energy=       -0.0479907269 Hartrees.
 Nuclear repulsion after empirical dispersion term =     1570.5040535165 Hartrees.
 ------------------------------------------------------------------------------
 Polarizable Continuum Model (PCM)
 =================================
 Model                : PCM.
 Atomic radii         : UFF (Universal Force Field).
 Polarization charges : Total charges.
 Charge compensation  : None.
 Solution method      : On-the-fly selection.
 Cavity type          : Scaled VdW (van der Waals Surface) (Alpha=1.100).
 Cavity algorithm     : GePol (No added spheres)
                        Default sphere list used, NSphG=   40.
                        Lebedev-Laikov grids with approx.  5.0 points / Ang**2.
                        Smoothing algorithm: York/Karplus (Gamma=1.0000).
                        Polarization charges: spherical gaussians, with
                                              point-specific exponents (IZeta= 3).
                        Self-potential: point-specific (ISelfS= 7).
                        Self-field    : sphere-specific E.n sum rule (ISelfD= 2).
 1st derivatives      : Analytical E(r).r(x)/FMM algorithm (CHGder, D1EAlg=3).
                        Cavity 1st derivative terms included.
 Solvent              : Acetonitrile, Eps=  35.688000 Eps(inf)=   1.806874
 ------------------------------------------------------------------------------
 GePol: Number of generator spheres                  =      40
 GePol: Total number of spheres                      =      40
 GePol: Number of exposed spheres                    =      40 (100.00%)
 GePol: Number of points                             =    2729
 GePol: Average weight of points                     =       0.13
 GePol: Minimum weight of points                     =   0.45D-10
 GePol: Maximum weight of points                     =    0.20577
 GePol: Number of points with low weight             =     210
 GePol: Fraction of low-weight points (<1% of avg)   =       7.70%
 GePol: Cavity surface area                          =    347.345 Ang**2
 GePol: Cavity volume                                =    412.341 Ang**3
 Leave Link  301 at Fri May 10 00:43:18 2019, MaxMem=   104857600 cpu:               4.7 elap:               0.2
 (Enter /opt/software/gaussian/g16.b01/l302.exe)
 NPDir=0 NMtPBC=     1 NCelOv=     1 NCel=       1 NClECP=     1 NCelD=      1
         NCelK=      1 NCelE2=     1 NClLst=     1 CellRange=     0.0.
 One-electron integrals computed using PRISM.
 One-electron integral symmetry used in STVInt
 PrsmSu:  requested number of processors reduced to:  27 ShMem   1 Linda.
 NBasis=   400 RedAO= T EigKep=  4.63D-04  NBF=   400
 NBsUse=   400 1.00D-06 EigRej= -1.00D+00 NBFU=   400
 Precomputing XC quadrature grid using
 IXCGrd= 4 IRadAn=           5 IRanWt=          -1 IRanGd=           0 AccXCQ= 0.00D+00.
 Generated NRdTot=       0 NPtTot=           0 NUsed=           0 NTot=          32
 NSgBfM=   399   399   399   399   399 MxSgAt=    40 MxSgA2=    40.
 Leave Link  302 at Fri May 10 00:43:19 2019, MaxMem=   104857600 cpu:              18.1 elap:               0.6
 (Enter /opt/software/gaussian/g16.b01/l303.exe)
 DipDrv:  MaxL=1.
 Leave Link  303 at Fri May 10 00:43:19 2019, MaxMem=   104857600 cpu:               2.6 elap:               0.1
 (Enter /opt/software/gaussian/g16.b01/l308.exe)
 Leave Link  308 at Fri May 10 00:43:20 2019, MaxMem=   104857600 cpu:               3.1 elap:               0.1
 (Enter /opt/software/gaussian/g16.b01/l401.exe)
 Core hamiltonian diagonalized for initial guess.
 JPrj=0 DoOrth=F DoCkMO=T.
 Mixing orbitals, IMix= 1 IMixAn=  0 NRI=1 NE=   73 Coef=  7.07106781D-01  7.07106781D-01
 Mixing orbitals, IMix= 1 IMixAn=  0 NRI=1 NE=   73 Coef= -7.07106781D-01  7.07106781D-01
 Initial guess <Sx>= 0.0000 <Sy>= 0.0000 <Sz>= 0.0000 <S**2>= 1.0000 S= 0.6180
 Leave Link  401 at Fri May 10 00:43:20 2019, MaxMem=   104857600 cpu:               6.4 elap:               0.3
 (Enter /opt/software/gaussian/g16.b01/l502.exe)
 Integral symmetry usage will be decided dynamically.
 UHF open shell SCF:
 Using DIIS extrapolation, IDIIS=  1040.
 NGot=   104857600 LenX=   104520454 LenY=   104360013
 Requested convergence on RMS density matrix=1.00D-08 within 128 cycles.
 Requested convergence on MAX density matrix=1.00D-06.
 Requested convergence on             energy=1.00D-06.
 No special actions if energy rises.
 Fock matrices will be formed incrementally for  20 cycles.

 Cycle   1  Pass 1  IDiag  1:
 FoFJK:  IHMeth= 1 ICntrl=       0 DoSepK=F KAlg= 0 I1Cent=           0 FoldK=F
 IRaf= 800000000 NMat=       1 IRICut=       1 DoRegI=T DoRafI=F ISym2E= 0 IDoP0=0 IntGTp=1.
 FoFCou: FMM=F IPFlag=           0 FMFlag=      100000 FMFlg1=           0
         NFxFlg=           0 DoJE=F BraDBF=F KetDBF=F FulRan=T
         wScrn=  0.000000 ICntrl=         0 IOpCl=  1 I1Cent=           0 NGrid=           0
         NMat0=    1 NMatS0=      1 NMatT0=    0 NMatD0=    1 NMtDS0=    0 NMtDT0=    0
 Symmetry not used in FoFCou.
 Inv3:  Mode=1 IEnd=    22342323.
 Iteration    1 A*A^-1 deviation from unit magnitude is 3.55D-15 for    442.
 Iteration    1 A*A^-1 deviation from orthogonality  is 2.27D-15 for   1725    424.
 Iteration    1 A^-1*A deviation from unit magnitude is 2.89D-15 for     71.
 Iteration    1 A^-1*A deviation from orthogonality  is 5.33D-14 for   1915   1890.
 E= -533.657360452147    
 DIIS: error= 3.46D-01 at cycle   1 NSaved=   1.
 NSaved= 1 IEnMin= 1 EnMin= -533.657360452147     IErMin= 1 ErrMin= 3.46D-01
 ErrMax= 3.46D-01  0.00D+00 EMaxC= 1.00D-01 BMatC= 7.26D+02 BMatP= 7.26D+02
 IDIUse=3 WtCom= 0.00D+00 WtEn= 1.00D+00
 Coeff-Com:  0.100D+01
 Coeff-En:   0.100D+01
 Coeff:      0.100D+01
 Gap=    -1.322 Goal=   None    Shift=    0.000
 Gap=     1.491 Goal=   None    Shift=    0.000
 GapD=   -1.322 DampG=0.250 DampE=0.250 DampFc=0.2500 IDamp=-1.
 Damping current iteration by 2.50D-01
 RMSDP=1.10D-01 MaxDP=1.13D+01              OVMax= 9.99D-01

 Cycle   2  Pass 1  IDiag  1:
 RMSU=  1.54D-02    CP:  7.59D-01
 E= -699.145931379052     Delta-E=     -165.488570926905 Rises=F Damp=T
 DIIS: error= 2.50D-01 at cycle   2 NSaved=   2.
 NSaved= 2 IEnMin= 2 EnMin= -699.145931379052     IErMin= 2 ErrMin= 2.50D-01
 ErrMax= 2.50D-01  0.00D+00 EMaxC= 1.00D-01 BMatC= 2.34D+02 BMatP= 7.26D+02
 IDIUse=3 WtCom= 0.00D+00 WtEn= 1.00D+00
 Coeff-Com: -0.116D+01 0.216D+01
 Coeff-En:   0.000D+00 0.100D+01
 Coeff:      0.000D+00 0.100D+01
 Gap=    -0.186 Goal=   None    Shift=    0.000
 Gap=    -0.114 Goal=   None    Shift=    0.000
 RMSDP=1.08D-01 MaxDP=7.93D+00 DE=-1.65D+02 OVMax= 9.99D-01

 Cycle   3  Pass 1  IDiag  1:
 RMSU=  8.79D-02    CP:  1.15D-01  2.15D+00
 E= -737.181425306196     Delta-E=      -38.035493927144 Rises=F Damp=F
 DIIS: error= 1.64D-01 at cycle   3 NSaved=   3.
 NSaved= 3 IEnMin= 3 EnMin= -737.181425306196     IErMin= 3 ErrMin= 1.64D-01
 ErrMax= 1.64D-01  0.00D+00 EMaxC= 1.00D-01 BMatC= 1.80D+02 BMatP= 2.34D+02
 IDIUse=3 WtCom= 0.00D+00 WtEn= 1.00D+00
 EnCoef did   100 forward-backward iterations
 Coeff-Com: -0.996D+00 0.187D+01 0.126D+00
 Coeff-En:   0.332D+00 0.184D-01 0.649D+00
 Coeff:      0.332D+00 0.184D-01 0.649D+00
 Gap=    -0.097 Goal=   None    Shift=    0.000
 Gap=    -0.098 Goal=   None    Shift=    0.000
 RMSDP=9.67D-02 MaxDP=7.01D+00 DE=-3.80D+01 OVMax= 9.98D-01

 Cycle   4  Pass 1  IDiag  1:
 RMSU=  4.14D-02    CP:  1.41D-01  2.66D-01  6.26D-02
 E= -822.492476586463     Delta-E=      -85.311051280267 Rises=F Damp=F
 DIIS: error= 1.17D-01 at cycle   4 NSaved=   4.
 NSaved= 4 IEnMin= 4 EnMin= -822.492476586463     IErMin= 4 ErrMin= 1.17D-01
 ErrMax= 1.17D-01  0.00D+00 EMaxC= 1.00D-01 BMatC= 1.30D+02 BMatP= 1.80D+02
 IDIUse=3 WtCom= 0.00D+00 WtEn= 1.00D+00
 EnCoef did     7 forward-backward iterations
 Coeff-Com: -0.791D+00 0.147D+01 0.120D+00 0.201D+00
 Coeff-En:   0.249D-01 0.000D+00 0.324D+00 0.651D+00
 Coeff:      0.249D-01 0.000D+00 0.324D+00 0.651D+00
 Gap=     0.467 Goal=   None    Shift=    0.000
 Gap=     0.493 Goal=   None    Shift=    0.000
 RMSDP=5.53D-02 MaxDP=2.73D+00 DE=-8.53D+01 OVMax= 9.55D-01

 Cycle   5  Pass 1  IDiag  1:
 RMSU=  4.08D-02    CP:  1.66D-01  2.66D-01  7.70D-02  1.02D-01
 E= -717.938527432583     Delta-E=      104.553949153880 Rises=F Damp=F
 DIIS: error= 2.39D-01 at cycle   5 NSaved=   5.
 NSaved= 5 IEnMin= 4 EnMin= -822.492476586463     IErMin= 4 ErrMin= 1.17D-01
 ErrMax= 2.39D-01  0.00D+00 EMaxC= 1.00D-01 BMatC= 3.35D+02 BMatP= 1.30D+02
 IDIUse=2 WtCom= 0.00D+00 WtEn= 1.00D+00
 EnCoef did     5 forward-backward iterations
 Coeff-En:   0.000D+00 0.000D+00 0.197D+00 0.580D+00 0.223D+00
 Coeff:      0.000D+00 0.000D+00 0.197D+00 0.580D+00 0.223D+00
 Gap=    -0.208 Goal=   None    Shift=    0.000
 Gap=    -0.227 Goal=   None    Shift=    0.000
 RMSDP=4.13D-02 MaxDP=2.83D+00 DE= 1.05D+02 OVMax= 9.93D-01

 Cycle   6  Pass 1  IDiag  1:
 RMSU=  1.44D-02    CP:  4.01D-02  2.06D-01  2.82D-02  9.65D-02  1.04D-01
 E= -875.069367876128     Delta-E=     -157.130840443544 Rises=F Damp=F
 DIIS: error= 9.13D-02 at cycle   6 NSaved=   6.
 NSaved= 6 IEnMin= 6 EnMin= -875.069367876128     IErMin= 6 ErrMin= 9.13D-02
 ErrMax= 9.13D-02  0.00D+00 EMaxC= 1.00D-01 BMatC= 1.72D+01 BMatP= 1.30D+02
 IDIUse=3 WtCom= 8.71D-02 WtEn= 9.13D-01
 Coeff-Com: -0.232D+00 0.434D+00 0.217D-02 0.157D+00 0.107D-01 0.629D+00
 Coeff-En:   0.000D+00 0.000D+00 0.000D+00 0.102D+00 0.000D+00 0.898D+00
 Coeff:     -0.202D-01 0.378D-01 0.189D-03 0.107D+00 0.928D-03 0.875D+00
 Gap=    -0.611 Goal=   None    Shift=    0.000
 Gap=    -0.615 Goal=   None    Shift=    0.000
 RMSDP=1.58D-02 MaxDP=1.38D+00 DE=-1.57D+02 OVMax= 9.82D-01

 Cycle   7  Pass 1  IDiag  1:
 RMSU=  1.45D-02    CP:  3.88D-02  3.74D-01  2.98D-02  1.58D-01  5.81D-02
                    CP:  6.66D-01
 E= -858.404813737118     Delta-E=       16.664554139010 Rises=F Damp=F
 DIIS: error= 1.68D-01 at cycle   7 NSaved=   7.
 NSaved= 7 IEnMin= 6 EnMin= -875.069367876128     IErMin= 6 ErrMin= 9.13D-02
 ErrMax= 1.68D-01  0.00D+00 EMaxC= 1.00D-01 BMatC= 5.79D+01 BMatP= 1.72D+01
 IDIUse=2 WtCom= 0.00D+00 WtEn= 1.00D+00
 Coeff-En:   0.000D+00 0.000D+00 0.000D+00 0.000D+00 0.000D+00 0.722D+00
 Coeff-En:   0.278D+00
 Coeff:      0.000D+00 0.000D+00 0.000D+00 0.000D+00 0.000D+00 0.722D+00
 Coeff:      0.278D+00
 Gap=    -0.005 Goal=   None    Shift=    0.000
 Gap=    -0.005 Goal=   None    Shift=    0.000
 RMSDP=1.35D-02 MaxDP=1.45D+00 DE= 1.67D+01 OVMax= 9.79D-01

 Cycle   8  Pass 1  IDiag  1:
 RMSU=  7.33D-03    CP:  3.79D-02  1.67D-01  1.29D-02  1.21D-01  7.84D-02
                    CP:  7.59D-01  2.70D-01
 E= -876.478100010936     Delta-E=      -18.073286273818 Rises=F Damp=F
 DIIS: error= 6.83D-02 at cycle   8 NSaved=   8.
 NSaved= 8 IEnMin= 8 EnMin= -876.478100010936     IErMin= 8 ErrMin= 6.83D-02
 ErrMax= 6.83D-02  0.00D+00 EMaxC= 1.00D-01 BMatC= 1.33D+01 BMatP= 1.72D+01
 IDIUse=3 WtCom= 3.17D-01 WtEn= 6.83D-01
 EnCoef did     3 forward-backward iterations
 Coeff-Com: -0.589D-01 0.102D+00-0.475D-02-0.100D-03 0.530D-02 0.438D+00
 Coeff-Com:  0.956D-01 0.423D+00
 Coeff-En:   0.000D+00 0.000D+00 0.000D+00 0.000D+00 0.000D+00 0.464D+00
 Coeff-En:   0.542D-01 0.482D+00
 Coeff:     -0.187D-01 0.323D-01-0.151D-02-0.318D-04 0.168D-02 0.456D+00
 Coeff:      0.673D-01 0.463D+00
 Gap=    -0.638 Goal=   None    Shift=    0.000
 Gap=    -0.639 Goal=   None    Shift=    0.000
 RMSDP=7.14D-03 MaxDP=5.09D-01 DE=-1.81D+01 OVMax= 7.88D-01

 Cycle   9  Pass 1  IDiag  1:
 RMSU=  5.17D-03    CP:  3.67D-02  1.80D-01  2.25D-02  1.11D-01  8.57D-02
                    CP:  8.54D-01  2.23D-01  3.76D-01
 E= -878.843808351923     Delta-E=       -2.365708340988 Rises=F Damp=F
 DIIS: error= 5.16D-02 at cycle   9 NSaved=   9.
 NSaved= 9 IEnMin= 9 EnMin= -878.843808351923     IErMin= 9 ErrMin= 5.16D-02
 ErrMax= 5.16D-02  0.00D+00 EMaxC= 1.00D-01 BMatC= 8.01D+00 BMatP= 1.33D+01
 IDIUse=3 WtCom= 4.84D-01 WtEn= 5.16D-01
 EnCoef did     4 forward-backward iterations
 Coeff-Com: -0.357D-01 0.645D-01-0.742D-02-0.138D-01-0.574D-02 0.260D+00
 Coeff-Com:  0.141D-01 0.382D+00 0.342D+00
 Coeff-En:   0.000D+00 0.000D+00 0.000D+00 0.000D+00 0.000D+00 0.142D+00
 Coeff-En:   0.000D+00 0.354D+00 0.504D+00
 Coeff:     -0.173D-01 0.312D-01-0.360D-02-0.666D-02-0.278D-02 0.199D+00
 Coeff:      0.683D-02 0.368D+00 0.425D+00
 Gap=     0.189 Goal=   None    Shift=    0.000
 Gap=     0.189 Goal=   None    Shift=    0.000
 RMSDP=4.65D-03 MaxDP=3.59D-01 DE=-2.37D+00 OVMax= 7.91D-01

 Cycle  10  Pass 1  IDiag  1:
 RMSU=  2.97D-03    CP:  3.51D-02  1.76D-01  1.63D-02  1.04D-01  7.99D-02
                    CP:  8.37D-01  2.02D-01  5.49D-01  3.71D-01
 E= -881.661523641445     Delta-E=       -2.817715289521 Rises=F Damp=F
 DIIS: error= 1.13D-02 at cycle  10 NSaved=  10.
 NSaved=10 IEnMin=10 EnMin= -881.661523641445     IErMin=10 ErrMin= 1.13D-02
 ErrMax= 1.13D-02  0.00D+00 EMaxC= 1.00D-01 BMatC= 4.04D-01 BMatP= 8.01D+00
 IDIUse=3 WtCom= 8.87D-01 WtEn= 1.13D-01
 Coeff-Com: -0.630D-02 0.141D-01-0.392D-02 0.160D-02 0.826D-03-0.341D-02
 Coeff-Com:  0.769D-03 0.102D+00 0.111D+00 0.783D+00
 Coeff-En:   0.000D+00 0.000D+00 0.000D+00 0.000D+00 0.000D+00 0.000D+00
 Coeff-En:   0.000D+00 0.000D+00 0.000D+00 0.100D+01
 Coeff:     -0.559D-02 0.125D-01-0.348D-02 0.142D-02 0.733D-03-0.303D-02
 Coeff:      0.682D-03 0.905D-01 0.986D-01 0.808D+00
 Gap=     0.229 Goal=   None    Shift=    0.000
 Gap=     0.229 Goal=   None    Shift=    0.000
 RMSDP=1.29D-03 MaxDP=6.03D-02 DE=-2.82D+00 OVMax= 8.12D-02

 Cycle  11  Pass 1  IDiag  1:
 RMSU=  1.19D-03    CP:  3.51D-02  1.71D-01  1.57D-02  1.05D-01  8.00D-02
                    CP:  8.23D-01  2.12D-01  5.94D-01  3.97D-01  9.17D-01
 E= -881.706775401001     Delta-E=       -0.045251759556 Rises=F Damp=F
 DIIS: error= 8.02D-03 at cycle  11 NSaved=  11.
 NSaved=11 IEnMin=11 EnMin= -881.706775401001     IErMin=11 ErrMin= 8.02D-03
 ErrMax= 8.02D-03  0.00D+00 EMaxC= 1.00D-01 BMatC= 2.26D-01 BMatP= 4.04D-01
 IDIUse=3 WtCom= 9.20D-01 WtEn= 8.02D-02
 Coeff-Com: -0.895D-03 0.279D-02-0.811D-03 0.193D-03 0.996D-03-0.247D-01
 Coeff-Com:  0.404D-02 0.378D-01 0.139D-01 0.471D+00 0.496D+00
 Coeff-En:   0.000D+00 0.000D+00 0.000D+00 0.000D+00 0.000D+00 0.000D+00
 Coeff-En:   0.000D+00 0.000D+00 0.000D+00 0.310D+00 0.690D+00
 Coeff:     -0.823D-03 0.257D-02-0.746D-03 0.177D-03 0.917D-03-0.228D-01
 Coeff:      0.371D-02 0.348D-01 0.128D-01 0.458D+00 0.511D+00
 Gap=     0.148 Goal=   None    Shift=    0.000
 Gap=     0.148 Goal=   None    Shift=    0.000
 RMSDP=6.75D-04 MaxDP=4.16D-02 DE=-4.53D-02 OVMax= 5.75D-02

 Cycle  12  Pass 1  IDiag  1:
 RMSU=  4.69D-04    CP:  3.50D-02  1.71D-01  1.53D-02  1.05D-01  8.01D-02
                    CP:  8.23D-01  2.14D-01  6.00D-01  3.68D-01  9.51D-01
                    CP:  6.25D-01
 E= -881.751263864839     Delta-E=       -0.044488463838 Rises=F Damp=F
 DIIS: error= 3.69D-03 at cycle  12 NSaved=  12.
 NSaved=12 IEnMin=12 EnMin= -881.751263864839     IErMin=12 ErrMin= 3.69D-03
 ErrMax= 3.69D-03  0.00D+00 EMaxC= 1.00D-01 BMatC= 3.32D-02 BMatP= 2.26D-01
 IDIUse=3 WtCom= 9.63D-01 WtEn= 3.69D-02
 Coeff-Com:  0.272D-04-0.269D-03 0.231D-03-0.530D-03 0.177D-03-0.155D-01
 Coeff-Com:  0.356D-02 0.140D-01-0.283D-02 0.175D+00 0.290D+00 0.536D+00
 Coeff-En:   0.000D+00 0.000D+00 0.000D+00 0.000D+00 0.000D+00 0.000D+00
 Coeff-En:   0.000D+00 0.000D+00 0.000D+00 0.000D+00 0.427D-01 0.957D+00
 Coeff:      0.262D-04-0.259D-03 0.223D-03-0.510D-03 0.170D-03-0.149D-01
 Coeff:      0.343D-02 0.135D-01-0.273D-02 0.169D+00 0.281D+00 0.551D+00
 Gap=     0.157 Goal=   None    Shift=    0.000
 Gap=     0.157 Goal=   None    Shift=    0.000
 RMSDP=2.84D-04 MaxDP=1.98D-02 DE=-4.45D-02 OVMax= 2.29D-02

 Cycle  13  Pass 1  IDiag  1:
 RMSU=  1.79D-04    CP:  3.50D-02  1.72D-01  1.53D-02  1.05D-01  7.98D-02
                    CP:  8.22D-01  2.15D-01  6.02D-01  3.68D-01  9.46D-01
                    CP:  6.74D-01  5.52D-01
 E= -881.757171154185     Delta-E=       -0.005907289346 Rises=F Damp=F
 DIIS: error= 1.42D-03 at cycle  13 NSaved=  13.
 NSaved=13 IEnMin=13 EnMin= -881.757171154185     IErMin=13 ErrMin= 1.42D-03
 ErrMax= 1.42D-03  0.00D+00 EMaxC= 1.00D-01 BMatC= 7.22D-03 BMatP= 3.32D-02
 IDIUse=3 WtCom= 9.86D-01 WtEn= 1.42D-02
 Coeff-Com:  0.106D-03-0.423D-03 0.327D-03 0.174D-03-0.601D-03-0.742D-02
 Coeff-Com:  0.123D-02 0.407D-02 0.307D-02 0.470D-01 0.641D-01 0.306D+00
 Coeff-Com:  0.582D+00
 Coeff-En:   0.000D+00 0.000D+00 0.000D+00 0.000D+00 0.000D+00 0.000D+00
 Coeff-En:   0.000D+00 0.000D+00 0.000D+00 0.000D+00 0.000D+00 0.136D+00
 Coeff-En:   0.864D+00
 Coeff:      0.104D-03-0.417D-03 0.322D-03 0.171D-03-0.592D-03-0.732D-02
 Coeff:      0.121D-02 0.402D-02 0.302D-02 0.463D-01 0.632D-01 0.304D+00
 Coeff:      0.586D+00
 Gap=     0.159 Goal=   None    Shift=    0.000
 Gap=     0.159 Goal=   None    Shift=    0.000
 RMSDP=1.13D-04 MaxDP=9.17D-03 DE=-5.91D-03 OVMax= 9.37D-03

 Cycle  14  Pass 1  IDiag  1:
 RMSU=  6.77D-05    CP:  3.50D-02  1.72D-01  1.53D-02  1.05D-01  7.97D-02
                    CP:  8.23D-01  2.15D-01  6.01D-01  3.69D-01  9.45D-01
                    CP:  6.44D-01  6.38D-01  5.99D-01
 E= -881.758373430314     Delta-E=       -0.001202276129 Rises=F Damp=F
 DIIS: error= 6.58D-04 at cycle  14 NSaved=  14.
 NSaved=14 IEnMin=14 EnMin= -881.758373430314     IErMin=14 ErrMin= 6.58D-04
 ErrMax= 6.58D-04  0.00D+00 EMaxC= 1.00D-01 BMatC= 1.40D-03 BMatP= 7.22D-03
 IDIUse=3 WtCom= 9.93D-01 WtEn= 6.58D-03
 Coeff-Com:  0.419D-06-0.333D-04 0.323D-03 0.252D-03-0.322D-03-0.327D-02
 Coeff-Com:  0.387D-03 0.445D-03 0.444D-02-0.423D-02-0.219D-01 0.264D-01
 Coeff-Com:  0.303D+00 0.694D+00
 Coeff-En:   0.000D+00 0.000D+00 0.000D+00 0.000D+00 0.000D+00 0.000D+00
 Coeff-En:   0.000D+00 0.000D+00 0.000D+00 0.000D+00 0.000D+00 0.000D+00
 Coeff-En:   0.641D-01 0.936D+00
 Coeff:      0.416D-06-0.331D-04 0.321D-03 0.250D-03-0.320D-03-0.325D-02
 Coeff:      0.385D-03 0.442D-03 0.441D-02-0.420D-02-0.218D-01 0.262D-01
 Coeff:      0.302D+00 0.696D+00
 Gap=     0.162 Goal=   None    Shift=    0.000
 Gap=     0.162 Goal=   None    Shift=    0.000
 RMSDP=5.25D-05 MaxDP=3.61D-03 DE=-1.20D-03 OVMax= 4.94D-03

 Cycle  15  Pass 1  IDiag  1:
 RMSU=  4.43D-05    CP:  3.50D-02  1.71D-01  1.53D-02  1.05D-01  7.96D-02
                    CP:  8.22D-01  2.15D-01  6.02D-01  3.68D-01  9.42D-01
                    CP:  6.46D-01  6.40D-01  7.27D-01  9.15D-01
 E= -881.758628104963     Delta-E=       -0.000254674649 Rises=F Damp=F
 DIIS: error= 3.16D-04 at cycle  15 NSaved=  15.
 NSaved=15 IEnMin=15 EnMin= -881.758628104963     IErMin=15 ErrMin= 3.16D-04
 ErrMax= 3.16D-04  0.00D+00 EMaxC= 1.00D-01 BMatC= 3.60D-04 BMatP= 1.40D-03
 IDIUse=3 WtCom= 9.97D-01 WtEn= 3.16D-03
 Coeff-Com:  0.164D-04-0.394D-04 0.121D-03 0.156D-04-0.391D-05-0.132D-02
 Coeff-Com:  0.198D-03-0.566D-03 0.344D-02-0.102D-01-0.250D-01-0.699D-01
 Coeff-Com:  0.454D-01 0.390D+00 0.668D+00
 Coeff-En:   0.000D+00 0.000D+00 0.000D+00 0.000D+00 0.000D+00 0.000D+00
 Coeff-En:   0.000D+00 0.000D+00 0.000D+00 0.000D+00 0.000D+00 0.000D+00
 Coeff-En:   0.000D+00 0.000D+00 0.100D+01
 Coeff:      0.164D-04-0.393D-04 0.121D-03 0.156D-04-0.390D-05-0.131D-02
 Coeff:      0.197D-03-0.564D-03 0.343D-02-0.101D-01-0.249D-01-0.696D-01
 Coeff:      0.452D-01 0.389D+00 0.669D+00
 Gap=     0.164 Goal=   None    Shift=    0.000
 Gap=     0.164 Goal=   None    Shift=    0.000
 RMSDP=2.77D-05 MaxDP=1.71D-03 DE=-2.55D-04 OVMax= 2.27D-03

 Cycle  16  Pass 1  IDiag  1:
 RMSU=  2.01D-05    CP:  3.50D-02  1.72D-01  1.53D-02  1.05D-01  7.96D-02
                    CP:  8.22D-01  2.15D-01  6.02D-01  3.69D-01  9.41D-01
                    CP:  6.43D-01  6.25D-01  7.70D-01  1.05D+00  7.67D-01
 E= -881.758688489512     Delta-E=       -0.000060384548 Rises=F Damp=F
 DIIS: error= 1.61D-04 at cycle  16 NSaved=  16.
 NSaved=16 IEnMin=16 EnMin= -881.758688489512     IErMin=16 ErrMin= 1.61D-04
 ErrMax= 1.61D-04  0.00D+00 EMaxC= 1.00D-01 BMatC= 8.83D-05 BMatP= 3.60D-04
 IDIUse=3 WtCom= 9.98D-01 WtEn= 1.61D-03
 Coeff-Com: -0.827D-05 0.149D-04 0.301D-04-0.718D-05 0.124D-04-0.816D-03
 Coeff-Com:  0.548D-04-0.317D-03 0.209D-02-0.827D-03-0.271D-02-0.333D-01
 Coeff-Com: -0.219D-01 0.107D+00 0.368D+00 0.582D+00
 Coeff-En:   0.000D+00 0.000D+00 0.000D+00 0.000D+00 0.000D+00 0.000D+00
 Coeff-En:   0.000D+00 0.000D+00 0.000D+00 0.000D+00 0.000D+00 0.000D+00
 Coeff-En:   0.000D+00 0.000D+00 0.512D-01 0.949D+00
 Coeff:     -0.825D-05 0.148D-04 0.300D-04-0.717D-05 0.124D-04-0.814D-03
 Coeff:      0.547D-04-0.316D-03 0.209D-02-0.826D-03-0.271D-02-0.333D-01
 Coeff:     -0.218D-01 0.107D+00 0.368D+00 0.583D+00
 Gap=     0.164 Goal=   None    Shift=    0.000
 Gap=     0.164 Goal=   None    Shift=    0.000
 RMSDP=1.22D-05 MaxDP=6.32D-04 DE=-6.04D-05 OVMax= 9.53D-04

 Cycle  17  Pass 1  IDiag  1:
 RMSU=  7.47D-06    CP:  3.50D-02  1.72D-01  1.53D-02  1.05D-01  7.96D-02
                    CP:  8.22D-01  2.15D-01  6.02D-01  3.70D-01  9.41D-01
                    CP:  6.42D-01  6.19D-01  7.53D-01  1.05D+00  8.46D-01
                    CP:  6.71D-01
 E= -881.758707767109     Delta-E=       -0.000019277597 Rises=F Damp=F
 DIIS: error= 4.82D-05 at cycle  17 NSaved=  17.
 NSaved=17 IEnMin=17 EnMin= -881.758707767109     IErMin=17 ErrMin= 4.82D-05
 ErrMax= 4.82D-05  0.00D+00 EMaxC= 1.00D-01 BMatC= 1.53D-05 BMatP= 8.83D-05
 IDIUse=1 WtCom= 1.00D+00 WtEn= 0.00D+00
 Coeff-Com:  0.843D-05-0.202D-04-0.349D-05 0.158D-05-0.239D-05-0.960D-04
 Coeff-Com:  0.691D-05-0.251D-03 0.426D-03 0.167D-02 0.688D-02 0.380D-02
 Coeff-Com: -0.286D-01-0.531D-01 0.209D-02 0.309D+00 0.758D+00
 Coeff:      0.843D-05-0.202D-04-0.349D-05 0.158D-05-0.239D-05-0.960D-04
 Coeff:      0.691D-05-0.251D-03 0.426D-03 0.167D-02 0.688D-02 0.380D-02
 Coeff:     -0.286D-01-0.531D-01 0.209D-02 0.309D+00 0.758D+00
 Gap=     0.165 Goal=   None    Shift=    0.000
 Gap=     0.165 Goal=   None    Shift=    0.000
 RMSDP=5.87D-06 MaxDP=2.38D-04 DE=-1.93D-05 OVMax= 2.91D-04

 Cycle  18  Pass 1  IDiag  1:
 RMSU=  3.48D-06    CP:  3.50D-02  1.71D-01  1.53D-02  1.05D-01  7.96D-02
                    CP:  8.22D-01  2.15D-01  6.01D-01  3.70D-01  9.40D-01
                    CP:  6.43D-01  6.21D-01  7.48D-01  1.06D+00  8.78D-01
                    CP:  8.41D-01  8.99D-01
 E= -881.758711256194     Delta-E=       -0.000003489085 Rises=F Damp=F
 DIIS: error= 1.92D-05 at cycle  18 NSaved=  18.
 NSaved=18 IEnMin=18 EnMin= -881.758711256194     IErMin=18 ErrMin= 1.92D-05
 ErrMax= 1.92D-05  0.00D+00 EMaxC= 1.00D-01 BMatC= 1.41D-06 BMatP= 1.53D-05
 IDIUse=1 WtCom= 1.00D+00 WtEn= 0.00D+00
 Coeff-Com: -0.332D-05 0.411D-05-0.674D-06 0.246D-05-0.245D-05-0.114D-04
 Coeff-Com:  0.606D-06-0.603D-04 0.907D-04 0.118D-02 0.427D-02 0.509D-02
 Coeff-Com: -0.122D-01-0.335D-01-0.285D-01 0.790D-01 0.350D+00 0.634D+00
 Coeff:     -0.332D-05 0.411D-05-0.674D-06 0.246D-05-0.245D-05-0.114D-04
 Coeff:      0.606D-06-0.603D-04 0.907D-04 0.118D-02 0.427D-02 0.509D-02
 Coeff:     -0.122D-01-0.335D-01-0.285D-01 0.790D-01 0.350D+00 0.634D+00
 Gap=     0.165 Goal=   None    Shift=    0.000
 Gap=     0.165 Goal=   None    Shift=    0.000
 RMSDP=1.97D-06 MaxDP=8.41D-05 DE=-3.49D-06 OVMax= 2.31D-04

 Cycle  19  Pass 1  IDiag  1:
 RMSU=  1.49D-06    CP:  3.50D-02  1.72D-01  1.53D-02  1.05D-01  7.96D-02
                    CP:  8.22D-01  2.15D-01  6.01D-01  3.70D-01  9.40D-01
                    CP:  6.43D-01  6.20D-01  7.45D-01  1.06D+00  8.79D-01
                    CP:  8.45D-01  9.70D-01  9.05D-01
 E= -881.758711597322     Delta-E=       -0.000000341128 Rises=F Damp=F
 DIIS: error= 5.79D-06 at cycle  19 NSaved=  19.
 NSaved=19 IEnMin=19 EnMin= -881.758711597322     IErMin=19 ErrMin= 5.79D-06
 ErrMax= 5.79D-06  0.00D+00 EMaxC= 1.00D-01 BMatC= 1.76D-07 BMatP= 1.41D-06
 IDIUse=1 WtCom= 1.00D+00 WtEn= 0.00D+00
 Coeff-Com: -0.335D-06 0.392D-06 0.650D-06-0.115D-06-0.534D-06 0.390D-05
 Coeff-Com:  0.410D-06-0.837D-05-0.467D-05 0.176D-03 0.940D-03 0.149D-02
 Coeff-Com: -0.188D-02-0.804D-02-0.130D-01-0.729D-02 0.607D-01 0.320D+00
 Coeff-Com:  0.647D+00
 Coeff:     -0.335D-06 0.392D-06 0.650D-06-0.115D-06-0.534D-06 0.390D-05
 Coeff:      0.410D-06-0.837D-05-0.467D-05 0.176D-03 0.940D-03 0.149D-02
 Coeff:     -0.188D-02-0.804D-02-0.130D-01-0.729D-02 0.607D-01 0.320D+00
 Coeff:      0.647D+00
 Gap=     0.165 Goal=   None    Shift=    0.000
 Gap=     0.165 Goal=   None    Shift=    0.000
 RMSDP=6.11D-07 MaxDP=3.31D-05 DE=-3.41D-07 OVMax= 6.57D-05

 Cycle  20  Pass 1  IDiag  1:
 RMSU=  4.34D-07    CP:  3.50D-02  1.72D-01  1.53D-02  1.05D-01  7.96D-02
                    CP:  8.22D-01  2.15D-01  6.01D-01  3.70D-01  9.40D-01
                    CP:  6.43D-01  6.20D-01  7.45D-01  1.06D+00  8.81D-01
                    CP:  8.46D-01  9.86D-01  9.67D-01  7.87D-01
 E= -881.758711635372     Delta-E=       -0.000000038050 Rises=F Damp=F
 DIIS: error= 2.80D-06 at cycle  20 NSaved=  20.
 NSaved=20 IEnMin=20 EnMin= -881.758711635372     IErMin=20 ErrMin= 2.80D-06
 ErrMax= 2.80D-06  0.00D+00 EMaxC= 1.00D-01 BMatC= 2.10D-08 BMatP= 1.76D-07
 IDIUse=1 WtCom= 1.00D+00 WtEn= 0.00D+00
 Coeff-Com:  0.498D-06-0.866D-06 0.508D-06-0.203D-06-0.546D-07 0.652D-06
 Coeff-Com:  0.334D-06-0.208D-05-0.446D-05 0.133D-04 0.225D-03 0.313D-03
 Coeff-Com: -0.406D-03-0.187D-02-0.404D-02-0.774D-02 0.112D-01 0.135D+00
 Coeff-Com:  0.355D+00 0.513D+00
 Coeff:      0.498D-06-0.866D-06 0.508D-06-0.203D-06-0.546D-07 0.652D-06
 Coeff:      0.334D-06-0.208D-05-0.446D-05 0.133D-04 0.225D-03 0.313D-03
 Coeff:     -0.406D-03-0.187D-02-0.404D-02-0.774D-02 0.112D-01 0.135D+00
 Coeff:      0.355D+00 0.513D+00
 Gap=     0.165 Goal=   None    Shift=    0.000
 Gap=     0.165 Goal=   None    Shift=    0.000
 RMSDP=2.32D-07 MaxDP=1.04D-05 DE=-3.80D-08 OVMax= 2.56D-05

 Cycle  21  Pass 1  IDiag  1:
 Restarting incremental Fock formation.
 E= -881.758711640734     Delta-E=       -0.000000005363 Rises=F Damp=F
 DIIS: error= 5.91D-07 at cycle  21 NSaved=  20.
 NSaved=20 IEnMin=20 EnMin= -881.758711640734     IErMin=20 ErrMin= 5.91D-07
 ErrMax= 5.91D-07  0.00D+00 EMaxC= 1.00D-01 BMatC= 1.29D-09 BMatP= 2.10D-08
 IDIUse=1 WtCom= 1.00D+00 WtEn= 0.00D+00
 Coeff-Com: -0.129D-07-0.277D-07-0.795D-07-0.372D-07-0.487D-06 0.203D-06
 Coeff-Com:  0.701D-07-0.866D-06 0.294D-05 0.179D-04-0.438D-04-0.500D-04
 Coeff-Com:  0.242D-04-0.221D-03-0.239D-02-0.107D-02 0.274D-01 0.876D-01
 Coeff-Com:  0.233D+00 0.656D+00
 Coeff:     -0.129D-07-0.277D-07-0.795D-07-0.372D-07-0.487D-06 0.203D-06
 Coeff:      0.701D-07-0.866D-06 0.294D-05 0.179D-04-0.438D-04-0.500D-04
 Coeff:      0.242D-04-0.221D-03-0.239D-02-0.107D-02 0.274D-01 0.876D-01
 Coeff:      0.233D+00 0.656D+00
 Gap=     0.165 Goal=   None    Shift=    0.000
 Gap=     0.165 Goal=   None    Shift=    0.000
 RMSDP=5.96D-08 MaxDP=2.47D-06 DE=-5.36D-09 OVMax= 7.16D-06

 Cycle  22  Pass 1  IDiag  1:
 RMSU=  5.96D-08    CP:  1.00D+00
 E= -881.758711641057     Delta-E=       -0.000000000323 Rises=F Damp=F
 DIIS: error= 2.46D-07 at cycle  22 NSaved=  20.
 NSaved=20 IEnMin=20 EnMin= -881.758711641057     IErMin=20 ErrMin= 2.46D-07
 ErrMax= 2.46D-07  0.00D+00 EMaxC= 1.00D-01 BMatC= 1.83D-10 BMatP= 1.29D-09
 IDIUse=1 WtCom= 1.00D+00 WtEn= 0.00D+00
 Coeff-Com: -0.196D-07-0.151D-07 0.975D-08 0.124D-06 0.183D-07 0.185D-06
 Coeff-Com: -0.484D-06-0.477D-05-0.143D-04-0.626D-04-0.151D-04 0.115D-03
 Coeff-Com:  0.242D-03-0.698D-03-0.151D-02 0.438D-02 0.182D-01 0.813D-01
 Coeff-Com:  0.342D+00 0.556D+00
 Coeff:     -0.196D-07-0.151D-07 0.975D-08 0.124D-06 0.183D-07 0.185D-06
 Coeff:     -0.484D-06-0.477D-05-0.143D-04-0.626D-04-0.151D-04 0.115D-03
 Coeff:      0.242D-03-0.698D-03-0.151D-02 0.438D-02 0.182D-01 0.813D-01
 Coeff:      0.342D+00 0.556D+00
 Gap=     0.165 Goal=   None    Shift=    0.000
 Gap=     0.165 Goal=   None    Shift=    0.000
 RMSDP=1.97D-08 MaxDP=1.09D-06 DE=-3.23D-10 OVMax= 2.14D-06

 Cycle  23  Pass 1  IDiag  1:
 RMSU=  1.84D-08    CP:  1.00D+00  8.80D-01
 E= -881.758711641106     Delta-E=       -0.000000000048 Rises=F Damp=F
 DIIS: error= 1.16D-07 at cycle  23 NSaved=  20.
 NSaved=20 IEnMin=20 EnMin= -881.758711641106     IErMin=20 ErrMin= 1.16D-07
 ErrMax= 1.16D-07  0.00D+00 EMaxC= 1.00D-01 BMatC= 1.50D-11 BMatP= 1.83D-10
 IDIUse=1 WtCom= 1.00D+00 WtEn= 0.00D+00
 Coeff-Com: -0.835D-08 0.860D-09 0.359D-07-0.658D-09 0.735D-07-0.368D-08
 Coeff-Com: -0.210D-05-0.553D-05-0.151D-04 0.370D-06 0.178D-04 0.143D-03
 Coeff-Com:  0.139D-03-0.145D-03-0.121D-02-0.510D-02-0.189D-02 0.467D-01
 Coeff-Com:  0.209D+00 0.752D+00
 Coeff:     -0.835D-08 0.860D-09 0.359D-07-0.658D-09 0.735D-07-0.368D-08
 Coeff:     -0.210D-05-0.553D-05-0.151D-04 0.370D-06 0.178D-04 0.143D-03
 Coeff:      0.139D-03-0.145D-03-0.121D-02-0.510D-02-0.189D-02 0.467D-01
 Coeff:      0.209D+00 0.752D+00
 Gap=     0.165 Goal=   None    Shift=    0.000
 Gap=     0.165 Goal=   None    Shift=    0.000
 RMSDP=7.94D-09 MaxDP=6.10D-07 DE=-4.84D-11 OVMax= 1.38D-06

 Error on total polarization charges =  0.00980
 SCF Done:  E(UB3LYP) =  -881.758711641     A.U. after   23 cycles
            NFock= 23  Conv=0.79D-08     -V/T= 2.0096
 <Sx>= 0.0000 <Sy>= 0.0000 <Sz>= 0.0000 <S**2>= 0.0000 S= 0.0000
 <L.S>=  0.00000000000    
 KE= 8.733729548095D+02 PE=-5.190425721690D+03 EE= 1.864790001723D+03
 Annihilation of the first spin contaminant:
 S**2 before annihilation     0.0000,   after     0.0000
 Leave Link  502 at Fri May 10 00:44:32 2019, MaxMem=   104857600 cpu:            2279.8 elap:              72.4
 (Enter /opt/software/gaussian/g16.b01/l801.exe)
 DoSCS=F DFT=T ScalE2(SS,OS)=  1.000000  1.000000
 ExpMin= 1.61D-01 ExpMax= 5.48D+03 ExpMxC= 8.25D+02 IAcc=3 IRadAn=         5 AccDes= 0.00D+00
 HarFok:  IExCor=  205 AccDes= 0.00D+00 IRadAn=         5 IDoV=-2 UseB2=F ITyADJ=14
 ICtDFT= 12500011 ScaDFX=  1.000000  1.000000  1.000000  1.000000
 Largest valence mixing into a core orbital is  5.78D-05
 Largest core mixing into a valence orbital is  1.44D-05
 Largest valence mixing into a core orbital is  5.78D-05
 Largest core mixing into a valence orbital is  1.44D-05
 Range of M.O.s used for correlation:    21   400
 NBasis=   400 NAE=    73 NBE=    73 NFC=    20 NFV=     0
 NROrb=    380 NOA=    53 NOB=    53 NVA=   327 NVB=   327
 Leave Link  801 at Fri May 10 00:44:33 2019, MaxMem=   104857600 cpu:               4.8 elap:               0.2
 (Enter /opt/software/gaussian/g16.b01/l914.exe)
 UHF ground state
 Ignoring spin specification with unrestricted ground state.
 Two-electron integrals replicated using symmetry.
 MDV=   104857600 DFT=T DoStab=F Mixed=T DoRPA=T DoScal=F NonHer=T
 NEqPCM:  Using equilibrium solvation (IEInf=0, Eps=  35.6880, EpsInf=   1.8069)
 Making orbital integer symmetry assigments:
 Orbital symmetries:
 Alpha Orbitals:
       Occupied  (A) (A) (A) (A) (A) (A) (A) (A) (A) (A) (A) (A)
                 (A) (A) (A) (A) (A) (A) (A) (A) (A) (A) (A) (A)
                 (A) (A) (A) (A) (A) (A) (A) (A) (A) (A) (A) (A)
                 (A) (A) (A) (A) (A) (A) (A) (A) (A) (A) (A) (A)
                 (A) (A) (A) (A) (A) (A) (A) (A) (A) (A) (A) (A)
                 (A) (A) (A) (A) (A) (A) (A) (A) (A) (A) (A) (A)
                 (A)
       Virtual   (A) (A) (A) (A) (A) (A) (A) (A) (A) (A) (A) (A)
                 (A) (A) (A) (A) (A) (A) (A) (A) (A) (A) (A) (A)
                 (A) (A) (A) (A) (A) (A) (A) (A) (A) (A) (A) (A)
                 (A) (A) (A) (A) (A) (A) (A) (A) (A) (A) (A) (A)
                 (A) (A) (A) (A) (A) (A) (A) (A) (A) (A) (A) (A)
                 (A) (A) (A) (A) (A) (A) (A) (A) (A) (A) (A) (A)
                 (A) (A) (A) (A) (A) (A) (A) (A) (A) (A) (A) (A)
                 (A) (A) (A) (A) (A) (A) (A) (A) (A) (A) (A) (A)
                 (A) (A) (A) (A) (A) (A) (A) (A) (A) (A) (A) (A)
                 (A) (A) (A) (A) (A) (A) (A) (A) (A) (A) (A) (A)
                 (A) (A) (A) (A) (A) (A) (A) (A) (A) (A) (A) (A)
                 (A) (A) (A) (A) (A) (A) (A) (A) (A) (A) (A) (A)
                 (A) (A) (A) (A) (A) (A) (A) (A) (A) (A) (A) (A)
                 (A) (A) (A) (A) (A) (A) (A) (A) (A) (A) (A) (A)
                 (A) (A) (A) (A) (A) (A) (A) (A) (A) (A) (A) (A)
                 (A) (A) (A) (A) (A) (A) (A) (A) (A) (A) (A) (A)
[...]

 Cycle  14  Pass 1  IDiag  1:
 RMSU=  1.86D-05    CP:  3.47D-02  1.86D-01  1.60D-02  7.93D-02  6.80D-02
                    CP:  8.90D-01  3.56D-01  7.49D-01  4.48D-01  7.42D-01
                    CP:  7.25D-01  5.53D-01  7.23D-01
 E= -881.749035243383     Delta-E=       -0.000042805272 Rises=F Damp=F
 DIIS: error= 2.38D-04 at cycle  14 NSaved=  14.
 NSaved=14 IEnMin=14 EnMin= -881.749035243383     IErMin=14 ErrMin= 2.38D-04
 ErrMax= 2.38D-04  0.00D+00 EMaxC= 1.00D-01 BMatC= 7.62D-05 BMatP= 2.58D-04
 IDIUse=3 WtCom= 9.98D-01 WtEn= 2.38D-03
 Coeff-Com:  0.740D-05-0.274D-04 0.264D-04-0.237D-04 0.287D-05-0.337D-03
 Coeff-Com:  0.137D-03-0.168D-02 0.157D-02-0.660D-03 0.225D-01 0.840D-01
 Coeff-Com:  0.407D+00 0.487D+00
 Coeff-En:   0.000D+00 0.000D+00 0.000D+00 0.000D+00 0.000D+00 0.000D+00
 Coeff-En:   0.000D+00 0.000D+00 0.000D+00 0.000D+00 0.000D+00 0.000D+00
 Coeff-En:   0.117D+00 0.883D+00
 Coeff:      0.739D-05-0.273D-04 0.263D-04-0.236D-04 0.286D-05-0.336D-03
 Coeff:      0.137D-03-0.168D-02 0.157D-02-0.658D-03 0.224D-01 0.838D-01
 Coeff:      0.407D+00 0.488D+00
 Gap=     0.139 Goal=   None    Shift=    0.000
 Gap=     0.139 Goal=   None    Shift=    0.000
 RMSDP=1.20D-05 MaxDP=9.36D-04 DE=-4.28D-05 OVMax= 1.05D-03

 Cycle  15  Pass 1  IDiag  1:
 RMSU=  6.81D-06    CP:  3.47D-02  1.86D-01  1.60D-02  7.92D-02  6.80D-02
                    CP:  8.90D-01  3.56D-01  7.48D-01  4.49D-01  7.41D-01
                    CP:  7.25D-01  5.64D-01  8.07D-01  5.82D-01
 E= -881.749050477461     Delta-E=       -0.000015234079 Rises=F Damp=F
 DIIS: error= 5.86D-05 at cycle  15 NSaved=  15.
 NSaved=15 IEnMin=15 EnMin= -881.749050477461     IErMin=15 ErrMin= 5.86D-05
 ErrMax= 5.86D-05  0.00D+00 EMaxC= 1.00D-01 BMatC= 7.91D-06 BMatP= 7.62D-05
 IDIUse=1 WtCom= 1.00D+00 WtEn= 0.00D+00
 Coeff-Com:  0.132D-05-0.205D-05 0.816D-05 0.417D-05-0.526D-05 0.229D-04
 Coeff-Com:  0.181D-04-0.571D-03 0.676D-03-0.356D-02 0.409D-03 0.277D-01
 Coeff-Com:  0.175D+00 0.289D+00 0.511D+00
 Coeff:      0.132D-05-0.205D-05 0.816D-05 0.417D-05-0.526D-05 0.229D-04
 Coeff:      0.181D-04-0.571D-03 0.676D-03-0.356D-02 0.409D-03 0.277D-01
 Coeff:      0.175D+00 0.289D+00 0.511D+00
 Gap=     0.139 Goal=   None    Shift=    0.000
 Gap=     0.139 Goal=   None    Shift=    0.000
 RMSDP=3.76D-06 MaxDP=1.96D-04 DE=-1.52D-05 OVMax= 2.96D-04

 Cycle  16  Pass 1  IDiag  1:
 RMSU=  1.97D-06    CP:  3.47D-02  1.86D-01  1.60D-02  7.93D-02  6.80D-02
                    CP:  8.90D-01  3.56D-01  7.48D-01  4.49D-01  7.41D-01
                    CP:  7.25D-01  5.67D-01  8.16D-01  6.27D-01  5.80D-01
 E= -881.749052199464     Delta-E=       -0.000001722003 Rises=F Damp=F
 DIIS: error= 1.12D-05 at cycle  16 NSaved=  16.
 NSaved=16 IEnMin=16 EnMin= -881.749052199464     IErMin=16 ErrMin= 1.12D-05
 ErrMax= 1.12D-05  0.00D+00 EMaxC= 1.00D-01 BMatC= 4.11D-07 BMatP= 7.91D-06
 IDIUse=1 WtCom= 1.00D+00 WtEn= 0.00D+00
 Coeff-Com: -0.127D-05 0.284D-05 0.289D-05 0.622D-05-0.418D-05 0.424D-04
 Coeff-Com: -0.975D-05-0.150D-03 0.189D-03-0.143D-02-0.688D-03 0.724D-02
 Coeff-Com:  0.545D-01 0.933D-01 0.239D+00 0.608D+00
 Coeff:     -0.127D-05 0.284D-05 0.289D-05 0.622D-05-0.418D-05 0.424D-04
 Coeff:     -0.975D-05-0.150D-03 0.189D-03-0.143D-02-0.688D-03 0.724D-02
 Coeff:      0.545D-01 0.933D-01 0.239D+00 0.608D+00
 Gap=     0.139 Goal=   None    Shift=    0.000
 Gap=     0.139 Goal=   None    Shift=    0.000
 RMSDP=1.01D-06 MaxDP=5.11D-05 DE=-1.72D-06 OVMax= 1.18D-04

 Cycle  17  Pass 1  IDiag  1:
 RMSU=  7.58D-07    CP:  3.47D-02  1.86D-01  1.60D-02  7.92D-02  6.80D-02
                    CP:  8.90D-01  3.56D-01  7.48D-01  4.49D-01  7.41D-01
                    CP:  7.25D-01  5.68D-01  8.17D-01  6.22D-01  6.22D-01
                    CP:  7.30D-01
 E= -881.749052283036     Delta-E=       -0.000000083572 Rises=F Damp=F
 DIIS: error= 5.27D-06 at cycle  17 NSaved=  17.
 NSaved=17 IEnMin=17 EnMin= -881.749052283036     IErMin=17 ErrMin= 5.27D-06
 ErrMax= 5.27D-06  0.00D+00 EMaxC= 1.00D-01 BMatC= 7.81D-08 BMatP= 4.11D-07
 IDIUse=1 WtCom= 1.00D+00 WtEn= 0.00D+00
 Coeff-Com:  0.276D-06-0.847D-06-0.207D-07 0.151D-05-0.152D-05 0.230D-04
 Coeff-Com: -0.839D-05-0.553D-05-0.360D-04-0.203D-03 0.218D-03 0.912D-03
 Coeff-Com:  0.104D-01 0.108D-01 0.464D-01 0.275D+00 0.657D+00
 Coeff:      0.276D-06-0.847D-06-0.207D-07 0.151D-05-0.152D-05 0.230D-04
 Coeff:     -0.839D-05-0.553D-05-0.360D-04-0.203D-03 0.218D-03 0.912D-03
 Coeff:      0.104D-01 0.108D-01 0.464D-01 0.275D+00 0.657D+00
 Gap=     0.139 Goal=   None    Shift=    0.000
 Gap=     0.139 Goal=   None    Shift=    0.000
 RMSDP=4.46D-07 MaxDP=2.74D-05 DE=-8.36D-08 OVMax= 6.08D-05

 Cycle  18  Pass 1  IDiag  1:
 RMSU=  3.33D-07    CP:  3.47D-02  1.86D-01  1.60D-02  7.92D-02  6.80D-02
                    CP:  8.90D-01  3.56D-01  7.48D-01  4.49D-01  7.41D-01
                    CP:  7.25D-01  5.67D-01  8.19D-01  6.21D-01  6.17D-01
                    CP:  8.06D-01  8.49D-01
 E= -881.749052301374     Delta-E=       -0.000000018337 Rises=F Damp=F
 DIIS: error= 2.30D-06 at cycle  18 NSaved=  18.
 NSaved=18 IEnMin=18 EnMin= -881.749052301374     IErMin=18 ErrMin= 2.30D-06
 ErrMax= 2.30D-06  0.00D+00 EMaxC= 1.00D-01 BMatC= 1.68D-08 BMatP= 7.81D-08
 IDIUse=1 WtCom= 1.00D+00 WtEn= 0.00D+00
 Coeff-Com:  0.136D-06-0.369D-06-0.255D-06-0.313D-07-0.844D-07 0.390D-05
 Coeff-Com: -0.901D-06 0.290D-05-0.527D-04 0.168D-03 0.565D-03 0.250D-03
 Coeff-Com:  0.108D-02-0.578D-02-0.718D-02 0.469D-01 0.345D+00 0.619D+00
 Coeff:      0.136D-06-0.369D-06-0.255D-06-0.313D-07-0.844D-07 0.390D-05
 Coeff:     -0.901D-06 0.290D-05-0.527D-04 0.168D-03 0.565D-03 0.250D-03
 Coeff:      0.108D-02-0.578D-02-0.718D-02 0.469D-01 0.345D+00 0.619D+00
 Gap=     0.139 Goal=   None    Shift=    0.000
 Gap=     0.139 Goal=   None    Shift=    0.000
 RMSDP=2.03D-07 MaxDP=1.10D-05 DE=-1.83D-08 OVMax= 2.60D-05

 Cycle  19  Pass 1  IDiag  1:
 RMSU=  1.14D-07    CP:  3.47D-02  1.86D-01  1.60D-02  7.92D-02  6.80D-02
                    CP:  8.90D-01  3.56D-01  7.48D-01  4.49D-01  7.41D-01
                    CP:  7.25D-01  5.67D-01  8.19D-01  6.20D-01  6.16D-01
                    CP:  8.02D-01  9.65D-01  7.83D-01
 E= -881.749052305175     Delta-E=       -0.000000003801 Rises=F Damp=F
 DIIS: error= 9.13D-07 at cycle  19 NSaved=  19.
 NSaved=19 IEnMin=19 EnMin= -881.749052305175     IErMin=19 ErrMin= 9.13D-07
 ErrMax= 9.13D-07  0.00D+00 EMaxC= 1.00D-01 BMatC= 1.17D-09 BMatP= 1.68D-08
 IDIUse=1 WtCom= 1.00D+00 WtEn= 0.00D+00
 Coeff-Com: -0.161D-06 0.311D-06-0.124D-07 0.542D-07 0.151D-06-0.106D-07
 Coeff-Com: -0.368D-08 0.171D-06-0.232D-04 0.868D-04 0.213D-03 0.102D-03
 Coeff-Com:  0.128D-04-0.289D-02-0.485D-02-0.734D-03 0.899D-01 0.278D+00
 Coeff-Com:  0.640D+00
 Coeff:     -0.161D-06 0.311D-06-0.124D-07 0.542D-07 0.151D-06-0.106D-07
 Coeff:     -0.368D-08 0.171D-06-0.232D-04 0.868D-04 0.213D-03 0.102D-03
 Coeff:      0.128D-04-0.289D-02-0.485D-02-0.734D-03 0.899D-01 0.278D+00
 Coeff:      0.640D+00
 Gap=     0.139 Goal=   None    Shift=    0.000
 Gap=     0.139 Goal=   None    Shift=    0.000
 RMSDP=5.52D-08 MaxDP=3.85D-06 DE=-3.80D-09 OVMax= 8.64D-06

 Cycle  20  Pass 1  IDiag  1:
 RMSU=  3.76D-08    CP:  3.47D-02  1.86D-01  1.60D-02  7.92D-02  6.80D-02
                    CP:  8.90D-01  3.56D-01  7.48D-01  4.49D-01  7.41D-01
                    CP:  7.25D-01  5.67D-01  8.19D-01  6.19D-01  6.17D-01
                    CP:  8.08D-01  9.72D-01  8.44D-01  8.27D-01
 E= -881.749052305490     Delta-E=       -0.000000000315 Rises=F Damp=F
 DIIS: error= 3.43D-07 at cycle  20 NSaved=  20.
 NSaved=20 IEnMin=20 EnMin= -881.749052305490     IErMin=20 ErrMin= 3.43D-07
 ErrMax= 3.43D-07  0.00D+00 EMaxC= 1.00D-01 BMatC= 1.50D-10 BMatP= 1.17D-09
 IDIUse=1 WtCom= 1.00D+00 WtEn= 0.00D+00
 Coeff-Com: -0.238D-07 0.687D-07-0.593D-08 0.138D-07 0.439D-07-0.231D-06
 Coeff-Com:  0.844D-07-0.119D-06-0.440D-05 0.137D-04-0.227D-05-0.315D-04
 Coeff-Com: -0.242D-03-0.318D-03-0.876D-03-0.421D-02-0.976D-02 0.342D-01
 Coeff-Com:  0.305D+00 0.677D+00
 Coeff:     -0.238D-07 0.687D-07-0.593D-08 0.138D-07 0.439D-07-0.231D-06
 Coeff:      0.844D-07-0.119D-06-0.440D-05 0.137D-04-0.227D-05-0.315D-04
 Coeff:     -0.242D-03-0.318D-03-0.876D-03-0.421D-02-0.976D-02 0.342D-01
 Coeff:      0.305D+00 0.677D+00
 Gap=     0.139 Goal=   None    Shift=    0.000
 Gap=     0.139 Goal=   None    Shift=    0.000
 RMSDP=2.23D-08 MaxDP=1.67D-06 DE=-3.15D-10 OVMax= 3.66D-06

 Cycle  21  Pass 1  IDiag  1:
 Restarting incremental Fock formation.
 E= -881.749052305537     Delta-E=       -0.000000000047 Rises=F Damp=F
 DIIS: error= 1.46D-07 at cycle  21 NSaved=  20.
 NSaved=20 IEnMin=20 EnMin= -881.749052305537     IErMin=20 ErrMin= 1.46D-07
 ErrMax= 1.46D-07  0.00D+00 EMaxC= 1.00D-01 BMatC= 2.07D-11 BMatP= 1.50D-10
 IDIUse=1 WtCom= 1.00D+00 WtEn= 0.00D+00
 Coeff-Com:  0.423D-08-0.103D-07-0.230D-07-0.743D-08-0.113D-06 0.798D-07
 Coeff-Com:  0.930D-07 0.579D-06-0.231D-05-0.230D-04-0.352D-04-0.128D-03
 Coeff-Com:  0.156D-03-0.208D-04-0.129D-02-0.146D-01-0.167D-01 0.712D-01
 Coeff-Com:  0.302D+00 0.660D+00
 Coeff:      0.423D-08-0.103D-07-0.230D-07-0.743D-08-0.113D-06 0.798D-07
 Coeff:      0.930D-07 0.579D-06-0.231D-05-0.230D-04-0.352D-04-0.128D-03
 Coeff:      0.156D-03-0.208D-04-0.129D-02-0.146D-01-0.167D-01 0.712D-01
 Coeff:      0.302D+00 0.660D+00
 Gap=     0.139 Goal=   None    Shift=    0.000
 Gap=     0.139 Goal=   None    Shift=    0.000
 RMSDP=1.03D-08 MaxDP=7.99D-07 DE=-4.66D-11 OVMax= 1.79D-06

 Cycle  22  Pass 1  IDiag  1:
 RMSU=  1.03D-08    CP:  1.00D+00
 E= -881.749052305547     Delta-E=       -0.000000000010 Rises=F Damp=F
 DIIS: error= 8.09D-08 at cycle  22 NSaved=  20.
 NSaved=20 IEnMin=20 EnMin= -881.749052305547     IErMin=20 ErrMin= 8.09D-08
 ErrMax= 8.09D-08  0.00D+00 EMaxC= 1.00D-01 BMatC= 6.85D-12 BMatP= 2.07D-11
 IDIUse=1 WtCom= 1.00D+00 WtEn= 0.00D+00
 Coeff-Com:  0.572D-08-0.302D-08-0.809D-08 0.155D-07-0.338D-07 0.355D-06
 Coeff-Com:  0.117D-05-0.488D-05-0.123D-04-0.203D-04-0.326D-04 0.711D-04
 Coeff-Com:  0.253D-04 0.315D-03-0.380D-02-0.152D-01-0.431D-01-0.337D-01
 Coeff-Com:  0.307D+00 0.789D+00
 Coeff:      0.572D-08-0.302D-08-0.809D-08 0.155D-07-0.338D-07 0.355D-06
 Coeff:      0.117D-05-0.488D-05-0.123D-04-0.203D-04-0.326D-04 0.711D-04
 Coeff:      0.253D-04 0.315D-03-0.380D-02-0.152D-01-0.431D-01-0.337D-01
 Coeff:      0.307D+00 0.789D+00
 Gap=     0.139 Goal=   None    Shift=    0.000
 Gap=     0.139 Goal=   None    Shift=    0.000
 RMSDP=8.27D-09 MaxDP=7.26D-07 DE=-9.78D-12 OVMax= 1.75D-06

 Error on total polarization charges =  0.00975
 SCF Done:  E(UB3LYP) =  -881.749052306     A.U. after   22 cycles
            NFock= 22  Conv=0.83D-08     -V/T= 2.0101
 <Sx>= 0.0000 <Sy>= 0.0000 <Sz>= 0.0000 <S**2>= 0.0000 S= 0.0000
 <L.S>=  0.00000000000    
 KE= 8.729597534053D+02 PE=-5.201408661899D+03 EE= 1.870566129228D+03
 Annihilation of the first spin contaminant:
 S**2 before annihilation     0.0000,   after     0.0000
 Leave Link  502 at Fri May 10 03:41:14 2019, MaxMem=   104857600 cpu:            2207.6 elap:              70.0
 (Enter /opt/software/gaussian/g16.b01/l801.exe)
 DoSCS=F DFT=T ScalE2(SS,OS)=  1.000000  1.000000
 ExpMin= 1.61D-01 ExpMax= 5.48D+03 ExpMxC= 8.25D+02 IAcc=3 IRadAn=         5 AccDes= 0.00D+00
 HarFok:  IExCor=  205 AccDes= 0.00D+00 IRadAn=         5 IDoV=-2 UseB2=F ITyADJ=14
 ICtDFT= 12500011 ScaDFX=  1.000000  1.000000  1.000000  1.000000
 Largest valence mixing into a core orbital is  5.89D-05
 Largest core mixing into a valence orbital is  1.44D-05
 Largest valence mixing into a core orbital is  5.89D-05
 Largest core mixing into a valence orbital is  1.44D-05
 Range of M.O.s used for correlation:    21   400
 NBasis=   400 NAE=    73 NBE=    73 NFC=    20 NFV=     0
 NROrb=    380 NOA=    53 NOB=    53 NVA=   327 NVB=   327
 Leave Link  801 at Fri May 10 03:41:14 2019, MaxMem=   104857600 cpu:               4.5 elap:               0.2
 (Enter /opt/software/gaussian/g16.b01/l914.exe)
 UHF ground state
 Ignoring spin specification with unrestricted ground state.
 Two-electron integrals replicated using symmetry.
 MDV=   104857600 DFT=T DoStab=F Mixed=T DoRPA=T DoScal=F NonHer=T
 NEqPCM:  Using equilibrium solvation (IEInf=0, Eps=  35.6880, EpsInf=   1.8069)
 Making orbital integer symmetry assigments:
 Orbital symmetries:
 Alpha Orbitals:
       Occupied  (A) (A) (A) (A) (A) (A) (A) (A) (A) (A) (A) (A)
                 (A) (A) (A) (A) (A) (A) (A) (A) (A) (A) (A) (A)
                 (A) (A) (A) (A) (A) (A) (A) (A) (A) (A) (A) (A)
                 (A) (A) (A) (A) (A) (A) (A) (A) (A) (A) (A) (A)
                 (A) (A) (A) (A) (A) (A) (A) (A) (A) (A) (A) (A)
                 (A) (A) (A) (A) (A) (A) (A) (A) (A) (A) (A) (A)
                 (A)
       Virtual   (A) (A) (A) (A) (A) (A) (A) (A) (A) (A) (A) (A)
                 (A) (A) (A) (A) (A) (A) (A) (A) (A) (A) (A) (A)
                 (A) (A) (A) (A) (A) (A) (A) (A) (A) (A) (A) (A)
                 (A) (A) (A) (A) (A) (A) (A) (A) (A) (A) (A) (A)
                 (A) (A) (A) (A) (A) (A) (A) (A) (A) (A) (A) (A)
                 (A) (A) (A) (A) (A) (A) (A) (A) (A) (A) (A) (A)
                 (A) (A) (A) (A) (A) (A) (A) (A) (A) (A) (A) (A)
                 (A) (A) (A) (A) (A) (A) (A) (A) (A) (A) (A) (A)
                 (A) (A) (A) (A) (A) (A) (A) (A) (A) (A) (A) (A)
                 (A) (A) (A) (A) (A) (A) (A) (A) (A) (A) (A) (A)
                 (A) (A) (A) (A) (A) (A) (A) (A) (A) (A) (A) (A)
                 (A) (A) (A) (A) (A) (A) (A) (A) (A) (A) (A) (A)
                 (A) (A) (A) (A) (A) (A) (A) (A) (A) (A) (A) (A)
                 (A) (A) (A) (A) (A) (A) (A) (A) (A) (A) (A) (A)
                 (A) (A) (A) (A) (A) (A) (A) (A) (A) (A) (A) (A)
                 (A) (A) (A) (A) (A) (A) (A) (A) (A) (A) (A) (A)
                 (A) (A) (A) (A) (A) (A) (A) (A) (A) (A) (A) (A)
                 (A) (A) (A) (A) (A) (A) (A) (A) (A) (A) (A) (A)
                 (A) (A) (A) (A) (A) (A) (A) (A) (A) (A) (A) (A)
                 (A) (A) (A) (A) (A) (A) (A) (A) (A) (A) (A) (A)
                 (A) (A) (A) (A) (A) (A) (A) (A) (A) (A) (A) (A)
                 (A) (A) (A) (A) (A) (A) (A) (A) (A) (A) (A) (A)
                 (A) (A) (A) (A) (A) (A) (A) (A) (A) (A) (A) (A)
                 (A) (A) (A) (A) (A) (A) (A) (A) (A) (A) (A) (A)
                 (A) (A) (A) (A) (A) (A) (A) (A) (A) (A) (A) (A)
                 (A) (A) (A) (A) (A) (A) (A) (A) (A) (A) (A) (A)
                 (A) (A) (A) (A) (A) (A) (A) (A) (A) (A) (A) (A)
                 (A) (A) (A)
 Beta  Orbitals:
       Occupied  (A) (A) (A) (A) (A) (A) (A) (A) (A) (A) (A) (A)
                 (A) (A) (A) (A) (A) (A) (A) (A) (A) (A) (A) (A)
                 (A) (A) (A) (A) (A) (A) (A) (A) (A) (A) (A) (A)
                 (A) (A) (A) (A) (A) (A) (A) (A) (A) (A) (A) (A)
                 (A) (A) (A) (A) (A) (A) (A) (A) (A) (A) (A) (A)
                 (A) (A) (A) (A) (A) (A) (A) (A) (A) (A) (A) (A)
                 (A)
       Virtual   (A) (A) (A) (A) (A) (A) (A) (A) (A) (A) (A) (A)
                 (A) (A) (A) (A) (A) (A) (A) (A) (A) (A) (A) (A)
                 (A) (A) (A) (A) (A) (A) (A) (A) (A) (A) (A) (A)
                 (A) (A) (A) (A) (A) (A) (A) (A) (A) (A) (A) (A)
                 (A) (A) (A) (A) (A) (A) (A) (A) (A) (A) (A) (A)
                 (A) (A) (A) (A) (A) (A) (A) (A) (A) (A) (A) (A)
                 (A) (A) (A) (A) (A) (A) (A) (A) (A) (A) (A) (A)
                 (A) (A) (A) (A) (A) (A) (A) (A) (A) (A) (A) (A)
                 (A) (A) (A) (A) (A) (A) (A) (A) (A) (A) (A) (A)
                 (A) (A) (A) (A) (A) (A) (A) (A) (A) (A) (A) (A)
                 (A) (A) (A) (A) (A) (A) (A) (A) (A) (A) (A) (A)
                 (A) (A) (A) (A) (A) (A) (A) (A) (A) (A) (A) (A)
                 (A) (A) (A) (A) (A) (A) (A) (A) (A) (A) (A) (A)
                 (A) (A) (A) (A) (A) (A) (A) (A) (A) (A) (A) (A)
                 (A) (A) (A) (A) (A) (A) (A) (A) (A) (A) (A) (A)
                 (A) (A) (A) (A) (A) (A) (A) (A) (A) (A) (A) (A)
                 (A) (A) (A) (A) (A) (A) (A) (A) (A) (A) (A) (A)
                 (A) (A) (A) (A) (A) (A) (A) (A) (A) (A) (A) (A)
                 (A) (A) (A) (A) (A) (A) (A) (A) (A) (A) (A) (A)
                 (A) (A) (A) (A) (A) (A) (A) (A) (A) (A) (A) (A)
                 (A) (A) (A) (A) (A) (A) (A) (A) (A) (A) (A) (A)
                 (A) (A) (A) (A) (A) (A) (A) (A) (A) (A) (A) (A)
                 (A) (A) (A) (A) (A) (A) (A) (A) (A) (A) (A) (A)
                 (A) (A) (A) (A) (A) (A) (A) (A) (A) (A) (A) (A)
                 (A) (A) (A) (A) (A) (A) (A) (A) (A) (A) (A) (A)
                 (A) (A) (A) (A) (A) (A) (A) (A) (A) (A) (A) (A)
                 (A) (A) (A) (A) (A) (A) (A) (A) (A) (A) (A) (A)
                 (A) (A) (A)
 Generating guess from densities on rwf.
 Convergence on wavefunction:    0.000001000000000
 Davidson Disk Diagonalization:  ConvIn= 1.00D-06 SkipCon=T Conv= 1.00D-06.
 Max sub-space:  2000 roots to seek:     3 dimension of matrix:        34662
 Iteration     1 Dimension     6 NMult     0 NNew      6
 CISAX will form     3 AO SS matrices at one time.
 NMat=     3 NSing=     3 JSym2X= 0.
 FoFJK:  IHMeth= 1 ICntrl=       0 DoSepK=F KAlg= 0 I1Cent=           0 FoldK=F
 IRaf= 800000000 NMat=       6 IRICut=       1 DoRegI=T DoRafI=F ISym2E= 0 IDoP0=0 IntGTp=1.
 FoFCou: FMM=F IPFlag=           0 FMFlag=      100000 FMFlg1=           0
         NFxFlg=           0 DoJE=F BraDBF=F KetDBF=F FulRan=T
         wScrn=  0.000000 ICntrl=         0 IOpCl=  1 I1Cent=           0 NGrid=           0
         NMat0=    6 NMatS0=      3 NMatT0=    0 NMatD0=    6 NMtDS0=    0 NMtDT0=    0
 Symmetry not used in FoFCou.
 NMat=     3 NSing=     3 JSym2X= 0.
 New state      1 was old state      2
 New state      2 was old state      1
 Excitation Energies [eV] at current iteration:
 Root      1 :     2.858872971027911
 Root      2 :     2.913848291321107
 Root      3 :     3.015653307641329
 Iteration     2 Dimension    12 NMult     6 NNew      6
 CISAX will form     3 AO SS matrices at one time.
 NMat=     3 NSing=     3 JSym2X= 0.
 NMat=     3 NSing=     3 JSym2X= 0.
 Root      1 not converged, maximum delta is    0.025551359747737
 Root      2 not converged, maximum delta is    0.033744037749598
 Root      3 not converged, maximum delta is    0.018936439294957
 Excitation Energies [eV] at current iteration:
 Root      1 :     2.843912489422941   Change is   -0.014960481604970
 Root      2 :     2.897547326944974   Change is   -0.016300964376133
 Root      3 :     3.004050263474215   Change is   -0.011603044167114
 Iteration     3 Dimension    18 NMult    12 NNew      6
 CISAX will form     3 AO SS matrices at one time.
 NMat=     3 NSing=     3 JSym2X= 0.
 NMat=     3 NSing=     3 JSym2X= 0.
 Root      1 not converged, maximum delta is    0.007872321833681
 Root      2 not converged, maximum delta is    0.011178357257829
 Root      3 not converged, maximum delta is    0.002648165934092
 Excitation Energies [eV] at current iteration:
 Root      1 :     2.843444707488483   Change is   -0.000467781934458
 Root      2 :     2.896933902265197   Change is   -0.000613424679777
 Root      3 :     3.003798318555065   Change is   -0.000251944919151
 Iteration     4 Dimension    24 NMult    18 NNew      6
 CISAX will form     3 AO SS matrices at one time.
 NMat=     3 NSing=     3 JSym2X= 0.
 NMat=     3 NSing=     3 JSym2X= 0.
 Root      1 not converged, maximum delta is    0.000751202420643
 Root      2 not converged, maximum delta is    0.002002256845452
 Root      3 not converged, maximum delta is    0.001272309796063
 Excitation Energies [eV] at current iteration:
 Root      1 :     2.843410192537336   Change is   -0.000034514951147
 Root      2 :     2.896884822329099   Change is   -0.000049079936097
 Root      3 :     3.003751750415669   Change is   -0.000046568139396
 Iteration     5 Dimension    30 NMult    24 NNew      6
 CISAX will form     3 AO SS matrices at one time.
 NMat=     3 NSing=     3 JSym2X= 0.
 NMat=     3 NSing=     3 JSym2X= 0.
