 Entering Gaussian System, Link 0=g16
 Initial command:
 /opt/software/gaussian/g16.b01/l1.exe "/localscratch/rzk.14514264.0/Gau-10693.inp" -scrdir="/localscratch/rzk.14514264.0/"
 Entering Link 1 = /opt/software/gaussian/g16.b01/l1.exe PID=     10694.
  
 Copyright (c) 1988-2017, Gaussian, Inc.  All Rights Reserved.
  
 This is part of the Gaussian(R) 16 program.  It is based on
 the Gaussian(R) 09 system (copyright 2009, Gaussian, Inc.),
 the Gaussian(R) 03 system (copyright 2003, Gaussian, Inc.),
 the Gaussian(R) 98 system (copyright 1998, Gaussian, Inc.),
 the Gaussian(R) 94 system (copyright 1995, Gaussian, Inc.),
 the Gaussian 92(TM) system (copyright 1992, Gaussian, Inc.),
 the Gaussian 90(TM) system (copyright 1990, Gaussian, Inc.),
 the Gaussian 88(TM) system (copyright 1988, Gaussian, Inc.),
 the Gaussian 86(TM) system (copyright 1986, Carnegie Mellon
 University), and the Gaussian 82(TM) system (copyright 1983,
 Carnegie Mellon University). Gaussian is a federally registered
 trademark of Gaussian, Inc.
  
 This software contains proprietary and confidential information,
 including trade secrets, belonging to Gaussian, Inc.
  
 This software is provided under written license and may be
 used, copied, transmitted, or stored only in accord with that
 written license.
  
 The following legend is applicable only to US Government
 contracts under FAR:
  
                    RESTRICTED RIGHTS LEGEND
  
 Use, reproduction and disclosure by the US Government is
 subject to restrictions as set forth in subparagraphs (a)
 and (c) of the Commercial Computer Software - Restricted
 Rights clause in FAR 52.227-19.
  
 Gaussian, Inc.
 340 Quinnipiac St., Bldg. 40, Wallingford CT 06492
  
  
 ---------------------------------------------------------------
 Warning -- This program may not be used in any manner that
 competes with the business of Gaussian, Inc. or will provide
 assistance to any competitor of Gaussian, Inc.  The licensee
 of this program is prohibited from giving any competitor of
 Gaussian, Inc. access to this program.  By using this program,
 the user acknowledges that Gaussian, Inc. is engaged in the
 business of creating and licensing software in the field of
 computational chemistry and represents and warrants to the
 licensee that it is not a competitor of Gaussian, Inc. and that
 it will not use this program in any manner prohibited above.
 ---------------------------------------------------------------
  

 Cite this work as:
 Gaussian 16, Revision B.01,
 M. J. Frisch, G. W. Trucks, H. B. Schlegel, G. E. Scuseria, 
 M. A. Robb, J. R. Cheeseman, G. Scalmani, V. Barone, 
 G. A. Petersson, H. Nakatsuji, X. Li, M. Caricato, A. V. Marenich, 
 J. Bloino, B. G. Janesko, R. Gomperts, B. Mennucci, H. P. Hratchian, 
 J. V. Ortiz, A. F. Izmaylov, J. L. Sonnenberg, D. Williams-Young, 
 F. Ding, F. Lipparini, F. Egidi, J. Goings, B. Peng, A. Petrone, 
 T. Henderson, D. Ranasinghe, V. G. Zakrzewski, J. Gao, N. Rega, 
 G. Zheng, W. Liang, M. Hada, M. Ehara, K. Toyota, R. Fukuda, 
 J. Hasegawa, M. Ishida, T. Nakajima, Y. Honda, O. Kitao, H. Nakai, 
 T. Vreven, K. Throssell, J. A. Montgomery, Jr., J. E. Peralta, 
 F. Ogliaro, M. J. Bearpark, J. J. Heyd, E. N. Brothers, K. N. Kudin, 
 V. N. Staroverov, T. A. Keith, R. Kobayashi, J. Normand, 
 K. Raghavachari, A. P. Rendell, J. C. Burant, S. S. Iyengar, 
 J. Tomasi, M. Cossi, J. M. Millam, M. Klene, C. Adamo, R. Cammi, 
 J. W. Ochterski, R. L. Martin, K. Morokuma, O. Farkas, 
 J. B. Foresman, and D. J. Fox, Gaussian, Inc., Wallingford CT, 2016.
 
 ******************************************
 Gaussian 16:  ES64L-G16RevB.01 20-Dec-2017
                 9-May-2019 
 ******************************************
 %NProcShared=32
 Will use up to   32 processors via shared memory.
 %chk=Step02-opt-triplet.chk
 ----------------------------------------------------------------------
 #p opt ub3lyp/6-31g(d,p) scrf=(iefpcm,solvent=acetonitrile) empiricald
 ispersion=gd3
 ----------------------------------------------------------------------
 1/18=20,19=15,26=3,38=1/1,3;
 2/9=110,12=2,17=6,18=5,40=1/2;
 3/5=1,6=6,7=101,11=2,25=1,30=1,70=2201,71=1,72=2,74=-5,116=2,124=31/1,2,3;
 4//1;
 5/5=2,38=5,53=2/2;
 6/7=2,8=2,9=2,10=2,28=1/1;
 7//1,2,3,16;
 1/18=20,19=15,26=3/3(2);
 2/9=110/2;
 99//99;
 2/9=110/2;
 3/5=1,6=6,7=101,11=2,25=1,30=1,70=2205,71=1,72=2,74=-5,116=2,124=31/1,2,3;
 4/5=5,16=3,69=1/1;
 5/5=2,38=5,53=2/2;
 7//1,2,3,16;
 1/18=20,19=15,26=3/3(-5);
 2/9=110/2;
 6/7=2,8=2,9=2,10=2,19=2,28=1/1;
 99/9=1/99;
 Leave Link    1 at Thu May  9 00:06:18 2019, MaxMem=           0 cpu:               4.8 elap:               0.2
 (Enter /opt/software/gaussian/g16.b01/l101.exe)
 -------------------
 Title Card Required
 -------------------
 Symbolic Z-matrix:
 Charge =  0 Multiplicity = 3
 C                     0.35429  -1.47937  -0.30068 
 H                     4.61802  -1.28328   1.29805 
 C                     1.78959   1.48604   0.3137 
 O                     2.51655   1.44709  -0.67856 
 O                     1.08739  -1.59167   0.68272 
 N                     4.64178  -0.83217  -0.64035 
 H                     4.54254  -1.38286  -1.49002 
 N                     4.21673  -1.68419   0.45352 
 H                     3.2011   -1.64085   0.56767 
 H                     4.0152   -0.02933  -0.73513 
 C                     0.94441  -1.34421  -1.68628 
 H                     0.59689  -2.15548  -2.33388 
 H                     0.62986  -0.39991  -2.13981 
 H                     2.03185  -1.35996  -1.62133 
 C                     2.34462   1.20312   1.69138 
 H                     2.13324   2.03014   2.37627 
 H                     1.87762   0.30053   2.09587 
 H                     3.42118   1.04823   1.61972 
 C                    -1.12782  -1.46691  -0.13376 
 C                    -1.66107  -1.66547   1.1511 
 C                    -2.00002  -1.24392  -1.2101 
 C                    -3.0362   -1.64507   1.35551 
 H                    -0.97697  -1.82964   1.97628 
 C                    -3.37897  -1.21781  -1.00329 
 H                    -1.611    -1.07944  -2.2084 
 C                    -3.89843  -1.41902   0.27693 
 H                    -3.43947  -1.80029   2.35146 
 H                    -4.04635  -1.03762  -1.84013 
 H                    -4.97248  -1.39839   0.4357 
 C                     0.33579   1.78998   0.16355 
 C                    -0.15191   2.12626  -1.11132 
 C                    -0.56215   1.70368   1.23851 
 C                    -1.50806   2.36076  -1.30891 
 H                     0.55151   2.19258  -1.93417 
 C                    -1.92258   1.93338   1.03808 
 H                    -0.21041   1.43512   2.22813 
 C                    -2.39736   2.25813  -0.23361 
 H                    -1.87676   2.6149   -2.2978 
 H                    -2.61288   1.84333   1.8703 
 H                    -3.45857   2.42581  -0.38923 
 
 Add virtual bond connecting atoms H10        and O4         Dist= 3.98D+00.
 Add virtual bond connecting atoms H9         and O5         Dist= 4.00D+00.
 ITRead=  0  0  0  0  0  0  0  0  0  0  0  0  0  0  0  0  0  0  0  0
 ITRead=  0  0  0  0  0  0  0  0  0  0  0  0  0  0  0  0  0  0  0  0
 MicOpt= -1 -1 -1 -1 -1 -1 -1 -1 -1 -1 -1 -1 -1 -1 -1 -1 -1 -1 -1 -1
 MicOpt= -1 -1 -1 -1 -1 -1 -1 -1 -1 -1 -1 -1 -1 -1 -1 -1 -1 -1 -1 -1
 NAtoms=     40 NQM=       40 NQMF=       0 NMMI=      0 NMMIF=      0
                NMic=       0 NMicF=      0.
                    Isotopes and Nuclear Properties:
 (Nuclear quadrupole moments (NQMom) in fm**2, nuclear magnetic moments (NMagM)
  in nuclear magnetons)

  Atom         1           2           3           4           5           6           7           8           9          10
 IAtWgt=          12           1          12          16          16          14           1          14           1           1
 AtmWgt=  12.0000000   1.0078250  12.0000000  15.9949146  15.9949146  14.0030740   1.0078250  14.0030740   1.0078250   1.0078250
 NucSpn=           0           1           0           0           0           2           1           2           1           1
 AtZEff=  -0.0000000  -0.0000000  -0.0000000  -0.0000000  -0.0000000  -0.0000000  -0.0000000  -0.0000000  -0.0000000  -0.0000000
 NQMom=    0.0000000   0.0000000   0.0000000   0.0000000   0.0000000   2.0440000   0.0000000   2.0440000   0.0000000   0.0000000
 NMagM=    0.0000000   2.7928460   0.0000000   0.0000000   0.0000000   0.4037610   2.7928460   0.4037610   2.7928460   2.7928460
 AtZNuc=   6.0000000   1.0000000   6.0000000   8.0000000   8.0000000   7.0000000   1.0000000   7.0000000   1.0000000   1.0000000

  Atom        11          12          13          14          15          16          17          18          19          20
 IAtWgt=          12           1           1           1          12           1           1           1          12          12
 AtmWgt=  12.0000000   1.0078250   1.0078250   1.0078250  12.0000000   1.0078250   1.0078250   1.0078250  12.0000000  12.0000000
 NucSpn=           0           1           1           1           0           1           1           1           0           0
 AtZEff=  -0.0000000  -0.0000000  -0.0000000  -0.0000000  -0.0000000  -0.0000000  -0.0000000  -0.0000000  -0.0000000  -0.0000000
 NQMom=    0.0000000   0.0000000   0.0000000   0.0000000   0.0000000   0.0000000   0.0000000   0.0000000   0.0000000   0.0000000
 NMagM=    0.0000000   2.7928460   2.7928460   2.7928460   0.0000000   2.7928460   2.7928460   2.7928460   0.0000000   0.0000000
 AtZNuc=   6.0000000   1.0000000   1.0000000   1.0000000   6.0000000   1.0000000   1.0000000   1.0000000   6.0000000   6.0000000

  Atom        21          22          23          24          25          26          27          28          29          30
 IAtWgt=          12          12           1          12           1          12           1           1           1          12
 AtmWgt=  12.0000000  12.0000000   1.0078250  12.0000000   1.0078250  12.0000000   1.0078250   1.0078250   1.0078250  12.0000000
 NucSpn=           0           0           1           0           1           0           1           1           1           0
 AtZEff=  -0.0000000  -0.0000000  -0.0000000  -0.0000000  -0.0000000  -0.0000000  -0.0000000  -0.0000000  -0.0000000  -0.0000000
 NQMom=    0.0000000   0.0000000   0.0000000   0.0000000   0.0000000   0.0000000   0.0000000   0.0000000   0.0000000   0.0000000
 NMagM=    0.0000000   0.0000000   2.7928460   0.0000000   2.7928460   0.0000000   2.7928460   2.7928460   2.7928460   0.0000000
 AtZNuc=   6.0000000   6.0000000   1.0000000   6.0000000   1.0000000   6.0000000   1.0000000   1.0000000   1.0000000   6.0000000

  Atom        31          32          33          34          35          36          37          38          39          40
 IAtWgt=          12          12          12           1          12           1          12           1           1           1
 AtmWgt=  12.0000000  12.0000000  12.0000000   1.0078250  12.0000000   1.0078250  12.0000000   1.0078250   1.0078250   1.0078250
 NucSpn=           0           0           0           1           0           1           0           1           1           1
 AtZEff=  -0.0000000  -0.0000000  -0.0000000  -0.0000000  -0.0000000  -0.0000000  -0.0000000  -0.0000000  -0.0000000  -0.0000000
 NQMom=    0.0000000   0.0000000   0.0000000   0.0000000   0.0000000   0.0000000   0.0000000   0.0000000   0.0000000   0.0000000
 NMagM=    0.0000000   0.0000000   0.0000000   2.7928460   0.0000000   2.7928460   0.0000000   2.7928460   2.7928460   2.7928460
 AtZNuc=   6.0000000   6.0000000   6.0000000   1.0000000   6.0000000   1.0000000   6.0000000   1.0000000   1.0000000   1.0000000
 Leave Link  101 at Thu May  9 00:06:19 2019, MaxMem=   104857600 cpu:               5.4 elap:               0.2
 (Enter /opt/software/gaussian/g16.b01/l103.exe)

 GradGradGradGradGradGradGradGradGradGradGradGradGradGradGradGradGradGrad
 Berny optimization.
 Initialization pass.
                           ----------------------------
                           !    Initial Parameters    !
                           ! (Angstroms and Degrees)  !
 --------------------------                            --------------------------
 ! Name  Definition              Value          Derivative Info.                !
 --------------------------------------------------------------------------------
 ! R1    R(1,5)                  1.2317         estimate D2E/DX2                !
 ! R2    R(1,11)                 1.5121         estimate D2E/DX2                !
 ! R3    R(1,19)                 1.4915         estimate D2E/DX2                !
 ! R4    R(2,8)                  1.0173         estimate D2E/DX2                !
 ! R5    R(3,4)                  1.2307         estimate D2E/DX2                !
 ! R6    R(3,15)                 1.512          estimate D2E/DX2                !
 ! R7    R(3,30)                 1.4928         estimate D2E/DX2                !
 ! R8    R(4,10)                 2.1045         estimate D2E/DX2                !
 ! R9    R(5,9)                  2.1174         estimate D2E/DX2                !
 ! R10   R(6,7)                  1.0174         estimate D2E/DX2                !
 ! R11   R(6,8)                  1.4502         estimate D2E/DX2                !
 ! R12   R(6,10)                 1.0228         estimate D2E/DX2                !
 ! R13   R(8,9)                  1.0229         estimate D2E/DX2                !
 ! R14   R(11,12)                1.0947         estimate D2E/DX2                !
 ! R15   R(11,13)                1.0938         estimate D2E/DX2                !
 ! R16   R(11,14)                1.0895         estimate D2E/DX2                !
 ! R17   R(15,16)                1.0944         estimate D2E/DX2                !
 ! R18   R(15,17)                1.0938         estimate D2E/DX2                !
 ! R19   R(15,18)                1.09           estimate D2E/DX2                !
 ! R20   R(19,20)                1.4052         estimate D2E/DX2                !
 ! R21   R(19,21)                1.4032         estimate D2E/DX2                !
 ! R22   R(20,22)                1.3904         estimate D2E/DX2                !
 ! R23   R(20,23)                1.0844         estimate D2E/DX2                !
 ! R24   R(21,24)                1.3946         estimate D2E/DX2                !
 ! R25   R(21,25)                1.084          estimate D2E/DX2                !
 ! R26   R(22,26)                1.3992         estimate D2E/DX2                !
 ! R27   R(22,27)                1.0856         estimate D2E/DX2                !
 ! R28   R(24,26)                1.3962         estimate D2E/DX2                !
 ! R29   R(24,28)                1.0854         estimate D2E/DX2                !
 ! R30   R(26,29)                1.0859         estimate D2E/DX2                !
 ! R31   R(30,31)                1.4058         estimate D2E/DX2                !
 ! R32   R(30,32)                1.4033         estimate D2E/DX2                !
 ! R33   R(31,33)                1.3904         estimate D2E/DX2                !
 ! R34   R(31,34)                1.0846         estimate D2E/DX2                !
 ! R35   R(32,35)                1.3942         estimate D2E/DX2                !
 ! R36   R(32,36)                1.0841         estimate D2E/DX2                !
 ! R37   R(33,37)                1.3992         estimate D2E/DX2                !
 ! R38   R(33,38)                1.0856         estimate D2E/DX2                !
 ! R39   R(35,37)                1.3957         estimate D2E/DX2                !
 ! R40   R(35,39)                1.085          estimate D2E/DX2                !
 ! R41   R(37,40)                1.0856         estimate D2E/DX2                !
 ! A1    A(5,1,11)             120.4962         estimate D2E/DX2                !
 ! A2    A(5,1,19)             120.1875         estimate D2E/DX2                !
 ! A3    A(11,1,19)            119.3152         estimate D2E/DX2                !
 ! A4    A(4,3,15)             120.7901         estimate D2E/DX2                !
 ! A5    A(4,3,30)             120.0403         estimate D2E/DX2                !
 ! A6    A(15,3,30)            119.1596         estimate D2E/DX2                !
 ! A7    A(3,4,10)             117.6788         estimate D2E/DX2                !
 ! A8    A(1,5,9)              123.5648         estimate D2E/DX2                !
 ! A9    A(7,6,8)              106.4597         estimate D2E/DX2                !
 ! A10   A(7,6,10)             106.7219         estimate D2E/DX2                !
 ! A11   A(8,6,10)             110.579          estimate D2E/DX2                !
 ! A12   A(2,8,6)              106.2016         estimate D2E/DX2                !
 ! A13   A(2,8,9)              106.3978         estimate D2E/DX2                !
 ! A14   A(6,8,9)              110.5041         estimate D2E/DX2                !
 ! A15   A(1,11,12)            110.6075         estimate D2E/DX2                !
 ! A16   A(1,11,13)            110.1757         estimate D2E/DX2                !
 ! A17   A(1,11,14)            109.4887         estimate D2E/DX2                !
 ! A18   A(12,11,13)           107.6515         estimate D2E/DX2                !
 ! A19   A(12,11,14)           109.963          estimate D2E/DX2                !
 ! A20   A(13,11,14)           108.9197         estimate D2E/DX2                !
 ! A21   A(3,15,16)            110.9726         estimate D2E/DX2                !
 ! A22   A(3,15,17)            109.5504         estimate D2E/DX2                !
 ! A23   A(3,15,18)            109.2232         estimate D2E/DX2                !
 ! A24   A(16,15,17)           108.0406         estimate D2E/DX2                !
 ! A25   A(16,15,18)           109.8333         estimate D2E/DX2                !
 ! A26   A(17,15,18)           109.1924         estimate D2E/DX2                !
 ! A27   A(1,19,20)            118.5699         estimate D2E/DX2                !
 ! A28   A(1,19,21)            122.2177         estimate D2E/DX2                !
 ! A29   A(20,19,21)           119.2051         estimate D2E/DX2                !
 ! A30   A(19,20,22)           120.5084         estimate D2E/DX2                !
 ! A31   A(19,20,23)           118.5408         estimate D2E/DX2                !
 ! A32   A(22,20,23)           120.9502         estimate D2E/DX2                !
 ! A33   A(19,21,24)           120.2535         estimate D2E/DX2                !
 ! A34   A(19,21,25)           120.4954         estimate D2E/DX2                !
 ! A35   A(24,21,25)           119.2478         estimate D2E/DX2                !
 ! A36   A(20,22,26)           119.9004         estimate D2E/DX2                !
 ! A37   A(20,22,27)           120.0098         estimate D2E/DX2                !
 ! A38   A(26,22,27)           120.0893         estimate D2E/DX2                !
 ! A39   A(21,24,26)           120.0767         estimate D2E/DX2                !
 ! A40   A(21,24,28)           119.7833         estimate D2E/DX2                !
 ! A41   A(26,24,28)           120.1398         estimate D2E/DX2                !
 ! A42   A(22,26,24)           120.0551         estimate D2E/DX2                !
 ! A43   A(22,26,29)           119.9895         estimate D2E/DX2                !
 ! A44   A(24,26,29)           119.9553         estimate D2E/DX2                !
 ! A45   A(3,30,31)            118.5407         estimate D2E/DX2                !
 ! A46   A(3,30,32)            122.2482         estimate D2E/DX2                !
 ! A47   A(31,30,32)           119.1699         estimate D2E/DX2                !
 ! A48   A(30,31,33)           120.5042         estimate D2E/DX2                !
 ! A49   A(30,31,34)           118.5325         estimate D2E/DX2                !
 ! A50   A(33,31,34)           120.9624         estimate D2E/DX2                !
 ! A51   A(30,32,35)           120.2739         estimate D2E/DX2                !
 ! A52   A(30,32,36)           120.4574         estimate D2E/DX2                !
 ! A53   A(35,32,36)           119.253          estimate D2E/DX2                !
 ! A54   A(31,33,37)           119.8915         estimate D2E/DX2                !
 ! A55   A(31,33,38)           120.0139         estimate D2E/DX2                !
 ! A56   A(37,33,38)           120.0927         estimate D2E/DX2                !
 ! A57   A(32,35,37)           120.0828         estimate D2E/DX2                !
 ! A58   A(32,35,39)           119.7942         estimate D2E/DX2                !
 ! A59   A(37,35,39)           120.1157         estimate D2E/DX2                !
 ! A60   A(33,37,35)           120.0722         estimate D2E/DX2                !
 ! A61   A(33,37,40)           119.9882         estimate D2E/DX2                !
 ! A62   A(35,37,40)           119.9388         estimate D2E/DX2                !
 ! A63   L(5,9,8,4,-1)         179.7256         estimate D2E/DX2                !
 ! A64   L(4,10,6,5,-1)        170.4039         estimate D2E/DX2                !
 ! A65   L(5,9,8,4,-2)         183.5336         estimate D2E/DX2                !
 ! A66   L(4,10,6,5,-2)        183.3014         estimate D2E/DX2                !
 ! D1    D(11,1,5,9)            -1.0028         estimate D2E/DX2                !
 ! D2    D(19,1,5,9)           179.381          estimate D2E/DX2                !
 ! D3    D(5,1,11,12)          120.9748         estimate D2E/DX2                !
 ! D4    D(5,1,11,13)         -120.1239         estimate D2E/DX2                !
 ! D5    D(5,1,11,14)           -0.357          estimate D2E/DX2                !
 ! D6    D(19,1,11,12)         -59.4056         estimate D2E/DX2                !
 ! D7    D(19,1,11,13)          59.4957         estimate D2E/DX2                !
 ! D8    D(19,1,11,14)         179.2626         estimate D2E/DX2                !
 ! D9    D(5,1,19,20)           -3.7483         estimate D2E/DX2                !
 ! D10   D(5,1,19,21)          175.2553         estimate D2E/DX2                !
 ! D11   D(11,1,19,20)         176.6309         estimate D2E/DX2                !
 ! D12   D(11,1,19,21)          -4.3655         estimate D2E/DX2                !
 ! D13   D(15,3,4,10)           37.1982         estimate D2E/DX2                !
 ! D14   D(30,3,4,10)         -141.6378         estimate D2E/DX2                !
 ! D15   D(4,3,15,16)          124.9368         estimate D2E/DX2                !
 ! D16   D(4,3,15,17)         -115.8492         estimate D2E/DX2                !
 ! D17   D(4,3,15,18)            3.707          estimate D2E/DX2                !
 ! D18   D(30,3,15,16)         -56.2171         estimate D2E/DX2                !
 ! D19   D(30,3,15,17)          62.9969         estimate D2E/DX2                !
 ! D20   D(30,3,15,18)        -177.4468         estimate D2E/DX2                !
 ! D21   D(4,3,30,31)           -4.7419         estimate D2E/DX2                !
 ! D22   D(4,3,30,32)          172.8996         estimate D2E/DX2                !
 ! D23   D(15,3,30,31)         176.4031         estimate D2E/DX2                !
 ! D24   D(15,3,30,32)          -5.9553         estimate D2E/DX2                !
 ! D25   D(3,4,6,7)            125.4723         estimate D2E/DX2                !
 ! D26   D(3,4,6,8)             12.4685         estimate D2E/DX2                !
 ! D27   D(1,5,8,2)            149.6409         estimate D2E/DX2                !
 ! D28   D(1,5,8,6)             34.1385         estimate D2E/DX2                !
 ! D29   D(7,6,8,2)            160.1137         estimate D2E/DX2                !
 ! D30   D(7,6,8,9)            -84.8923         estimate D2E/DX2                !
 ! D31   D(10,6,8,2)           -84.3299         estimate D2E/DX2                !
 ! D32   D(10,6,8,9)            30.6642         estimate D2E/DX2                !
 ! D33   D(1,19,20,22)         179.1956         estimate D2E/DX2                !
 ! D34   D(1,19,20,23)          -0.5245         estimate D2E/DX2                !
 ! D35   D(21,19,20,22)          0.1614         estimate D2E/DX2                !
 ! D36   D(21,19,20,23)       -179.5588         estimate D2E/DX2                !
 ! D37   D(1,19,21,24)        -178.879          estimate D2E/DX2                !
 ! D38   D(1,19,21,25)           0.4525         estimate D2E/DX2                !
 ! D39   D(20,19,21,24)          0.1185         estimate D2E/DX2                !
 ! D40   D(20,19,21,25)        179.45           estimate D2E/DX2                !
 ! D41   D(19,20,22,26)         -0.3064         estimate D2E/DX2                !
 ! D42   D(19,20,22,27)        179.9462         estimate D2E/DX2                !
 ! D43   D(23,20,22,26)        179.407          estimate D2E/DX2                !
 ! D44   D(23,20,22,27)         -0.3404         estimate D2E/DX2                !
 ! D45   D(19,21,24,26)         -0.2521         estimate D2E/DX2                !
 ! D46   D(19,21,24,28)        179.5632         estimate D2E/DX2                !
 ! D47   D(25,21,24,26)       -179.5919         estimate D2E/DX2                !
 ! D48   D(25,21,24,28)          0.2234         estimate D2E/DX2                !
 ! D49   D(20,22,26,24)          0.1718         estimate D2E/DX2                !
 ! D50   D(20,22,26,29)       -179.7283         estimate D2E/DX2                !
 ! D51   D(27,22,26,24)        179.919          estimate D2E/DX2                !
 ! D52   D(27,22,26,29)          0.0189         estimate D2E/DX2                !
 ! D53   D(21,24,26,22)          0.107          estimate D2E/DX2                !
 ! D54   D(21,24,26,29)       -179.9929         estimate D2E/DX2                !
 ! D55   D(28,24,26,22)       -179.7077         estimate D2E/DX2                !
 ! D56   D(28,24,26,29)          0.1925         estimate D2E/DX2                !
 ! D57   D(3,30,31,33)         177.2263         estimate D2E/DX2                !
 ! D58   D(3,30,31,34)          -2.441          estimate D2E/DX2                !
 ! D59   D(32,30,31,33)         -0.4893         estimate D2E/DX2                !
 ! D60   D(32,30,31,34)        179.8433         estimate D2E/DX2                !
 ! D61   D(3,30,32,35)        -176.862          estimate D2E/DX2                !
 ! D62   D(3,30,32,36)           1.6854         estimate D2E/DX2                !
 ! D63   D(31,30,32,35)          0.7652         estimate D2E/DX2                !
 ! D64   D(31,30,32,36)        179.3126         estimate D2E/DX2                !
 ! D65   D(30,31,33,37)         -0.1941         estimate D2E/DX2                !
 ! D66   D(30,31,33,38)       -179.6845         estimate D2E/DX2                !
 ! D67   D(34,31,33,37)        179.4651         estimate D2E/DX2                !
 ! D68   D(34,31,33,38)         -0.0253         estimate D2E/DX2                !
 ! D69   D(30,32,35,37)         -0.3583         estimate D2E/DX2                !
 ! D70   D(30,32,35,39)        178.6656         estimate D2E/DX2                !
 ! D71   D(36,32,35,37)       -178.9231         estimate D2E/DX2                !
 ! D72   D(36,32,35,39)          0.1009         estimate D2E/DX2                !
 ! D73   D(31,33,37,35)          0.6091         estimate D2E/DX2                !
 ! D74   D(31,33,37,40)       -179.0534         estimate D2E/DX2                !
 ! D75   D(38,33,37,35)       -179.9009         estimate D2E/DX2                !
 ! D76   D(38,33,37,40)          0.4366         estimate D2E/DX2                !
 ! D77   D(32,35,37,33)         -0.3336         estimate D2E/DX2                !
 ! D78   D(32,35,37,40)        179.329          estimate D2E/DX2                !
 ! D79   D(39,35,37,33)       -179.3544         estimate D2E/DX2                !
 ! D80   D(39,35,37,40)          0.3082         estimate D2E/DX2                !
 --------------------------------------------------------------------------------
 Trust Radius=3.00D-01 FncErr=1.00D-07 GrdErr=1.00D-06 EigMax=2.50D+02 EigMin=1.00D-04
 Number of steps in this run=    197 maximum allowed number of steps=    240.
 GradGradGradGradGradGradGradGradGradGradGradGradGradGradGradGradGradGrad

 Leave Link  103 at Thu May  9 00:06:19 2019, MaxMem=   104857600 cpu:               2.2 elap:               0.1
 (Enter /opt/software/gaussian/g16.b01/l202.exe)
                          Input orientation:                          
 ---------------------------------------------------------------------
 Center     Atomic      Atomic             Coordinates (Angstroms)
 Number     Number       Type             X           Y           Z
 ---------------------------------------------------------------------
      1          6           0        0.354292   -1.479367   -0.300682
      2          1           0        4.618022   -1.283283    1.298049
      3          6           0        1.789590    1.486036    0.313703
      4          8           0        2.516551    1.447090   -0.678564
      5          8           0        1.087393   -1.591673    0.682724
      6          7           0        4.641778   -0.832169   -0.640352
      7          1           0        4.542537   -1.382863   -1.490021
      8          7           0        4.216729   -1.684188    0.453524
      9          1           0        3.201097   -1.640852    0.567673
     10          1           0        4.015195   -0.029334   -0.735132
     11          6           0        0.944413   -1.344207   -1.686276
     12          1           0        0.596890   -2.155483   -2.333883
     13          1           0        0.629864   -0.399910   -2.139806
     14          1           0        2.031853   -1.359962   -1.621332
     15          6           0        2.344620    1.203121    1.691376
     16          1           0        2.133242    2.030138    2.376266
     17          1           0        1.877621    0.300528    2.095869
     18          1           0        3.421182    1.048234    1.619719
     19          6           0       -1.127817   -1.466906   -0.133755
     20          6           0       -1.661066   -1.665472    1.151099
     21          6           0       -2.000025   -1.243915   -1.210097
     22          6           0       -3.036203   -1.645070    1.355511
     23          1           0       -0.976966   -1.829640    1.976279
     24          6           0       -3.378972   -1.217805   -1.003288
     25          1           0       -1.611000   -1.079441   -2.208397
     26          6           0       -3.898430   -1.419016    0.276932
     27          1           0       -3.439469   -1.800289    2.351458
     28          1           0       -4.046348   -1.037619   -1.840128
     29          1           0       -4.972479   -1.398392    0.435704
     30          6           0        0.335793    1.789979    0.163553
     31          6           0       -0.151912    2.126260   -1.111322
     32          6           0       -0.562152    1.703684    1.238513
     33          6           0       -1.508064    2.360762   -1.308906
     34          1           0        0.551512    2.192584   -1.934174
     35          6           0       -1.922581    1.933380    1.038083
     36          1           0       -0.210412    1.435119    2.228133
     37          6           0       -2.397359    2.258132   -0.233613
     38          1           0       -1.876758    2.614901   -2.297804
     39          1           0       -2.612881    1.843333    1.870299
     40          1           0       -3.458570    2.425814   -0.389234
 ---------------------------------------------------------------------
                    Distance matrix (angstroms):
                    1          2          3          4          5
     1  C    0.000000
     2  H    4.557827   0.000000
     3  C    3.351293   4.078982   0.000000
     4  O    3.658184   3.972168   1.230684   0.000000
     5  O    1.231721   3.597092   3.178294   3.623490   0.000000
     6  N    4.349342   1.990343   3.797272   3.116580   3.867949
     7  H    4.354909   2.790869   4.366087   3.573754   4.086862
     8  N    3.940710   1.017341   3.995106   3.738600   3.139082
     9  H    2.980674   1.633702   3.440099   3.399573   2.117404
    10  H    3.961509   2.463659   2.889588   2.104510   3.608773
    11  C    1.512079   4.733425   3.567144   3.358339   2.386178
    12  H    2.156361   5.488275   4.657564   4.404964   3.107795
    13  H    2.150243   5.338970   3.304764   3.017652   3.097791
    14  H    2.138360   3.900889   3.450037   3.000547   2.500874
    15  C    3.889144   3.391942   1.511980   2.388660   3.226278
    16  H    4.758922   4.279654   2.160627   3.133506   4.132723
    17  H    3.351420   3.264165   2.142264   3.069253   2.490354
    18  H    4.413901   2.640430   2.135285   2.501909   3.646044
    19  C    1.491532   5.924394   4.175087   4.697830   2.364183
    20  C    2.490777   6.292425   4.747659   5.521611   2.789059
    21  C    2.534814   7.077492   4.912818   5.284269   3.638112
    22  C    3.777021   7.662986   5.846150   6.673229   4.178461
    23  H    2.660731   5.662366   4.627278   5.476295   2.447752
    24  C    3.807799   8.321800   5.979904   6.477986   4.788615
    25  H    2.767976   7.151044   4.950421   5.075473   3.987767
    26  C    4.292193   8.578523   6.387038   7.090805   5.005288
    27  H    4.639985   8.142489   6.503494   7.429716   4.829148
    28  H    4.683019   9.218450   6.713121   7.112992   5.746917
    29  H    5.378040   9.629880   7.352577   8.088506   6.067984
    30  C    3.302193   5.391614   1.492800   2.362719   3.502858
    31  C    3.730137   6.338953   2.491990   2.787337   4.310163
    32  C    3.652507   5.979943   2.536402   3.635854   3.726832
    33  C    4.385371   7.589744   3.777900   4.174884   5.130763
    34  H    4.023732   6.250234   2.661766   2.448203   4.632054
    35  C    4.315470   7.293421   3.808550   4.784271   4.648895
    36  H    3.899747   5.618589   2.769051   3.985644   3.637864
    37  C    4.641657   8.006446   4.292578   5.000228   5.272966
    38  H    5.072387   8.384996   4.640734   4.825649   5.946848
    39  H    4.955563   7.898681   4.683204   5.741497   5.186678
    40  H    5.458589   9.046307   5.377777   6.061657   6.160769
                    6          7          8          9         10
     6  N    0.000000
     7  H    1.017374   0.000000
     8  N    1.450230   1.993568   0.000000
     9  H    2.046669   2.469843   1.022945   0.000000
    10  H    1.022807   1.637067   2.047452   2.226443   0.000000
    11  C    3.876422   3.603680   3.924587   3.203265   3.473222
    12  H    4.580429   4.108184   4.592928   3.932654   4.331434
    13  H    4.304726   4.086249   4.608723   3.934669   3.683870
    14  H    2.837710   2.514220   3.030484   2.497554   2.547463
    15  C    3.854387   4.651821   3.656996   3.175601   3.193385
    16  H    4.856494   5.692227   4.672694   4.229361   4.178991
    17  H    4.050984   4.774326   3.479629   2.802843   3.562667
    18  H    3.183346   4.103432   3.075555   2.895932   2.656939
    19  C    5.826470   5.830903   5.381104   4.388822   5.373904
    20  C    6.605266   6.748339   5.919074   4.897103   6.201190
    21  C    6.678899   6.550021   6.450543   5.510871   6.154971
    22  C    7.974689   8.099574   7.308908   6.286861   7.530180
    23  H    6.277897   6.532975   5.414278   4.413165   5.959406
    24  C    8.038213   7.938165   7.748193   6.778215   7.493869
    25  H    6.451135   6.202753   6.435368   5.583729   5.909933
    26  C    8.609353   8.623999   8.121410   7.108940   8.098207
    27  H    8.671490   8.868124   7.888790   6.877821   8.260468
    28  H    8.772982   8.602948   8.599845   7.660735   8.199154
    29  H    9.690843   9.707945   9.193669   8.178236   9.166431
    30  C    5.105236   5.522493   5.216856   4.488194   4.201849
    31  C    5.652750   5.873262   6.004438   5.315339   4.706685
    32  C    6.086179   6.559689   5.910295   5.079172   5.277379
    33  C    6.961489   7.117394   7.227796   6.458379   6.045508
    34  H    5.249132   5.376744   5.845022   5.289118   4.286225
    35  C    7.318211   7.693278   7.149800   6.264862   6.500286
    36  H    6.075570   6.660046   5.699025   4.884375   5.364822
    37  C    7.698366   7.937100   7.730472   6.869268   6.826776
    38  H    7.557827   7.605391   7.948746   7.218518   6.644474
    39  H    8.129684   8.538155   7.816280   6.902081   7.363867
    40  H    8.734595   8.929472   8.747147   7.861591   7.874297
                   11         12         13         14         15
    11  C    0.000000
    12  H    1.094685   0.000000
    13  H    1.093768   1.766576   0.000000
    14  H    1.089491   1.788771   1.776538   0.000000
    15  C    4.456231   5.526074   4.493112   4.200149   0.000000
    16  H    5.413295   6.485777   5.344173   5.242504   1.094400
    17  H    4.228552   5.224458   4.470845   4.074138   1.093790
    18  H    4.773653   5.819914   4.901286   4.270135   1.090005
    19  C    2.592202   2.879117   2.872658   3.493972   4.745310
    20  C    3.865544   4.181337   4.204767   4.627889   4.956435
    21  C    2.984379   2.972847   2.914279   4.054457   5.769096
    22  C    5.018794   5.203029   5.216101   5.884562   6.097397
    23  H    4.164331   4.600075   4.644156   4.713427   4.506855
    24  C    4.378825   4.296185   4.246339   5.447863   6.773596
    25  H    2.621612   2.459348   2.342635   3.700502   6.005435
    26  C    5.226176   5.250394   5.233034   6.226970   6.917509
    27  H    5.977435   6.194415   6.220288   6.775863   6.550715
    28  H    5.002536   4.801362   4.729000   6.090674   7.637860
    29  H    6.286123   6.265913   6.246316   7.300243   7.866671
    30  C    3.689906   4.676754   3.191795   3.998070   2.591145
    31  C    3.684649   4.515383   2.837338   4.145200   3.865226
    32  C    4.484838   5.385031   4.154401   4.928844   2.984120
    33  C    4.459131   5.087030   3.589212   5.145135   5.018466
    34  H    3.567172   4.366636   2.601816   3.861329   4.163999
    35  C    5.136571   5.868278   4.696615   5.792766   4.378250
    36  H    4.937699   5.861412   4.811682   5.259145   2.621091
    37  C    5.123916   5.732073   4.456774   5.885090   5.225418
    38  H    4.899746   5.373714   3.923927   5.615549   5.977183
    39  H    5.955164   6.630860   5.623920   6.635220   5.001870
    40  H    5.939835   6.420023   5.269204   6.781955   6.284977
                   16         17         18         19         20
    16  H    0.000000
    17  H    1.770739   0.000000
    18  H    1.787537   1.779990   0.000000
    19  C    5.400373   4.138563   5.485799   0.000000
    20  C    5.436482   4.156928   5.780402   1.405216   0.000000
    21  C    6.376936   5.324552   6.530796   1.403205   2.422365
    22  C    6.424349   5.336586   7.001536   2.427260   1.390396
    23  H    4.973054   3.563788   5.268112   2.146293   1.084374
    24  C    7.235677   6.288233   7.632640   2.426075   2.791593
    25  H    6.686401   5.709772   6.671156   2.165118   3.410594
    26  C    7.258439   6.295088   7.840097   2.801295   2.414686
    27  H    6.762240   5.722779   7.464453   3.410449   2.149827
    28  H    8.085570   7.237135   8.490308   3.407905   3.877010
    29  H    8.124769   7.250265   8.822778   3.887210   3.398320
    30  C    2.860874   2.886095   3.491451   3.582994   4.111306
    31  C    4.170664   4.211695   4.624687   3.849529   4.666190
    32  C    2.943842   2.942176   4.054859   3.500820   3.544921
    33  C    5.191234   5.224933   5.881925   4.022016   4.720762
    34  H    4.594361   4.645394   4.709002   4.410615   5.412856
    35  C    4.271978   4.269268   5.447714   3.683314   3.610111
    36  H    2.422541   2.380057   3.702475   3.852518   3.588602
    37  C    5.233526   5.247300   6.225280   3.936701   4.225426
    38  H    6.186193   6.225435   6.772710   4.680296   5.501186
    39  H    4.776671   4.753497   6.091378   4.144796   3.706064
    40  H    6.250833   6.258395   7.298261   4.544331   4.726761
                   21         22         23         24         25
    21  C    0.000000
    22  C    2.795878   0.000000
    23  H    3.397457   2.158675   0.000000
    24  C    1.394613   2.421565   3.875796   0.000000
    25  H    1.083972   3.879765   4.298408   2.144098   0.000000
    26  C    2.417821   1.399239   3.404606   1.396168   3.394776
    27  H    3.881524   1.085646   2.491092   3.405476   4.965400
    28  H    2.151031   3.406097   4.961186   1.085430   2.463390
    29  H    3.401177   2.157790   4.303890   2.154663   4.288653
    30  C    4.067859   4.958899   4.255697   4.920138   4.201157
    31  C    3.844913   5.350451   5.085581   4.648479   3.689042
    32  C    4.092861   4.165185   3.633283   4.636296   4.552698
    33  C    3.639435   5.047872   5.351072   4.049672   3.557341
    34  H    4.340985   6.198493   5.814308   5.286398   3.931641
    35  C    3.893008   3.761146   3.991832   4.027187   4.440023
    36  H    4.711832   4.270144   3.362988   5.245937   5.288427
    37  C    3.657284   4.262443   4.859117   3.692980   3.956959
    38  H    4.011080   5.730478   6.231481   4.315328   3.704967
    39  H    4.404036   3.551502   4.022211   4.267899   5.116848
    40  H    4.033371   4.449115   5.464696   3.695857   4.360009
                   26         27         28         29         30
    26  C    0.000000
    27  H    2.158627   0.000000
    28  H    2.156220   4.303413   0.000000
    29  H    1.085917   2.486313   2.483402   0.000000
    30  C    5.314052   5.650624   5.586878   6.198187   0.000000
    31  C    5.341594   6.181963   5.070298   6.168819   1.405791
    32  C    4.669758   4.668557   5.397443   5.451455   1.403314
    33  C    4.745045   5.868810   4.274819   5.401581   2.427702
    34  H    6.142852   7.087849   5.619909   7.001850   2.146878
    35  C    3.965084   4.238654   4.649873   4.556912   2.426030
    36  H    5.055170   4.572733   6.113885   5.823991   2.164892
    37  C    4.004409   4.923349   4.020203   4.522101   2.801255
    38  H    5.195085   6.599364   4.272878   5.758652   3.410888
    39  H    3.851542   3.767060   4.911413   4.258468   3.407419
    40  H    3.926827   5.037033   3.800782   4.194877   3.886779
                   31         32         33         34         35
    31  C    0.000000
    32  C    2.422518   0.000000
    33  C    1.390388   2.795683   0.000000
    34  H    1.084569   3.397825   2.158957   0.000000
    35  C    2.791489   1.394166   2.421330   3.875904   0.000000
    36  H    3.410727   1.084065   3.879608   4.298730   2.143830
    37  C    2.414497   2.417137   1.399155   3.404709   1.395739
    38  H    2.149791   3.881242   1.085560   2.491400   3.405101
    39  H    3.876400   2.150382   3.405246   4.960784   1.084991
    40  H    3.397813   3.400040   2.157429   4.303719   2.153831
                   36         37         38         39         40
    36  H    0.000000
    37  C    3.394154   0.000000
    38  H    4.965149   2.158517   0.000000
    39  H    2.463035   2.155215   4.302357   0.000000
    40  H    4.287495   1.085589   2.486066   2.481927   0.000000
 Stoichiometry    C16H20N2O2(3)
 Framework group  C1[X(C16H20N2O2)]
 Deg. of freedom   114
 Full point group                 C1      NOp   1
 Largest Abelian subgroup         C1      NOp   1
 Largest concise Abelian subgroup C1      NOp   1
                         Standard orientation:                         
 ---------------------------------------------------------------------
 Center     Atomic      Atomic             Coordinates (Angstroms)
 Number     Number       Type             X           Y           Z
 ---------------------------------------------------------------------
      1          6           0        0.354292   -1.479367   -0.300682
      2          1           0        4.618022   -1.283283    1.298049
      3          6           0        1.789590    1.486036    0.313703
      4          8           0        2.516551    1.447090   -0.678564
      5          8           0        1.087393   -1.591673    0.682724
      6          7           0        4.641778   -0.832169   -0.640352
      7          1           0        4.542537   -1.382863   -1.490021
      8          7           0        4.216729   -1.684188    0.453524
      9          1           0        3.201097   -1.640852    0.567673
     10          1           0        4.015195   -0.029334   -0.735132
     11          6           0        0.944413   -1.344207   -1.686276
     12          1           0        0.596890   -2.155483   -2.333883
     13          1           0        0.629864   -0.399910   -2.139806
     14          1           0        2.031853   -1.359962   -1.621332
     15          6           0        2.344620    1.203121    1.691376
     16          1           0        2.133242    2.030138    2.376266
     17          1           0        1.877621    0.300528    2.095869
     18          1           0        3.421182    1.048234    1.619719
     19          6           0       -1.127817   -1.466906   -0.133755
     20          6           0       -1.661066   -1.665472    1.151099
     21          6           0       -2.000025   -1.243915   -1.210097
     22          6           0       -3.036203   -1.645070    1.355511
     23          1           0       -0.976966   -1.829640    1.976279
     24          6           0       -3.378972   -1.217805   -1.003288
     25          1           0       -1.611000   -1.079441   -2.208397
     26          6           0       -3.898430   -1.419016    0.276932
     27          1           0       -3.439469   -1.800289    2.351458
     28          1           0       -4.046348   -1.037619   -1.840128
     29          1           0       -4.972479   -1.398392    0.435704
     30          6           0        0.335793    1.789979    0.163553
     31          6           0       -0.151912    2.126260   -1.111322
     32          6           0       -0.562152    1.703684    1.238513
     33          6           0       -1.508064    2.360762   -1.308906
     34          1           0        0.551512    2.192584   -1.934174
     35          6           0       -1.922581    1.933380    1.038083
     36          1           0       -0.210412    1.435119    2.228133
     37          6           0       -2.397359    2.258132   -0.233613
     38          1           0       -1.876758    2.614901   -2.297804
     39          1           0       -2.612881    1.843333    1.870299
     40          1           0       -3.458570    2.425814   -0.389234
 ---------------------------------------------------------------------
 Rotational constants (GHZ):           0.4970317           0.2618455           0.2147225
 Leave Link  202 at Thu May  9 00:06:19 2019, MaxMem=   104857600 cpu:               3.2 elap:               0.1
 (Enter /opt/software/gaussian/g16.b01/l301.exe)
 Standard basis: 6-31G(d,p) (6D, 7F)
 Ernie: Thresh=  0.10000D-02 Tol=  0.10000D-05 Strict=F.
 There are   400 symmetry adapted cartesian basis functions of A   symmetry.
 There are   400 symmetry adapted basis functions of A   symmetry.
   400 basis functions,   700 primitive gaussians,   400 cartesian basis functions
    74 alpha electrons       72 beta electrons
       nuclear repulsion energy      1570.5520442434 Hartrees.
 IExCor=  402 DFT=T Ex+Corr=B3LYP ExCW=0 ScaHFX=  0.200000
 ScaDFX=  0.800000  0.720000  1.000000  0.810000 ScalE2=  1.000000  1.000000
 IRadAn=      5 IRanWt=     -1 IRanGd=            0 ICorTp=0 IEmpDi=131
 NAtoms=   40 NActive=   40 NUniq=   40 SFac= 1.00D+00 NAtFMM=   60 NAOKFM=F Big=F
 Integral buffers will be    131072 words long.
 Raffenetti 2 integral format.
 Two-electron integral symmetry is turned on.
 R6Disp:  Grimme-D3 Dispersion energy=       -0.0479907269 Hartrees.
 Nuclear repulsion after empirical dispersion term =     1570.5040535165 Hartrees.
 ------------------------------------------------------------------------------
 Polarizable Continuum Model (PCM)
 =================================
 Model                : PCM.
 Atomic radii         : UFF (Universal Force Field).
 Polarization charges : Total charges.
 Charge compensation  : None.
 Solution method      : On-the-fly selection.
 Cavity type          : Scaled VdW (van der Waals Surface) (Alpha=1.100).
 Cavity algorithm     : GePol (No added spheres)
                        Default sphere list used, NSphG=   40.
                        Lebedev-Laikov grids with approx.  5.0 points / Ang**2.
                        Smoothing algorithm: York/Karplus (Gamma=1.0000).
                        Polarization charges: spherical gaussians, with
                                              point-specific exponents (IZeta= 3).
                        Self-potential: point-specific (ISelfS= 7).
                        Self-field    : sphere-specific E.n sum rule (ISelfD= 2).
 1st derivatives      : Analytical E(r).r(x)/FMM algorithm (CHGder, D1EAlg=3).
                        Cavity 1st derivative terms included.
 Solvent              : Acetonitrile, Eps=  35.688000 Eps(inf)=   1.806874
 ------------------------------------------------------------------------------
 GePol: Number of generator spheres                  =      40
 GePol: Total number of spheres                      =      40
 GePol: Number of exposed spheres                    =      40 (100.00%)
 GePol: Number of points                             =    2729
 GePol: Average weight of points                     =       0.13
 GePol: Minimum weight of points                     =   0.45D-10
 GePol: Maximum weight of points                     =    0.20577
 GePol: Number of points with low weight             =     210
 GePol: Fraction of low-weight points (<1% of avg)   =       7.70%
 GePol: Cavity surface area                          =    347.345 Ang**2
 GePol: Cavity volume                                =    412.341 Ang**3
 Leave Link  301 at Thu May  9 00:06:19 2019, MaxMem=   104857600 cpu:               4.6 elap:               0.2
 (Enter /opt/software/gaussian/g16.b01/l302.exe)
 NPDir=0 NMtPBC=     1 NCelOv=     1 NCel=       1 NClECP=     1 NCelD=      1
         NCelK=      1 NCelE2=     1 NClLst=     1 CellRange=     0.0.
 One-electron integrals computed using PRISM.
 One-electron integral symmetry used in STVInt
 PrsmSu:  requested number of processors reduced to:  27 ShMem   1 Linda.
 NBasis=   400 RedAO= T EigKep=  4.63D-04  NBF=   400
 NBsUse=   400 1.00D-06 EigRej= -1.00D+00 NBFU=   400
 Precomputing XC quadrature grid using
 IXCGrd= 4 IRadAn=           5 IRanWt=          -1 IRanGd=           0 AccXCQ= 0.00D+00.
 Generated NRdTot=       0 NPtTot=           0 NUsed=           0 NTot=          32
 NSgBfM=   399   399   399   399   399 MxSgAt=    40 MxSgA2=    40.
 Leave Link  302 at Thu May  9 00:06:20 2019, MaxMem=   104857600 cpu:              16.7 elap:               0.6
 (Enter /opt/software/gaussian/g16.b01/l303.exe)
 DipDrv:  MaxL=1.
 Leave Link  303 at Thu May  9 00:06:20 2019, MaxMem=   104857600 cpu:               1.7 elap:               0.1
 (Enter /opt/software/gaussian/g16.b01/l401.exe)
 ExpMin= 1.61D-01 ExpMax= 5.48D+03 ExpMxC= 8.25D+02 IAcc=3 IRadAn=         5 AccDes= 0.00D+00
 Harris functional with IExCor=  402 and IRadAn=       5 diagonalized for initial guess.
 HarFok:  IExCor=  402 AccDes= 0.00D+00 IRadAn=         5 IDoV= 1 UseB2=F ITyADJ=14
 ICtDFT=  3500011 ScaDFX=  1.000000  1.000000  1.000000  1.000000
 FoFCou: FMM=F IPFlag=           0 FMFlag=      100000 FMFlg1=           0
         NFxFlg=           0 DoJE=T BraDBF=F KetDBF=T FulRan=T
         wScrn=  0.000000 ICntrl=       500 IOpCl=  0 I1Cent=   200000004 NGrid=           0
         NMat0=    1 NMatS0=      1 NMatT0=    0 NMatD0=    1 NMtDS0=    0 NMtDT0=    0
 Petite list used in FoFCou.
 Harris En= -881.673793236795    
 JPrj=0 DoOrth=F DoCkMO=F.
 Initial guess <Sx>= 0.0000 <Sy>= 0.0000 <Sz>= 1.0000 <S**2>= 2.0000 S= 1.0000
 Leave Link  401 at Thu May  9 00:06:22 2019, MaxMem=   104857600 cpu:              34.0 elap:               1.1
 (Enter /opt/software/gaussian/g16.b01/l502.exe)
 Integral symmetry usage will be decided dynamically.
 UHF open shell SCF:
 Using DIIS extrapolation, IDIIS=  1040.
 NGot=   104857600 LenX=   104520454 LenY=   104360013
 Requested convergence on RMS density matrix=1.00D-08 within 128 cycles.
 Requested convergence on MAX density matrix=1.00D-06.
 Requested convergence on             energy=1.00D-06.
 No special actions if energy rises.
 Fock matrices will be formed incrementally for  20 cycles.

 Cycle   1  Pass 1  IDiag  1:
 FoFJK:  IHMeth= 1 ICntrl=       0 DoSepK=F KAlg= 0 I1Cent=           0 FoldK=F
 IRaf= 800000000 NMat=       1 IRICut=       1 DoRegI=T DoRafI=F ISym2E= 0 IDoP0=0 IntGTp=1.
 FoFCou: FMM=F IPFlag=           0 FMFlag=      100000 FMFlg1=           0
         NFxFlg=           0 DoJE=F BraDBF=F KetDBF=F FulRan=T
         wScrn=  0.000000 ICntrl=         0 IOpCl=  1 I1Cent=           0 NGrid=           0
         NMat0=    1 NMatS0=      1 NMatT0=    0 NMatD0=    1 NMtDS0=    0 NMtDT0=    0
 Symmetry not used in FoFCou.
 Inv3:  Mode=1 IEnd=    22342323.
 Iteration    1 A*A^-1 deviation from unit magnitude is 3.44D-15 for    442.
 Iteration    1 A*A^-1 deviation from orthogonality  is 2.73D-15 for   1725    424.
 Iteration    1 A^-1*A deviation from unit magnitude is 3.11D-15 for   2551.
 Iteration    1 A^-1*A deviation from orthogonality  is 5.57D-14 for   1915   1890.
 E= -881.056421240831    
 DIIS: error= 2.28D-02 at cycle   1 NSaved=   1.
 NSaved= 1 IEnMin= 1 EnMin= -881.056421240831     IErMin= 1 ErrMin= 2.28D-02
 ErrMax= 2.28D-02  0.00D+00 EMaxC= 1.00D-01 BMatC= 2.10D+00 BMatP= 2.10D+00
 IDIUse=3 WtCom= 7.72D-01 WtEn= 2.28D-01
 Coeff-Com:  0.100D+01
 Coeff-En:   0.100D+01
 Coeff:      0.100D+01
 Gap=     0.033 Goal=   None    Shift=    0.000
 Gap=     0.093 Goal=   None    Shift=    0.000
 GapD=    0.033 DampG=0.250 DampE=0.500 DampFc=0.2500 IDamp=-1.
 Damping current iteration by 2.50D-01
 RMSDP=4.75D-03 MaxDP=2.54D-01              OVMax= 4.86D-01

 Cycle   2  Pass 1  IDiag  1:
 RMSU=  1.17D-03    CP:  9.88D-01
 E= -881.260225741213     Delta-E=       -0.203804500381 Rises=F Damp=T
 DIIS: error= 1.34D-02 at cycle   2 NSaved=   2.
 NSaved= 2 IEnMin= 2 EnMin= -881.260225741213     IErMin= 2 ErrMin= 1.34D-02
 ErrMax= 1.34D-02  0.00D+00 EMaxC= 1.00D-01 BMatC= 5.22D-01 BMatP= 2.10D+00
 IDIUse=3 WtCom= 8.66D-01 WtEn= 1.34D-01
 Coeff-Com: -0.681D+00 0.168D+01
 Coeff-En:   0.000D+00 0.100D+01
 Coeff:     -0.589D+00 0.159D+01
 Gap=     0.037 Goal=   None    Shift=    0.000
 Gap=    -0.043 Goal=   None    Shift=    0.000
 RMSDP=2.11D-03 MaxDP=1.03D-01 DE=-2.04D-01 OVMax= 8.22D-01

 Cycle   3  Pass 1  IDiag  1:
 RMSU=  2.01D-03    CP:  9.62D-01  1.40D+00
 E= -881.458456816297     Delta-E=       -0.198231075085 Rises=F Damp=F
 DIIS: error= 1.50D-02 at cycle   3 NSaved=   3.
 NSaved= 3 IEnMin= 3 EnMin= -881.458456816297     IErMin= 2 ErrMin= 1.34D-02
 ErrMax= 1.50D-02  0.00D+00 EMaxC= 1.00D-01 BMatC= 5.87D-01 BMatP= 5.22D-01
 IDIUse=2 WtCom= 0.00D+00 WtEn= 1.00D+00
 Coeff-En:   0.000D+00 0.688D-01 0.931D+00
 Coeff:      0.000D+00 0.688D-01 0.931D+00
 Gap=    -0.070 Goal=   None    Shift=    0.000
 Gap=     0.007 Goal=   None    Shift=    0.000
 RMSDP=4.16D-03 MaxDP=3.25D-01 DE=-1.98D-01 OVMax= 9.32D-01

 Cycle   4  Pass 1  IDiag  1:
 RMSU=  2.98D-03    CP:  9.60D-01  2.14D+00 -3.75D-01
 E= -880.380075001277     Delta-E=        1.078381815020 Rises=F Damp=F
 DIIS: error= 5.41D-02 at cycle   4 NSaved=   4.
 NSaved= 4 IEnMin= 3 EnMin= -881.458456816297     IErMin= 2 ErrMin= 1.34D-02
 ErrMax= 5.41D-02  0.00D+00 EMaxC= 1.00D-01 BMatC= 4.55D+00 BMatP= 5.22D-01
 IDIUse=2 WtCom= 0.00D+00 WtEn= 1.00D+00
 Coeff-En:   0.000D+00 0.000D+00 0.801D+00 0.199D+00
 Coeff:      0.000D+00 0.000D+00 0.801D+00 0.199D+00
 Gap=     0.197 Goal=   None    Shift=    0.000
 Gap=     0.169 Goal=   None    Shift=    0.000
 RMSDP=2.32D-03 MaxDP=1.62D-01 DE= 1.08D+00 OVMax= 2.85D-01

 Cycle   5  Pass 1  IDiag  1:
 RMSU=  1.35D-03    CP:  9.62D-01  1.80D+00 -8.41D-02  4.15D-01
 E= -881.372947651121     Delta-E=       -0.992872649844 Rises=F Damp=F
 DIIS: error= 1.86D-02 at cycle   5 NSaved=   5.
 NSaved= 5 IEnMin= 3 EnMin= -881.458456816297     IErMin= 2 ErrMin= 1.34D-02
 ErrMax= 1.86D-02  0.00D+00 EMaxC= 1.00D-01 BMatC= 7.78D-01 BMatP= 5.22D-01
 IDIUse=2 WtCom= 0.00D+00 WtEn= 1.00D+00
 Coeff-En:   0.000D+00 0.000D+00 0.566D+00 0.000D+00 0.434D+00
 Coeff:      0.000D+00 0.000D+00 0.566D+00 0.000D+00 0.434D+00
 Gap=     0.000 Goal=   None    Shift=    0.000
 Gap=     0.035 Goal=   None    Shift=    0.000
 RMSDP=2.17D-03 MaxDP=1.40D-01 DE=-9.93D-01 OVMax= 7.17D-01

 Cycle   6  Pass 1  IDiag  1:
 RMSU=  1.05D-03    CP:  9.65D-01  1.53D+00  5.73D-01  8.55D-02  3.44D-01
 E= -881.610098324111     Delta-E=       -0.237150672990 Rises=F Damp=F
 DIIS: error= 4.68D-03 at cycle   6 NSaved=   6.
 NSaved= 6 IEnMin= 6 EnMin= -881.610098324111     IErMin= 6 ErrMin= 4.68D-03
 ErrMax= 4.68D-03  0.00D+00 EMaxC= 1.00D-01 BMatC= 5.20D-02 BMatP= 5.22D-01
 IDIUse=3 WtCom= 9.53D-01 WtEn= 4.68D-02
 Coeff-Com: -0.175D-01 0.534D-01 0.264D+00-0.636D-01 0.333D+00 0.430D+00
 Coeff-En:   0.000D+00 0.000D+00 0.000D+00 0.000D+00 0.000D+00 0.100D+01
 Coeff:     -0.167D-01 0.509D-01 0.252D+00-0.606D-01 0.318D+00 0.457D+00
 Gap=     0.031 Goal=   None    Shift=    0.000
 Gap=     0.031 Goal=   None    Shift=    0.000
 RMSDP=6.50D-04 MaxDP=3.55D-02 DE=-2.37D-01 OVMax= 1.32D-01

 Cycle   7  Pass 1  IDiag  1:
 RMSU=  4.43D-04    CP:  9.63D-01  1.61D+00  4.48D-01  9.61D-02  5.93D-01
                    CP:  8.16D-01
 E= -881.618105047119     Delta-E=       -0.008006723008 Rises=F Damp=F
 DIIS: error= 3.45D-03 at cycle   7 NSaved=   7.
 NSaved= 7 IEnMin= 7 EnMin= -881.618105047119     IErMin= 7 ErrMin= 3.45D-03
 ErrMax= 3.45D-03  0.00D+00 EMaxC= 1.00D-01 BMatC= 2.46D-02 BMatP= 5.20D-02
 IDIUse=3 WtCom= 9.66D-01 WtEn= 3.45D-02
 Coeff-Com: -0.203D-01 0.563D-01 0.133D+00-0.348D-01 0.109D+00 0.289D+00
 Coeff-Com:  0.468D+00
 Coeff-En:   0.000D+00 0.000D+00 0.000D+00 0.000D+00 0.000D+00 0.285D+00
 Coeff-En:   0.715D+00
 Coeff:     -0.196D-01 0.544D-01 0.128D+00-0.336D-01 0.105D+00 0.289D+00
 Coeff:      0.476D+00
 Gap=     0.040 Goal=   None    Shift=    0.000
 Gap=     0.033 Goal=   None    Shift=    0.000
 RMSDP=3.56D-04 MaxDP=2.67D-02 DE=-8.01D-03 OVMax= 1.23D-01

 Cycle   8  Pass 1  IDiag  1:
 RMSU=  3.04D-04    CP:  9.63D-01  1.62D+00  5.09D-01  9.48D-02  5.59D-01
                    CP:  9.28D-01  8.71D-01
 E= -881.624681313644     Delta-E=       -0.006576266525 Rises=F Damp=F
 DIIS: error= 1.95D-03 at cycle   8 NSaved=   8.
 NSaved= 8 IEnMin= 8 EnMin= -881.624681313644     IErMin= 8 ErrMin= 1.95D-03
 ErrMax= 1.95D-03  0.00D+00 EMaxC= 1.00D-01 BMatC= 8.29D-03 BMatP= 2.46D-02
 IDIUse=3 WtCom= 9.81D-01 WtEn= 1.95D-02
 Coeff-Com:  0.314D-01-0.348D-01 0.481D-01 0.632D-02-0.576D-01 0.346D-01
 Coeff-Com:  0.261D+00 0.711D+00
 Coeff-En:   0.000D+00 0.000D+00 0.000D+00 0.000D+00 0.000D+00 0.000D+00
 Coeff-En:   0.000D+00 0.100D+01
 Coeff:      0.308D-01-0.342D-01 0.472D-01 0.620D-02-0.565D-01 0.339D-01
 Coeff:      0.256D+00 0.716D+00
 Gap=     0.050 Goal=   None    Shift=    0.000
 Gap=     0.037 Goal=   None    Shift=    0.000
 RMSDP=3.55D-04 MaxDP=2.68D-02 DE=-6.58D-03 OVMax= 1.16D-01

 Cycle   9  Pass 1  IDiag  1:
 RMSU=  1.91D-04    CP:  9.61D-01  1.59D+00  5.58D-01  1.17D-01  5.65D-01
                    CP:  9.38D-01  1.20D+00  1.75D+00
 E= -881.628861634272     Delta-E=       -0.004180320627 Rises=F Damp=F
 DIIS: error= 1.47D-03 at cycle   9 NSaved=   9.
 NSaved= 9 IEnMin= 9 EnMin= -881.628861634272     IErMin= 9 ErrMin= 1.47D-03
 ErrMax= 1.47D-03  0.00D+00 EMaxC= 1.00D-01 BMatC= 3.55D-03 BMatP= 8.29D-03
 IDIUse=3 WtCom= 9.85D-01 WtEn= 1.47D-02
 Coeff-Com:  0.328D-01-0.425D-01 0.304D-01 0.366D-02-0.326D-01-0.699D-01
 Coeff-Com: -0.700D-01 0.246D+00 0.902D+00
 Coeff-En:   0.000D+00 0.000D+00 0.000D+00 0.000D+00 0.000D+00 0.000D+00
 Coeff-En:   0.000D+00 0.000D+00 0.100D+01
 Coeff:      0.323D-01-0.419D-01 0.300D-01 0.361D-02-0.321D-01-0.689D-01
 Coeff:     -0.690D-01 0.243D+00 0.904D+00
 Gap=     0.058 Goal=   None    Shift=    0.000
 Gap=     0.044 Goal=   None    Shift=    0.000
 RMSDP=3.32D-04 MaxDP=1.62D-02 DE=-4.18D-03 OVMax= 1.01D-01

 Cycle  10  Pass 1  IDiag  1:
 RMSU=  6.19D-05    CP:  9.60D-01  1.59D+00  5.90D-01  1.45D-01  5.95D-01
                    CP:  9.03D-01  1.36D+00  2.62D+00  1.67D+00
 E= -881.631315643340     Delta-E=       -0.002454009068 Rises=F Damp=F
 DIIS: error= 1.06D-03 at cycle  10 NSaved=  10.
 NSaved=10 IEnMin=10 EnMin= -881.631315643340     IErMin=10 ErrMin= 1.06D-03
 ErrMax= 1.06D-03  0.00D+00 EMaxC= 1.00D-01 BMatC= 2.13D-03 BMatP= 3.55D-03
 IDIUse=3 WtCom= 9.89D-01 WtEn= 1.06D-02
 Coeff-Com:  0.171D-01-0.218D-01 0.191D-01-0.410D-02 0.935D-02-0.790D-01
 Coeff-Com: -0.223D+00-0.330D+00 0.582D+00 0.103D+01
 Coeff-En:   0.000D+00 0.000D+00 0.000D+00 0.000D+00 0.000D+00 0.000D+00
 Coeff-En:   0.000D+00 0.000D+00 0.000D+00 0.100D+01
 Coeff:      0.169D-01-0.215D-01 0.189D-01-0.406D-02 0.926D-02-0.782D-01
 Coeff:     -0.221D+00-0.327D+00 0.576D+00 0.103D+01
 Gap=     0.070 Goal=   None    Shift=    0.000
 Gap=     0.049 Goal=   None    Shift=    0.000
 RMSDP=3.49D-04 MaxDP=1.99D-02 DE=-2.45D-03 OVMax= 1.02D-01

 Cycle  11  Pass 1  IDiag  1:
 RMSU=  1.46D-04    CP:  9.58D-01  1.56D+00  6.29D-01  1.78D-01  6.40D-01
                    CP:  8.17D-01  1.46D+00  3.00D+00  2.51D+00  1.50D+00
 E= -881.632831265831     Delta-E=       -0.001515622492 Rises=F Damp=F
 DIIS: error= 3.25D-04 at cycle  11 NSaved=  11.
 NSaved=11 IEnMin=11 EnMin= -881.632831265831     IErMin=11 ErrMin= 3.25D-04
 ErrMax= 3.25D-04  0.00D+00 EMaxC= 1.00D-01 BMatC= 4.40D-04 BMatP= 2.13D-03
 IDIUse=3 WtCom= 9.97D-01 WtEn= 3.25D-03
 Coeff-Com:  0.861D-02-0.992D-02 0.130D-01-0.838D-03-0.617D-02 0.311D-01
 Coeff-Com:  0.629D-01-0.965D-01-0.122D+00 0.371D+00 0.749D+00
 Coeff-En:   0.000D+00 0.000D+00 0.000D+00 0.000D+00 0.000D+00 0.000D+00
 Coeff-En:   0.000D+00 0.000D+00 0.000D+00 0.000D+00 0.100D+01
 Coeff:      0.858D-02-0.989D-02 0.130D-01-0.835D-03-0.615D-02 0.309D-01
 Coeff:      0.627D-01-0.962D-01-0.122D+00 0.370D+00 0.750D+00
 Gap=     0.068 Goal=   None    Shift=    0.000
 Gap=     0.048 Goal=   None    Shift=    0.000
 RMSDP=4.21D-05 MaxDP=2.31D-03 DE=-1.52D-03 OVMax= 5.50D-03

 Cycle  12  Pass 1  IDiag  1:
 RMSU=  3.54D-05    CP:  9.58D-01  1.56D+00  6.28D-01  1.79D-01  6.39D-01
                    CP:  8.14D-01  1.46D+00  3.00D+00  2.53D+00  1.81D+00
                    CP:  9.27D-01
 E= -881.632850705046     Delta-E=       -0.000019439215 Rises=F Damp=F
 DIIS: error= 4.06D-04 at cycle  12 NSaved=  12.
 NSaved=12 IEnMin=12 EnMin= -881.632850705046     IErMin=11 ErrMin= 3.25D-04
 ErrMax= 4.06D-04  0.00D+00 EMaxC= 1.00D-01 BMatC= 4.84D-04 BMatP= 4.40D-04
 IDIUse=3 WtCom= 9.97D-01 WtEn= 3.25D-03
 Coeff-Com:  0.328D-02-0.378D-02 0.647D-02 0.439D-03-0.101D-01 0.497D-01
 Coeff-Com:  0.104D+00-0.108D-01-0.313D+00-0.399D-03 0.646D+00 0.528D+00
 Coeff-En:   0.000D+00 0.000D+00 0.000D+00 0.000D+00 0.000D+00 0.000D+00
 Coeff-En:   0.000D+00 0.000D+00 0.000D+00 0.000D+00 0.408D+00 0.592D+00
 Coeff:      0.327D-02-0.377D-02 0.645D-02 0.438D-03-0.100D-01 0.496D-01
 Coeff:      0.104D+00-0.108D-01-0.312D+00-0.398D-03 0.645D+00 0.528D+00
 Gap=     0.069 Goal=   None    Shift=    0.000
 Gap=     0.049 Goal=   None    Shift=    0.000
 RMSDP=5.63D-05 MaxDP=3.30D-03 DE=-1.94D-05 OVMax= 1.48D-02

 Cycle  13  Pass 1  IDiag  1:
 RMSU=  1.49D-05    CP:  9.58D-01  1.56D+00  6.34D-01  1.84D-01  6.48D-01
                    CP:  8.00D-01  1.47D+00  3.00D+00  2.66D+00  1.99D+00
                    CP:  1.17D+00  9.75D-01
 E= -881.632993440151     Delta-E=       -0.000142735105 Rises=F Damp=F
 DIIS: error= 1.98D-04 at cycle  13 NSaved=  13.
 NSaved=13 IEnMin=13 EnMin= -881.632993440151     IErMin=13 ErrMin= 1.98D-04
 ErrMax= 1.98D-04  0.00D+00 EMaxC= 1.00D-01 BMatC= 8.29D-05 BMatP= 4.40D-04
 IDIUse=3 WtCom= 9.98D-01 WtEn= 1.98D-03
 Coeff-Com: -0.213D-04 0.711D-03 0.305D-02 0.447D-03-0.566D-02 0.172D-01
 Coeff-Com:  0.298D-01 0.572D-01-0.119D+00-0.156D+00 0.117D+00 0.331D-01
 Coeff-Com:  0.102D+01
 Coeff-En:   0.000D+00 0.000D+00 0.000D+00 0.000D+00 0.000D+00 0.000D+00
 Coeff-En:   0.000D+00 0.000D+00 0.000D+00 0.000D+00 0.000D+00 0.000D+00
 Coeff-En:   0.100D+01
 Coeff:     -0.213D-04 0.710D-03 0.304D-02 0.446D-03-0.565D-02 0.172D-01
 Coeff:      0.298D-01 0.570D-01-0.119D+00-0.155D+00 0.117D+00 0.331D-01
 Coeff:      0.102D+01
 Gap=     0.070 Goal=   None    Shift=    0.000
 Gap=     0.049 Goal=   None    Shift=    0.000
 RMSDP=2.80D-05 MaxDP=1.60D-03 DE=-1.43D-04 OVMax= 6.46D-03

 Cycle  14  Pass 1  IDiag  1:
 RMSU=  9.02D-06    CP:  9.58D-01  1.55D+00  6.37D-01  1.85D-01  6.53D-01
                    CP:  7.93D-01  1.46D+00  3.00D+00  2.71D+00  2.10D+00
                    CP:  1.29D+00  1.17D+00  1.45D+00
 E= -881.633021783188     Delta-E=       -0.000028343037 Rises=F Damp=F
 DIIS: error= 9.87D-05 at cycle  14 NSaved=  14.
 NSaved=14 IEnMin=14 EnMin= -881.633021783188     IErMin=14 ErrMin= 9.87D-05
 ErrMax= 9.87D-05  0.00D+00 EMaxC= 1.00D-01 BMatC= 1.92D-05 BMatP= 8.29D-05
 IDIUse=1 WtCom= 1.00D+00 WtEn= 0.00D+00
 Coeff-Com: -0.985D-03 0.185D-02 0.109D-02 0.132D-03-0.200D-02 0.101D-02
 Coeff-Com: -0.544D-02 0.416D-01-0.206D-01-0.102D+00-0.404D-01-0.113D+00
 Coeff-Com:  0.607D+00 0.632D+00
 Coeff:     -0.985D-03 0.185D-02 0.109D-02 0.132D-03-0.200D-02 0.101D-02
 Coeff:     -0.544D-02 0.416D-01-0.206D-01-0.102D+00-0.404D-01-0.113D+00
 Coeff:      0.607D+00 0.632D+00
 Gap=     0.071 Goal=   None    Shift=    0.000
 Gap=     0.049 Goal=   None    Shift=    0.000
 RMSDP=1.38D-05 MaxDP=7.76D-04 DE=-2.83D-05 OVMax= 2.94D-03

 Cycle  15  Pass 1  IDiag  1:
 RMSU=  4.88D-06    CP:  9.58D-01  1.55D+00  6.39D-01  1.85D-01  6.55D-01
                    CP:  7.89D-01  1.46D+00  3.00D+00  2.73D+00  2.15D+00
                    CP:  1.35D+00  1.22D+00  1.78D+00  1.20D+00
 E= -881.633027949807     Delta-E=       -0.000006166619 Rises=F Damp=F
 DIIS: error= 3.96D-05 at cycle  15 NSaved=  15.
 NSaved=15 IEnMin=15 EnMin= -881.633027949807     IErMin=15 ErrMin= 3.96D-05
 ErrMax= 3.96D-05  0.00D+00 EMaxC= 1.00D-01 BMatC= 1.36D-06 BMatP= 1.92D-05
 IDIUse=1 WtCom= 1.00D+00 WtEn= 0.00D+00
 Coeff-Com: -0.103D-03 0.448D-04 0.254D-03 0.183D-04-0.192D-03 0.663D-03
 Coeff-Com: -0.299D-02 0.669D-02 0.462D-02-0.667D-02-0.118D-01-0.156D-01
 Coeff-Com: -0.633D-01 0.229D+00 0.859D+00
 Coeff:     -0.103D-03 0.448D-04 0.254D-03 0.183D-04-0.192D-03 0.663D-03
 Coeff:     -0.299D-02 0.669D-02 0.462D-02-0.667D-02-0.118D-01-0.156D-01
 Coeff:     -0.633D-01 0.229D+00 0.859D+00
 Gap=     0.071 Goal=   None    Shift=    0.000
 Gap=     0.050 Goal=   None    Shift=    0.000
 RMSDP=6.61D-06 MaxDP=3.68D-04 DE=-6.17D-06 OVMax= 2.38D-03

 Cycle  16  Pass 1  IDiag  1:
 RMSU=  2.55D-06    CP:  9.58D-01  1.55D+00  6.39D-01  1.85D-01  6.54D-01
                    CP:  7.91D-01  1.46D+00  3.00D+00  2.72D+00  2.15D+00
                    CP:  1.34D+00  1.23D+00  1.92D+00  1.61D+00  1.31D+00
 E= -881.633029330000     Delta-E=       -0.000001380193 Rises=F Damp=F
 DIIS: error= 1.79D-05 at cycle  16 NSaved=  16.
 NSaved=16 IEnMin=16 EnMin= -881.633029330000     IErMin=16 ErrMin= 1.79D-05
 ErrMax= 1.79D-05  0.00D+00 EMaxC= 1.00D-01 BMatC= 4.20D-07 BMatP= 1.36D-06
 IDIUse=1 WtCom= 1.00D+00 WtEn= 0.00D+00
 Coeff-Com: -0.523D-04 0.110D-04-0.653D-04-0.654D-05 0.256D-03 0.801D-05
 Coeff-Com: -0.121D-02-0.498D-02 0.436D-02 0.177D-01 0.433D-02 0.213D-01
 Coeff-Com: -0.154D+00-0.149D-01 0.433D+00 0.694D+00
 Coeff:     -0.523D-04 0.110D-04-0.653D-04-0.654D-05 0.256D-03 0.801D-05
 Coeff:     -0.121D-02-0.498D-02 0.436D-02 0.177D-01 0.433D-02 0.213D-01
 Coeff:     -0.154D+00-0.149D-01 0.433D+00 0.694D+00
 Gap=     0.071 Goal=   None    Shift=    0.000
 Gap=     0.050 Goal=   None    Shift=    0.000
 RMSDP=3.39D-06 MaxDP=2.65D-04 DE=-1.38D-06 OVMax= 1.38D-03

 Cycle  17  Pass 1  IDiag  1:
 RMSU=  1.33D-06    CP:  9.58D-01  1.55D+00  6.39D-01  1.85D-01  6.54D-01
                    CP:  7.91D-01  1.46D+00  3.00D+00  2.72D+00  2.15D+00
                    CP:  1.34D+00  1.24D+00  2.00D+00  1.81D+00  1.69D+00
                    CP:  1.44D+00
 E= -881.633029876458     Delta-E=       -0.000000546458 Rises=F Damp=F
 DIIS: error= 1.29D-05 at cycle  17 NSaved=  17.
 NSaved=17 IEnMin=17 EnMin= -881.633029876458     IErMin=17 ErrMin= 1.29D-05
 ErrMax= 1.29D-05  0.00D+00 EMaxC= 1.00D-01 BMatC= 1.64D-07 BMatP= 4.20D-07
 IDIUse=1 WtCom= 1.00D+00 WtEn= 0.00D+00
 Coeff-Com: -0.326D-04 0.624D-04-0.128D-03 0.174D-04 0.255D-04 0.894D-04
 Coeff-Com:  0.151D-02-0.427D-03-0.313D-02 0.263D-02 0.458D-02 0.157D-01
 Coeff-Com: -0.684D-02-0.717D-01-0.176D+00 0.207D+00 0.103D+01
 Coeff:     -0.326D-04 0.624D-04-0.128D-03 0.174D-04 0.255D-04 0.894D-04
 Coeff:      0.151D-02-0.427D-03-0.313D-02 0.263D-02 0.458D-02 0.157D-01
 Coeff:     -0.684D-02-0.717D-01-0.176D+00 0.207D+00 0.103D+01
 Gap=     0.071 Goal=   None    Shift=    0.000
 Gap=     0.050 Goal=   None    Shift=    0.000
 RMSDP=3.83D-06 MaxDP=3.02D-04 DE=-5.46D-07 OVMax= 1.62D-03

 Cycle  18  Pass 1  IDiag  1:
 RMSU=  8.37D-07    CP:  9.58D-01  1.55D+00  6.39D-01  1.85D-01  6.54D-01
                    CP:  7.92D-01  1.46D+00  3.00D+00  2.72D+00  2.16D+00
                    CP:  1.33D+00  1.25D+00  2.08D+00  2.00D+00  2.02D+00
                    CP:  2.24D+00  1.78D+00
 E= -881.633030294207     Delta-E=       -0.000000417749 Rises=F Damp=F
 DIIS: error= 9.77D-06 at cycle  18 NSaved=  18.
 NSaved=18 IEnMin=18 EnMin= -881.633030294207     IErMin=18 ErrMin= 9.77D-06
 ErrMax= 9.77D-06  0.00D+00 EMaxC= 1.00D-01 BMatC= 6.82D-08 BMatP= 1.64D-07
 IDIUse=1 WtCom= 1.00D+00 WtEn= 0.00D+00
 Coeff-Com: -0.473D-05 0.472D-05-0.113D-03 0.685D-06 0.486D-04-0.253D-03
 Coeff-Com:  0.669D-03 0.243D-02-0.306D-02-0.656D-02-0.283D-02-0.696D-02
 Coeff-Com:  0.666D-01-0.984D-02-0.258D+00-0.206D+00 0.404D+00 0.102D+01
 Coeff:     -0.473D-05 0.472D-05-0.113D-03 0.685D-06 0.486D-04-0.253D-03
 Coeff:      0.669D-03 0.243D-02-0.306D-02-0.656D-02-0.283D-02-0.696D-02
 Coeff:      0.666D-01-0.984D-02-0.258D+00-0.206D+00 0.404D+00 0.102D+01
 Gap=     0.071 Goal=   None    Shift=    0.000
 Gap=     0.050 Goal=   None    Shift=    0.000
 RMSDP=3.62D-06 MaxDP=3.00D-04 DE=-4.18D-07 OVMax= 1.35D-03

 Cycle  19  Pass 1  IDiag  1:
 RMSU=  5.22D-07    CP:  9.58D-01  1.55D+00  6.39D-01  1.85D-01  6.54D-01
                    CP:  7.91D-01  1.46D+00  3.00D+00  2.72D+00  2.16D+00
                    CP:  1.34D+00  1.27D+00  2.16D+00  2.17D+00  2.32D+00
                    CP:  2.99D+00  2.78D+00  1.79D+00
 E= -881.633030578889     Delta-E=       -0.000000284682 Rises=F Damp=F
 DIIS: error= 6.59D-06 at cycle  19 NSaved=  19.
 NSaved=19 IEnMin=19 EnMin= -881.633030578889     IErMin=19 ErrMin= 6.59D-06
 ErrMax= 6.59D-06  0.00D+00 EMaxC= 1.00D-01 BMatC= 4.22D-08 BMatP= 6.82D-08
 IDIUse=1 WtCom= 1.00D+00 WtEn= 0.00D+00
 Coeff-Com:  0.398D-04-0.728D-04-0.388D-04-0.143D-05 0.350D-04-0.240D-03
 Coeff-Com: -0.177D-03 0.213D-02-0.584D-03-0.590D-02-0.413D-02-0.164D-01
 Coeff-Com:  0.545D-01 0.402D-01-0.919D-01-0.263D+00-0.312D+00 0.685D+00
 Coeff-Com:  0.913D+00
 Coeff:      0.398D-04-0.728D-04-0.388D-04-0.143D-05 0.350D-04-0.240D-03
 Coeff:     -0.177D-03 0.213D-02-0.584D-03-0.590D-02-0.413D-02-0.164D-01
 Coeff:      0.545D-01 0.402D-01-0.919D-01-0.263D+00-0.312D+00 0.685D+00
 Coeff:      0.913D+00
 Gap=     0.071 Goal=   None    Shift=    0.000
 Gap=     0.050 Goal=   None    Shift=    0.000
 RMSDP=3.39D-06 MaxDP=2.81D-04 DE=-2.85D-07 OVMax= 1.21D-03

 Cycle  20  Pass 1  IDiag  1:
 RMSU=  2.04D-06    CP:  9.58D-01  1.55D+00  6.39D-01  1.85D-01  6.54D-01
                    CP:  7.91D-01  1.46D+00  3.00D+00  2.72D+00  2.17D+00
                    CP:  1.34D+00  1.29D+00  2.24D+00  2.32D+00  2.59D+00
                    CP:  3.00D+00  3.00D+00  2.83D+00  1.54D+00
 E= -881.633030743183     Delta-E=       -0.000000164293 Rises=F Damp=F
 DIIS: error= 3.47D-06 at cycle  20 NSaved=  20.
 NSaved=20 IEnMin=20 EnMin= -881.633030743183     IErMin=20 ErrMin= 3.47D-06
 ErrMax= 3.47D-06  0.00D+00 EMaxC= 1.00D-01 BMatC= 9.04D-09 BMatP= 4.22D-08
 IDIUse=1 WtCom= 1.00D+00 WtEn= 0.00D+00
 Coeff-Com:  0.230D-04-0.344D-04 0.245D-05 0.359D-05-0.202D-04 0.471D-04
 Coeff-Com: -0.335D-04-0.230D-03 0.822D-03 0.766D-03-0.404D-03-0.502D-02
 Coeff-Com: -0.867D-02 0.161D-01 0.590D-01 0.146D-01-0.219D+00-0.193D+00
 Coeff-Com:  0.244D+00 0.109D+01
 Coeff:      0.230D-04-0.344D-04 0.245D-05 0.359D-05-0.202D-04 0.471D-04
 Coeff:     -0.335D-04-0.230D-03 0.822D-03 0.766D-03-0.404D-03-0.502D-02
 Coeff:     -0.867D-02 0.161D-01 0.590D-01 0.146D-01-0.219D+00-0.193D+00
 Coeff:      0.244D+00 0.109D+01
 Gap=     0.071 Goal=   None    Shift=    0.000
 Gap=     0.050 Goal=   None    Shift=    0.000
 RMSDP=2.09D-06 MaxDP=1.70D-04 DE=-1.64D-07 OVMax= 6.77D-04

 Cycle  21  Pass 1  IDiag  1:
 Restarting incremental Fock formation.
 E= -881.633030793482     Delta-E=       -0.000000050299 Rises=F Damp=F
 DIIS: error= 1.81D-06 at cycle  21 NSaved=  20.
 NSaved=20 IEnMin=20 EnMin= -881.633030793482     IErMin=20 ErrMin= 1.81D-06
 ErrMax= 1.81D-06  0.00D+00 EMaxC= 1.00D-01 BMatC= 7.25D-09 BMatP= 9.04D-09
 IDIUse=1 WtCom= 1.00D+00 WtEn= 0.00D+00
 Coeff-Com:  0.201D-04-0.291D-04 0.237D-04-0.211D-04 0.163D-03 0.134D-03
 Coeff-Com: -0.806D-03 0.519D-03 0.197D-02 0.118D-02 0.451D-03-0.189D-01
 Coeff-Com: -0.282D-02 0.546D-01 0.777D-01-0.347D-01-0.282D+00-0.878D-01
 Coeff-Com:  0.573D+00 0.717D+00
 Coeff:      0.201D-04-0.291D-04 0.237D-04-0.211D-04 0.163D-03 0.134D-03
 Coeff:     -0.806D-03 0.519D-03 0.197D-02 0.118D-02 0.451D-03-0.189D-01
 Coeff:     -0.282D-02 0.546D-01 0.777D-01-0.347D-01-0.282D+00-0.878D-01
 Coeff:      0.573D+00 0.717D+00
 Gap=     0.071 Goal=   None    Shift=    0.000
 Gap=     0.050 Goal=   None    Shift=    0.000
 RMSDP=7.93D-07 MaxDP=6.32D-05 DE=-5.03D-08 OVMax= 2.43D-04

 Cycle  22  Pass 1  IDiag  1:
 RMSU=  7.93D-07    CP:  1.00D+00
 E= -881.633030804534     Delta-E=       -0.000000011052 Rises=F Damp=F
 DIIS: error= 1.35D-06 at cycle  22 NSaved=  20.
 NSaved=20 IEnMin=20 EnMin= -881.633030804534     IErMin=20 ErrMin= 1.35D-06
 ErrMax= 1.35D-06  0.00D+00 EMaxC= 1.00D-01 BMatC= 3.73D-09 BMatP= 7.25D-09
 IDIUse=1 WtCom= 1.00D+00 WtEn= 0.00D+00
 Coeff-Com:  0.645D-05 0.178D-04-0.156D-04 0.414D-04 0.570D-04-0.255D-03
 Coeff-Com: -0.126D-03 0.253D-03 0.749D-03 0.149D-02-0.238D-02-0.102D-01
 Coeff-Com: -0.117D-01 0.126D-01 0.870D-01 0.110D-01-0.102D+00-0.335D+00
 Coeff-Com:  0.219D+00 0.113D+01
 Coeff:      0.645D-05 0.178D-04-0.156D-04 0.414D-04 0.570D-04-0.255D-03
 Coeff:     -0.126D-03 0.253D-03 0.749D-03 0.149D-02-0.238D-02-0.102D-01
 Coeff:     -0.117D-01 0.126D-01 0.870D-01 0.110D-01-0.102D+00-0.335D+00
 Coeff:      0.219D+00 0.113D+01
 Gap=     0.071 Goal=   None    Shift=    0.000
 Gap=     0.050 Goal=   None    Shift=    0.000
 RMSDP=6.03D-07 MaxDP=4.71D-05 DE=-1.11D-08 OVMax= 1.83D-04

 Cycle  23  Pass 1  IDiag  1:
 RMSU=  1.29D-07    CP:  1.00D+00  1.74D+00
 E= -881.633030809885     Delta-E=       -0.000000005351 Rises=F Damp=F
 DIIS: error= 6.79D-07 at cycle  23 NSaved=  20.
 NSaved=20 IEnMin=20 EnMin= -881.633030809885     IErMin=20 ErrMin= 6.79D-07
 ErrMax= 6.79D-07  0.00D+00 EMaxC= 1.00D-01 BMatC= 5.57D-10 BMatP= 3.73D-09
 IDIUse=1 WtCom= 1.00D+00 WtEn= 0.00D+00
 Coeff-Com:  0.747D-05-0.820D-05-0.416D-05-0.418D-05 0.129D-03-0.195D-03
 Coeff-Com: -0.349D-03 0.259D-03 0.960D-03 0.418D-02-0.394D-02-0.210D-01
 Coeff-Com: -0.222D-01 0.381D-01 0.102D+00-0.771D-02-0.328D+00-0.145D+00
 Coeff-Com:  0.456D+00 0.927D+00
 Coeff:      0.747D-05-0.820D-05-0.416D-05-0.418D-05 0.129D-03-0.195D-03
 Coeff:     -0.349D-03 0.259D-03 0.960D-03 0.418D-02-0.394D-02-0.210D-01
 Coeff:     -0.222D-01 0.381D-01 0.102D+00-0.771D-02-0.328D+00-0.145D+00
 Coeff:      0.456D+00 0.927D+00
 Gap=     0.071 Goal=   None    Shift=    0.000
 Gap=     0.050 Goal=   None    Shift=    0.000
 RMSDP=3.43D-07 MaxDP=2.77D-05 DE=-5.35D-09 OVMax= 1.37D-04

 Cycle  24  Pass 1  IDiag  1:
 RMSU=  1.54D-07    CP:  1.00D+00  2.13D+00  1.12D+00
 E= -881.633030811484     Delta-E=       -0.000000001599 Rises=F Damp=F
 DIIS: error= 3.49D-07 at cycle  24 NSaved=  20.
 NSaved=20 IEnMin=20 EnMin= -881.633030811484     IErMin=20 ErrMin= 3.49D-07
 ErrMax= 3.49D-07  0.00D+00 EMaxC= 1.00D-01 BMatC= 2.71D-10 BMatP= 5.57D-10
 IDIUse=1 WtCom= 1.00D+00 WtEn= 0.00D+00
 Coeff-Com:  0.521D-05 0.708D-05-0.162D-04 0.140D-03-0.149D-03-0.139D-03
 Coeff-Com:  0.108D-03 0.388D-03 0.244D-02 0.174D-02-0.412D-02-0.138D-01
 Coeff-Com: -0.170D-01 0.412D-01 0.259D-01-0.386D-01-0.146D+00-0.187D+00
 Coeff-Com:  0.554D+00 0.780D+00
 Coeff:      0.521D-05 0.708D-05-0.162D-04 0.140D-03-0.149D-03-0.139D-03
 Coeff:      0.108D-03 0.388D-03 0.244D-02 0.174D-02-0.412D-02-0.138D-01
 Coeff:     -0.170D-01 0.412D-01 0.259D-01-0.386D-01-0.146D+00-0.187D+00
 Coeff:      0.554D+00 0.780D+00
 Gap=     0.071 Goal=   None    Shift=    0.000
 Gap=     0.050 Goal=   None    Shift=    0.000
 RMSDP=1.99D-07 MaxDP=1.58D-05 DE=-1.60D-09 OVMax= 7.92D-05

 Cycle  25  Pass 1  IDiag  1:
 RMSU=  4.89D-08    CP:  1.00D+00  2.34D+00  1.16D+00  1.60D+00
 E= -881.633030811904     Delta-E=       -0.000000000420 Rises=F Damp=F
 DIIS: error= 1.58D-07 at cycle  25 NSaved=  20.
 NSaved=20 IEnMin=20 EnMin= -881.633030811904     IErMin=20 ErrMin= 1.58D-07
 ErrMax= 1.58D-07  0.00D+00 EMaxC= 1.00D-01 BMatC= 4.64D-11 BMatP= 2.71D-10
 IDIUse=1 WtCom= 1.00D+00 WtEn= 0.00D+00
 Coeff-Com:  0.791D-05 0.664D-05 0.618D-04-0.133D-03-0.115D-04 0.772D-04
 Coeff-Com:  0.102D-03-0.505D-04 0.116D-02 0.307D-02 0.360D-03-0.118D-01
 Coeff-Com: -0.634D-02 0.586D-02 0.425D-01-0.234D-01-0.149D+00 0.481D-01
 Coeff-Com:  0.284D+00 0.805D+00
 Coeff:      0.791D-05 0.664D-05 0.618D-04-0.133D-03-0.115D-04 0.772D-04
 Coeff:      0.102D-03-0.505D-04 0.116D-02 0.307D-02 0.360D-03-0.118D-01
 Coeff:     -0.634D-02 0.586D-02 0.425D-01-0.234D-01-0.149D+00 0.481D-01
 Coeff:      0.284D+00 0.805D+00
 Gap=     0.071 Goal=   None    Shift=    0.000
 Gap=     0.050 Goal=   None    Shift=    0.000
 RMSDP=6.47D-08 MaxDP=4.65D-06 DE=-4.20D-10 OVMax= 1.74D-05

 Cycle  26  Pass 1  IDiag  1:
 RMSU=  2.55D-08    CP:  1.00D+00  2.42D+00  1.26D+00  1.57D+00  1.12D+00
 E= -881.633030811957     Delta-E=       -0.000000000053 Rises=F Damp=F
 DIIS: error= 1.02D-07 at cycle  26 NSaved=  20.
 NSaved=20 IEnMin=20 EnMin= -881.633030811957     IErMin=20 ErrMin= 1.02D-07
 ErrMax= 1.02D-07  0.00D+00 EMaxC= 1.00D-01 BMatC= 1.27D-11 BMatP= 4.64D-11
 IDIUse=1 WtCom= 1.00D+00 WtEn= 0.00D+00
 Coeff-Com:  0.398D-05 0.140D-04-0.427D-04 0.266D-04 0.255D-04-0.421D-04
 Coeff-Com: -0.508D-03 0.241D-03 0.255D-02 0.312D-02-0.238D-02-0.125D-01
 Coeff-Com: -0.315D-02 0.284D-01 0.227D-01-0.283D-01-0.943D-01-0.417D-01
 Coeff-Com:  0.394D+00 0.731D+00
 Coeff:      0.398D-05 0.140D-04-0.427D-04 0.266D-04 0.255D-04-0.421D-04
 Coeff:     -0.508D-03 0.241D-03 0.255D-02 0.312D-02-0.238D-02-0.125D-01
 Coeff:     -0.315D-02 0.284D-01 0.227D-01-0.283D-01-0.943D-01-0.417D-01
 Coeff:      0.394D+00 0.731D+00
 Gap=     0.071 Goal=   None    Shift=    0.000
 Gap=     0.050 Goal=   None    Shift=    0.000
 RMSDP=1.97D-08 MaxDP=1.39D-06 DE=-5.32D-11 OVMax= 4.94D-06

 Cycle  27  Pass 1  IDiag  1:
 RMSU=  6.62D-09    CP:  1.00D+00  2.44D+00  1.28D+00  1.58D+00  1.23D+00
                    CP:  1.26D+00
 E= -881.633030811972     Delta-E=       -0.000000000015 Rises=F Damp=F
 DIIS: error= 4.65D-08 at cycle  27 NSaved=  20.
 NSaved=20 IEnMin=20 EnMin= -881.633030811972     IErMin=20 ErrMin= 4.65D-08
 ErrMax= 4.65D-08  0.00D+00 EMaxC= 1.00D-01 BMatC= 2.23D-12 BMatP= 1.27D-11
 IDIUse=1 WtCom= 1.00D+00 WtEn= 0.00D+00
 Coeff-Com: -0.199D-04 0.129D-04 0.380D-04 0.632D-05-0.241D-05-0.353D-03
 Coeff-Com: -0.234D-03 0.715D-03 0.184D-02 0.201D-02-0.527D-02-0.363D-02
 Coeff-Com:  0.161D-02 0.181D-01 0.269D-01-0.510D-01-0.851D-01-0.714D-01
 Coeff-Com:  0.261D+00 0.905D+00
 Coeff:     -0.199D-04 0.129D-04 0.380D-04 0.632D-05-0.241D-05-0.353D-03
[...]
    20  C(13)              0.02429      13.65442       4.87224       4.55462
    21  C(13)              0.02419      13.59756       4.85195       4.53566
    22  C(13)             -0.01739      -9.77674      -3.48859      -3.26117
    23  H(1)              -0.00333      -7.44435      -2.65633      -2.48317
    24  C(13)             -0.01726      -9.70266      -3.46215      -3.23646
    25  H(1)              -0.00323      -7.21528      -2.57459      -2.40676
    26  C(13)              0.02701      15.17989       5.41656       5.06347
    27  H(1)               0.00134       2.99922       1.07020       1.00043
    28  H(1)               0.00131       2.92711       1.04447       0.97638
    29  H(1)              -0.00380      -8.48249      -3.02676      -2.82945
    30  C(13)             -0.00062      -0.35083      -0.12519      -0.11703
    31  C(13)              0.00072       0.40664       0.14510       0.13564
    32  C(13)              0.00112       0.62948       0.22461       0.20997
    33  C(13)             -0.00059      -0.33160      -0.11832      -0.11061
    34  H(1)              -0.00008      -0.18603      -0.06638      -0.06205
    35  C(13)             -0.00057      -0.32162      -0.11476      -0.10728
    36  H(1)              -0.00011      -0.24647      -0.08795      -0.08221
    37  C(13)              0.00102       0.57168       0.20399       0.19069
    38  H(1)               0.00005       0.11546       0.04120       0.03851
    39  H(1)               0.00009       0.20141       0.07187       0.06718
    40  H(1)              -0.00015      -0.33550      -0.11971      -0.11191
 --------------------------------------------------------
       Center         ----  Spin Dipole Couplings  ----
                      3XX-RR        3YY-RR        3ZZ-RR
 --------------------------------------------------------
     1   Atom       -0.346334      0.502481     -0.156146
     2   Atom       -0.015341     -0.049802      0.065144
     3   Atom       -0.006303      0.012237     -0.005933
     4   Atom       -0.001372      0.016329     -0.014957
     5   Atom       -0.184282      0.367069     -0.182787
     6   Atom        0.835749     -0.418649     -0.417101
     7   Atom       -0.011529     -0.038069      0.049598
     8   Atom        1.451535     -0.716860     -0.734675
     9   Atom        0.068157     -0.021632     -0.046525
    10   Atom       -0.016240      0.049535     -0.033295
    11   Atom       -0.001261     -0.003940      0.005201
    12   Atom       -0.003974     -0.005254      0.009228
    13   Atom        0.002987     -0.001821     -0.001166
    14   Atom        0.002553     -0.009056      0.006502
    15   Atom       -0.000929     -0.000091      0.001019
    16   Atom       -0.000950     -0.000358      0.001308
    17   Atom       -0.000227     -0.003459      0.003686
    18   Atom       -0.002305     -0.000065      0.002370
    19   Atom        0.060983     -0.072038      0.011055
    20   Atom       -0.098519      0.157461     -0.058942
    21   Atom       -0.101253      0.157559     -0.056306
    22   Atom        0.052092     -0.070749      0.018657
    23   Atom        0.000507     -0.003037      0.002530
    24   Atom        0.047662     -0.068107      0.020445
    25   Atom       -0.008104     -0.001941      0.010045
    26   Atom       -0.115253      0.181941     -0.066688
    27   Atom        0.006139     -0.003766     -0.002373
    28   Atom        0.004075     -0.003535     -0.000540
    29   Atom        0.016585     -0.003145     -0.013440
    30   Atom        0.001251      0.001190     -0.002440
    31   Atom       -0.002679      0.005441     -0.002762
    32   Atom       -0.003815      0.004188     -0.000373
    33   Atom        0.001644     -0.000250     -0.001394
    34   Atom       -0.000552      0.002576     -0.002024
    35   Atom        0.002098     -0.000881     -0.001218
    36   Atom       -0.000856      0.000970     -0.000114
    37   Atom       -0.004518      0.007656     -0.003138
    38   Atom        0.000052      0.000912     -0.000965
    39   Atom        0.000304      0.001014     -0.001318
    40   Atom        0.000930      0.000495     -0.001425
 --------------------------------------------------------
                        XY            XZ            YZ
 --------------------------------------------------------
     1   Atom        0.023680      0.012665      0.410488
     2   Atom       -0.009266     -0.001116      0.051687
     3   Atom       -0.000967     -0.000887      0.010971
     4   Atom       -0.004313     -0.000094      0.006884
     5   Atom        0.065690     -0.040061      0.310817
     6   Atom        0.038989      0.073541     -0.008550
     7   Atom        0.002868      0.006851      0.012554
     8   Atom       -0.348933      0.104500     -0.011845
     9   Atom        0.042198     -0.002545      0.004486
    10   Atom       -0.009929      0.000077      0.023899
    11   Atom        0.004612     -0.001168     -0.003139
    12   Atom        0.000365      0.000833     -0.005243
    13   Atom        0.004217      0.000826     -0.008152
    14   Atom        0.003722     -0.003127      0.001151
    15   Atom       -0.001660     -0.002276      0.005305
    16   Atom       -0.000702     -0.001196      0.002920
    17   Atom       -0.000696     -0.002818      0.006309
    18   Atom       -0.001231     -0.001933      0.005981
    19   Atom        0.000436     -0.004743     -0.046704
    20   Atom        0.011817      0.002233      0.109200
    21   Atom        0.011622      0.006301      0.116704
    22   Atom       -0.006063     -0.000819     -0.047862
    23   Atom       -0.002287      0.007349     -0.003660
    24   Atom       -0.003596     -0.007557     -0.049176
    25   Atom        0.001226     -0.002438     -0.005434
    26   Atom        0.015694      0.004263      0.136909
    27   Atom       -0.000553      0.000653     -0.000962
    28   Atom        0.001130     -0.002958     -0.001406
    29   Atom        0.002428     -0.007044      0.006099
    30   Atom       -0.002227     -0.000455      0.000174
    31   Atom       -0.001132      0.000521      0.002930
    32   Atom       -0.002457     -0.001573      0.007922
    33   Atom       -0.001520      0.000057     -0.002619
    34   Atom       -0.001285      0.000169     -0.001100
    35   Atom       -0.001875     -0.001216     -0.001173
    36   Atom       -0.001471     -0.001600      0.002699
    37   Atom       -0.001818     -0.000106      0.006217
    38   Atom       -0.000994      0.000293     -0.000728
    39   Atom       -0.001098     -0.000834      0.001306
    40   Atom       -0.001469      0.000377      0.000009
 --------------------------------------------------------


 ---------------------------------------------------------------------------------
              Anisotropic Spin Dipole Couplings in Principal Axis System
 ---------------------------------------------------------------------------------

       Atom             a.u.   MegaHertz   Gauss  10(-4) cm-1        Axes

              Baa    -0.3533   -47.411   -16.917   -15.815 -0.1836 -0.4210  0.8883
     1 C(13)  Bbb    -0.3468   -46.538   -16.606   -15.523  0.9827 -0.1022  0.1547
              Bcc     0.7001    93.948    33.523    31.338  0.0256  0.9013  0.4325
 
              Baa    -0.0709   -37.805   -13.490   -12.610  0.1473  0.9250 -0.3503
     2 H(1)   Bbb    -0.0143    -7.631    -2.723    -2.545  0.9881 -0.1221  0.0933
              Bcc     0.0852    45.436    16.213    15.156 -0.0435  0.3599  0.9320
 
              Baa    -0.0111    -1.493    -0.533    -0.498  0.0818 -0.4209  0.9034
     3 C(13)  Bbb    -0.0063    -0.850    -0.303    -0.284  0.9953  0.0824 -0.0517
              Bcc     0.0175     2.343     0.836     0.782 -0.0527  0.9034  0.4256
 
              Baa    -0.0164     1.190     0.425     0.397 -0.0546 -0.2121  0.9757
     4 O(17)  Bbb    -0.0022     0.161     0.057     0.054  0.9768  0.1913  0.0962
              Bcc     0.0187    -1.351    -0.482    -0.451 -0.2071  0.9583  0.1967
 
              Baa    -0.3478    25.168     8.981     8.395  0.3662 -0.3991  0.8406
     5 O(17)  Bbb    -0.1620    11.724     4.183     3.911  0.9284  0.0957 -0.3591
              Bcc     0.5098   -36.892   -13.164   -12.306  0.0629  0.9119  0.4056
 
              Baa    -0.4314   -16.640    -5.938    -5.550 -0.0633  0.6805  0.7300
     6 N(14)  Bbb    -0.4098   -15.804    -5.639    -5.272  0.0173  0.7321 -0.6810
              Bcc     0.8412    32.444    11.577    10.822  0.9978  0.0305  0.0581
 
              Baa    -0.0400   -21.320    -7.608    -7.112 -0.0676  0.9888 -0.1334
     7 H(1)   Bbb    -0.0122    -6.515    -2.325    -2.173  0.9914  0.0515 -0.1204
              Bcc     0.0522    27.836     9.933     9.285  0.1121  0.1404  0.9837
 
              Baa    -0.7722   -29.784   -10.628    -9.935  0.1598  0.9777 -0.1363
     8 N(14)  Bbb    -0.7390   -28.500   -10.170    -9.507 -0.0246  0.1419  0.9896
              Bcc     1.5112    58.284    20.797    19.442  0.9868 -0.1548  0.0467
 
              Baa    -0.0490   -26.135    -9.326    -8.718  0.1640 -0.4008  0.9014
     9 H(1)   Bbb    -0.0359   -19.153    -6.834    -6.389 -0.3296  0.8390  0.4330
              Bcc     0.0849    45.288    16.160    15.106  0.9298  0.3681 -0.0054
 
              Baa    -0.0400   -21.343    -7.616    -7.119 -0.1151 -0.2681  0.9565
    10 H(1)   Bbb    -0.0172    -9.168    -3.271    -3.058  0.9849  0.0946  0.1450
              Bcc     0.0572    30.511    10.887    10.177 -0.1294  0.9587  0.2531
 
              Baa    -0.0077    -1.030    -0.367    -0.343 -0.5595  0.8155  0.1481
    11 C(13)  Bbb     0.0006     0.082     0.029     0.027  0.7584  0.4316  0.4884
              Bcc     0.0071     0.948     0.338     0.316 -0.3344 -0.3855  0.8600
 
              Baa    -0.0071    -3.773    -1.346    -1.259 -0.1931  0.9311  0.3094
    12 H(1)   Bbb    -0.0039    -2.073    -0.740    -0.692  0.9801  0.1977  0.0168
              Bcc     0.0110     5.846     2.086     1.950  0.0456 -0.3065  0.9508
 
              Baa    -0.0106    -5.673    -2.024    -1.892 -0.2619  0.7199  0.6428
    13 H(1)   Bbb     0.0027     1.433     0.511     0.478  0.8370 -0.1622  0.5226
              Bcc     0.0079     4.240     1.513     1.414  0.4805  0.6749 -0.5601
 
              Baa    -0.0104    -5.542    -1.977    -1.849 -0.3011  0.9460 -0.1202
    14 H(1)   Bbb     0.0021     1.131     0.404     0.377  0.8089  0.3202  0.4931
              Bcc     0.0083     4.411     1.574     1.471 -0.5050 -0.0512  0.8616
 
              Baa    -0.0049    -0.657    -0.234    -0.219 -0.0893  0.7241 -0.6838
    15 C(13)  Bbb    -0.0019    -0.257    -0.092    -0.086  0.9359  0.2958  0.1910
              Bcc     0.0068     0.914     0.326     0.305 -0.3406  0.6230  0.7042
 
              Baa    -0.0026    -1.377    -0.491    -0.459 -0.1202  0.7758 -0.6195
    16 H(1)   Bbb    -0.0013    -0.705    -0.252    -0.235  0.9544  0.2620  0.1430
              Bcc     0.0039     2.082     0.743     0.695 -0.2732  0.5741  0.7719
 
              Baa    -0.0072    -3.863    -1.378    -1.289 -0.1252  0.8449 -0.5201
    17 H(1)   Bbb    -0.0010    -0.555    -0.198    -0.185  0.9416  0.2663  0.2060
              Bcc     0.0083     4.418     1.576     1.474 -0.3125  0.4640  0.8289
 
              Baa    -0.0050    -2.659    -0.949    -0.887 -0.1188  0.7548 -0.6452
    18 H(1)   Bbb    -0.0028    -1.487    -0.531    -0.496  0.9681  0.2323  0.0935
              Bcc     0.0078     4.146     1.479     1.383 -0.2204  0.6135  0.7583
 
              Baa    -0.0930   -12.482    -4.454    -4.163  0.0100  0.9121  0.4098
    19 C(13)  Bbb     0.0313     4.205     1.500     1.403  0.1501 -0.4065  0.9012
              Bcc     0.0617     8.277     2.954     2.761  0.9886  0.0525 -0.1410
 
              Baa    -0.1054   -14.147    -5.048    -4.719  0.3593 -0.3717  0.8560
    20 C(13)  Bbb    -0.0980   -13.153    -4.693    -4.388  0.9324  0.1047 -0.3459
              Bcc     0.2034    27.301     9.742     9.106  0.0389  0.9224  0.3842
 
              Baa    -0.1079   -14.473    -5.164    -4.828 -0.1766 -0.3897  0.9038
    21 C(13)  Bbb    -0.1016   -13.636    -4.866    -4.548  0.9834 -0.1094  0.1450
              Bcc     0.2095    28.109    10.030     9.376  0.0424  0.9144  0.4025
 
              Baa    -0.0918   -12.316    -4.395    -4.108  0.0409  0.9167  0.3976
    22 C(13)  Bbb     0.0392     5.265     1.879     1.756 -0.1258 -0.3900  0.9122
              Bcc     0.0525     7.051     2.516     2.352  0.9912 -0.0873  0.0994
 
              Baa    -0.0061    -3.278    -1.170    -1.093 -0.6441  0.3356  0.6874
    23 H(1)   Bbb    -0.0042    -2.218    -0.792    -0.740  0.4533  0.8913 -0.0103
              Bcc     0.0103     5.496     1.961     1.833  0.6161 -0.3049  0.7262
 
              Baa    -0.0903   -12.117    -4.324    -4.042  0.0461  0.9118  0.4080
    24 C(13)  Bbb     0.0390     5.237     1.869     1.747  0.5195 -0.3708  0.7698
              Bcc     0.0513     6.879     2.455     2.295  0.8532  0.1765 -0.4908
 
              Baa    -0.0085    -4.523    -1.614    -1.509  0.9897 -0.1022  0.1003
    25 H(1)   Bbb    -0.0040    -2.146    -0.766    -0.716  0.0585  0.9278  0.3685
              Bcc     0.0125     6.669     2.380     2.225 -0.1307 -0.3589  0.9242
 
              Baa    -0.1278   -17.151    -6.120    -5.721  0.2028 -0.4044  0.8918
    26 C(13)  Bbb    -0.1155   -15.494    -5.529    -5.168  0.9782  0.0420 -0.2034
              Bcc     0.2433    32.645    11.649    10.889  0.0448  0.9136  0.4041
 
              Baa    -0.0043    -2.273    -0.811    -0.758  0.0194  0.8935  0.4486
    27 H(1)   Bbb    -0.0020    -1.050    -0.374    -0.350 -0.1020 -0.4445  0.8899
              Bcc     0.0062     3.323     1.186     1.108  0.9946 -0.0630  0.0825
 
              Baa    -0.0041    -2.183    -0.779    -0.728  0.0066  0.9279  0.3729
    28 H(1)   Bbb    -0.0017    -0.915    -0.327    -0.305  0.4798 -0.3301  0.8129
              Bcc     0.0058     3.098     1.106     1.033  0.8774  0.1735 -0.4473
 
              Baa    -0.0179    -9.534    -3.402    -3.180  0.2105 -0.4035  0.8904
    29 H(1)   Bbb    -0.0003    -0.182    -0.065    -0.061  0.0375  0.9135  0.4051
              Bcc     0.0182     9.716     3.467     3.241  0.9769  0.0518 -0.2074
 
              Baa    -0.0025    -0.335    -0.120    -0.112  0.1437  0.0401  0.9888
    30 C(13)  Bbb    -0.0010    -0.132    -0.047    -0.044  0.6871  0.7151 -0.1289
              Bcc     0.0035     0.467     0.167     0.156  0.7122 -0.6979 -0.0752
 
              Baa    -0.0042    -0.563    -0.201    -0.188 -0.5053 -0.3049  0.8073
    31 C(13)  Bbb    -0.0023    -0.306    -0.109    -0.102  0.8571 -0.0681  0.5107
              Bcc     0.0065     0.869     0.310     0.290 -0.1007  0.9500  0.2957
 
              Baa    -0.0064    -0.854    -0.305    -0.285 -0.1081 -0.6130  0.7827
    32 C(13)  Bbb    -0.0044    -0.587    -0.209    -0.196  0.9746  0.0900  0.2050
              Bcc     0.0107     1.440     0.514     0.480 -0.1961  0.7849  0.5877
 
              Baa    -0.0037    -0.492    -0.176    -0.164  0.1773  0.6472  0.7414
    33 C(13)  Bbb     0.0006     0.085     0.030     0.028  0.7008  0.4459 -0.5568
              Bcc     0.0030     0.407     0.145     0.136  0.6910 -0.6183  0.3745
 
              Baa    -0.0023    -1.218    -0.435    -0.406  0.0851  0.2414  0.9667
    34 H(1)   Bbb    -0.0010    -0.522    -0.186    -0.174  0.9433  0.2928 -0.1561
              Bcc     0.0033     1.741     0.621     0.581 -0.3207  0.9252 -0.2028
 
              Baa    -0.0031    -0.421    -0.150    -0.140  0.3860  0.6576  0.6470
    35 C(13)  Bbb     0.0000     0.006     0.002     0.002 -0.1487 -0.6478  0.7472
              Bcc     0.0031     0.415     0.148     0.138  0.9104 -0.3846 -0.1522
 
              Baa    -0.0024    -1.305    -0.466    -0.435  0.3658 -0.4749  0.8004
    36 H(1)   Bbb    -0.0017    -0.890    -0.318    -0.297  0.8412  0.5366 -0.0660
              Bcc     0.0041     2.195     0.783     0.732 -0.3981  0.6975  0.5958
 
              Baa    -0.0063    -0.839    -0.299    -0.280 -0.3881 -0.4179  0.8214
    37 C(13)  Bbb    -0.0044    -0.595    -0.212    -0.198  0.9149 -0.0672  0.3981
              Bcc     0.0107     1.433     0.511     0.478 -0.1112  0.9060  0.4084
 
              Baa    -0.0012    -0.649    -0.232    -0.216  0.0547  0.3459  0.9367
    38 H(1)   Bbb    -0.0006    -0.302    -0.108    -0.101  0.8562  0.4665 -0.2222
              Bcc     0.0018     0.951     0.339     0.317 -0.5138  0.8141 -0.2706
 
              Baa    -0.0020    -1.045    -0.373    -0.349  0.1748 -0.3412  0.9236
    39 H(1)   Bbb    -0.0005    -0.262    -0.093    -0.087  0.8270  0.5600  0.0504
              Bcc     0.0024     1.307     0.466     0.436 -0.5344  0.7550  0.3801
 
              Baa    -0.0015    -0.817    -0.291    -0.272 -0.2602 -0.1931  0.9461
    40 H(1)   Bbb    -0.0007    -0.367    -0.131    -0.123  0.5967  0.7382  0.3147
              Bcc     0.0022     1.184     0.422     0.395  0.7592 -0.6464  0.0768
 

 ---------------------------------------------------------------------------------

 No NMR shielding tensors so no spin-rotation constants.
 Leave Link  601 at Thu May  9 00:54:07 2019, MaxMem=   104857600 cpu:              10.6 elap:               0.4
 (Enter /opt/software/gaussian/g16.b01/l9999.exe)
 1\1\GINC-GRA57\FOpt\UB3LYP\6-31G(d,p)\C16H20N2O2(3)\RZK\09-May-2019\0\
 \#p opt ub3lyp/6-31g(d,p) scrf=(iefpcm,solvent=acetonitrile) empirical
 dispersion=gd3\\Title Card Required\\0,3\C,0.5642293792,-1.7793693003,
 -0.3215306109\H,4.1024308373,-0.9149017489,1.1306061081\C,1.5958052931
 ,1.4710290781,0.3550059426\O,2.4804552417,1.5596860373,-0.5022498899\O
 ,1.4067021286,-2.1465033807,0.6809892672\N,4.325086853,-0.6763791458,-
 0.7431362677\H,4.0998227882,-1.0705454856,-1.6490367195\N,4.0055573154
 ,-1.4853380472,0.2847537702\H,2.362236397,-2.07351169,0.4035376522\H,4
 .1005034994,0.3175827259,-0.6590876835\C,1.1609720148,-1.5358487375,-1
 .6725251797\H,0.4122343423,-1.5681116737,-2.4645442512\H,1.6575521122,
 -0.5567411421,-1.7234219855\H,1.9127516274,-2.3019049359,-1.8975861074
 \C,1.9305737178,0.9929552485,1.7497579446\H,1.4496538675,1.6007743902,
 2.5196439025\H,1.5854062574,-0.0413138917,1.8656711605\H,3.0120894346,
 1.0277034658,1.8878903082\C,-0.8044636284,-1.6268148802,0.0231183113\C
 ,-1.2382990748,-1.8196892211,1.370170396\C,-1.8001000098,-1.2642103768
 ,-0.9309772822\C,-2.5712594864,-1.6664996118,1.7238098206\H,-0.5048284
 044,-2.0892496996,2.1211448578\C,-3.1282537904,-1.1178828616,-0.560702
 4825\H,-1.5209365223,-1.0783995139,-1.9620316451\C,-3.5345304861,-1.31
 78607524,0.7665657983\H,-2.8678947852,-1.8186940544,2.758557089\H,-3.8
 595980556,-0.8330404157,-1.3122988789\H,-4.5759211041,-1.1979589513,1.
 0488354446\C,0.1871466005,1.8138322243,0.0180584646\C,-0.0963526482,2.
 3027709691,-1.2691733338\C,-0.8631580835,1.6606888771,0.9383362066\C,-
 1.3975271562,2.6440307397,-1.623512535\H,0.7203305923,2.411455491,-1.9
 743724161\C,-2.1659074181,1.9995287716,0.5802150344\H,-0.6759371718,1.
 254617436,1.9249913938\C,-2.4346711981,2.4961768917,-0.6964651797\H,-1
 .6067934752,3.0244545808,-2.6187238301\H,-2.9729153999,1.8573825843,1.
 29074147\H,-3.451482401,2.758339007,-0.9733230643\\Version=ES64L-G16Re
 vB.01\State=3-A\HF=-881.6942586\S2=2.025945\S2-1=0.\S2A=2.000363\RMSD=
 4.823e-09\RMSF=7.707e-06\Dipole=-0.1815838,1.2564514,-0.2931711\Quadru
 pole=1.8997768,-10.1233921,8.2236153,-1.9970877,-0.2668072,2.9629494\P
 G=C01 [X(C16H20N2O2)]\\@


 WISDOM IS KNOWING WHAT TO DO,
 SKILL IS KNOWING HOW TO DO IT,
 AND VIRTUE IS NOT DOING IT.
 Job cpu time:       1 days  0 hours 47 minutes 23.5 seconds.
 Elapsed time:       0 days  0 hours 47 minutes 41.7 seconds.
 File lengths (MBytes):  RWF=    434 Int=      0 D2E=      0 Chk=     22 Scr=      1
 Normal termination of Gaussian 16 at Thu May  9 00:54:07 2019.
