 Entering Gaussian System, Link 0=g16
 Initial command:
 /opt/software/gaussian/g16.b01/l1.exe "/localscratch/rzk.15075186.0/Gau-7373.inp" -scrdir="/localscratch/rzk.15075186.0/"
 Entering Link 1 = /opt/software/gaussian/g16.b01/l1.exe PID=      7374.
  
 Copyright (c) 1988-2017, Gaussian, Inc.  All Rights Reserved.
  
 This is part of the Gaussian(R) 16 program.  It is based on
 the Gaussian(R) 09 system (copyright 2009, Gaussian, Inc.),
 the Gaussian(R) 03 system (copyright 2003, Gaussian, Inc.),
 the Gaussian(R) 98 system (copyright 1998, Gaussian, Inc.),
 the Gaussian(R) 94 system (copyright 1995, Gaussian, Inc.),
 the Gaussian 92(TM) system (copyright 1992, Gaussian, Inc.),
 the Gaussian 90(TM) system (copyright 1990, Gaussian, Inc.),
 the Gaussian 88(TM) system (copyright 1988, Gaussian, Inc.),
 the Gaussian 86(TM) system (copyright 1986, Carnegie Mellon
 University), and the Gaussian 82(TM) system (copyright 1983,
 Carnegie Mellon University). Gaussian is a federally registered
 trademark of Gaussian, Inc.
  
 This software contains proprietary and confidential information,
 including trade secrets, belonging to Gaussian, Inc.
  
 This software is provided under written license and may be
 used, copied, transmitted, or stored only in accord with that
 written license.
  
 The following legend is applicable only to US Government
 contracts under FAR:
  
                    RESTRICTED RIGHTS LEGEND
  
 Use, reproduction and disclosure by the US Government is
 subject to restrictions as set forth in subparagraphs (a)
 and (c) of the Commercial Computer Software - Restricted
 Rights clause in FAR 52.227-19.
  
 Gaussian, Inc.
 340 Quinnipiac St., Bldg. 40, Wallingford CT 06492
  
  
 ---------------------------------------------------------------
 Warning -- This program may not be used in any manner that
 competes with the business of Gaussian, Inc. or will provide
 assistance to any competitor of Gaussian, Inc.  The licensee
 of this program is prohibited from giving any competitor of
 Gaussian, Inc. access to this program.  By using this program,
 the user acknowledges that Gaussian, Inc. is engaged in the
 business of creating and licensing software in the field of
 computational chemistry and represents and warrants to the
 licensee that it is not a competitor of Gaussian, Inc. and that
 it will not use this program in any manner prohibited above.
 ---------------------------------------------------------------
  

 Cite this work as:
 Gaussian 16, Revision B.01,
 M. J. Frisch, G. W. Trucks, H. B. Schlegel, G. E. Scuseria, 
 M. A. Robb, J. R. Cheeseman, G. Scalmani, V. Barone, 
 G. A. Petersson, H. Nakatsuji, X. Li, M. Caricato, A. V. Marenich, 
 J. Bloino, B. G. Janesko, R. Gomperts, B. Mennucci, H. P. Hratchian, 
 J. V. Ortiz, A. F. Izmaylov, J. L. Sonnenberg, D. Williams-Young, 
 F. Ding, F. Lipparini, F. Egidi, J. Goings, B. Peng, A. Petrone, 
 T. Henderson, D. Ranasinghe, V. G. Zakrzewski, J. Gao, N. Rega, 
 G. Zheng, W. Liang, M. Hada, M. Ehara, K. Toyota, R. Fukuda, 
 J. Hasegawa, M. Ishida, T. Nakajima, Y. Honda, O. Kitao, H. Nakai, 
 T. Vreven, K. Throssell, J. A. Montgomery, Jr., J. E. Peralta, 
 F. Ogliaro, M. J. Bearpark, J. J. Heyd, E. N. Brothers, K. N. Kudin, 
 V. N. Staroverov, T. A. Keith, R. Kobayashi, J. Normand, 
 K. Raghavachari, A. P. Rendell, J. C. Burant, S. S. Iyengar, 
 J. Tomasi, M. Cossi, J. M. Millam, M. Klene, C. Adamo, R. Cammi, 
 J. W. Ochterski, R. L. Martin, K. Morokuma, O. Farkas, 
 J. B. Foresman, and D. J. Fox, Gaussian, Inc., Wallingford CT, 2016.
 
 ******************************************
 Gaussian 16:  ES64L-G16RevB.01 20-Dec-2017
                22-May-2019 
 ******************************************
 %NProcShared=32
 Will use up to   32 processors via shared memory.
 %chk=qst2.chk
 ----------------------------------------------------------------------
 #p opt=(calcfc,qst2) ub3lyp/6-31g(d,p) scrf=(iefpcm,solvent=acetonitri
 le) nosymm guess=(mix,always) empiricaldispersion=gd3
 ----------------------------------------------------------------------
 1/5=1,10=4,18=20,26=3,27=202,38=1/1,3;
 2/9=110,12=2,15=1,17=6,18=5,40=1/2;
 3/5=1,6=6,7=101,11=2,25=1,30=1,70=2201,71=2,72=2,74=-5,116=2,124=31,140=1/1,2,3;
 4/13=-1/1;
 5/5=2,38=5,53=2/2;
 8/6=4,10=90,11=11/1;
 11/6=1,8=1,9=11,15=111,16=1,31=1/1,2,10;
 10/6=1,13=1,31=1/2;
 6/7=2,8=2,9=2,10=2,28=1/1;
 7/10=1,18=20,25=1,30=1/1,2,3,16;
 1/5=1,10=4,18=20,26=3,27=202/3(2);
 2/9=110,15=1/2;
 99//99;
 2/9=110,15=1/2;
 3/5=1,6=6,7=101,11=2,25=1,30=1,70=2205,71=1,72=2,74=-5,116=2,124=31/1,2,3;
 4/13=-1/1;
 5/5=2,38=5,53=2/2;
 7/30=1/1,2,3,16;
 1/5=1,18=20,26=3,27=202/3(-5);
 2/9=110,15=1/2;
 6/7=2,8=2,9=2,10=2,19=2,28=1/1;
 99/9=1/99;
 Leave Link    1 at Wed May 22 18:23:41 2019, MaxMem=           0 cpu:               2.5 elap:               0.1
 (Enter /opt/software/gaussian/g16.b01/l101.exe)
 -------------------
 Title Card Required
 -------------------
 Symbolic Z-matrix:
 Charge =  0 Multiplicity = 1
 C                     0.93284  -0.83513  -0.5958 
 H                     4.99395  -0.61339   1.25142 
 C                     0.93318   0.83512   0.59502 
 O                     1.83041   1.41189  -0.03578 
 O                     1.83031  -1.41193   0.03464 
 N                     4.81384   0.68156  -0.25075 
 H                     4.9949    0.61325  -1.2502 
 N                     4.81374  -0.68172   0.25181 
 H                     3.87513  -1.07527   0.15918 
 H                     3.87509   1.07497  -0.15889 
 C                     1.27153  -0.24205  -1.96361 
 H                     1.09564  -1.04322  -2.69007 
 H                     0.66194   0.61358  -2.24628 
 H                     2.32366   0.03449  -1.975 
 C                     1.27237   0.24203   1.9627 
 H                     1.0965    1.0431    2.68927 
 H                     0.66301  -0.61373   2.24547 
 H                     2.32455  -0.03432   1.9738 
 C                    -0.48299  -1.34766  -0.41087 
 C                    -0.73414  -2.27268   0.61309 
 C                    -1.52097  -1.00211  -1.29019 
 C                    -2.00668  -2.81288   0.78075 
 H                     0.0819   -2.57081   1.26111 
 C                    -2.7894   -1.55288  -1.13079 
 H                    -1.35374  -0.28046  -2.08016 
 C                    -3.03961  -2.44941  -0.08778 
 H                    -2.19144  -3.52249   1.58122 
 H                    -3.5862   -1.27419  -1.81304 
 H                    -4.03318  -2.86711   0.04318 
 C                    -0.48275   1.34767   0.41065 
 C                    -0.73426   2.27274  -0.61318 
 C                    -1.52039   1.00212   1.29036 
 C                    -2.00686   2.81298  -0.78032 
 H                     0.08153   2.57086  -1.2615 
 C                    -2.78886   1.55292   1.13147 
 H                    -1.35286   0.28043   2.08023 
 C                    -3.03946   2.44949   0.08859 
 H                    -2.1919    3.52263  -1.5807 
 H                    -3.58542   1.27421   1.81401 
 H                    -4.03307   2.86724  -0.04195 
 
 Add virtual bond connecting atoms C3         and C1         Dist= 3.88D+00.
 Add virtual bond connecting atoms H9         and O5         Dist= 3.92D+00.
 Add virtual bond connecting atoms H10        and O4         Dist= 3.92D+00.
 -------------------
 Title Card Required
 -------------------
 Symbolic Z-matrix:
 Charge =  0 Multiplicity = 1
 C                     0.77644  -0.6179   -0.48127 
 H                     5.49966  -0.57888  -0.94613 
 C                     0.72956   0.63279   0.59593 
 O                     1.87056   1.45519   0.35898 
 O                     1.91659  -1.41277  -0.15735 
 N                     4.57488   0.41256   0.40109 
 H                     5.52535   0.73011   0.66821 
 N                     4.56001  -0.36573  -0.56252 
 H                     2.7174   -1.01935  -0.55051 
 H                     2.67897   0.9752    0.61647 
 C                     0.93806  -0.07433  -1.90497 
 H                     1.02429  -0.90989  -2.60484 
 H                     0.10158   0.55559  -2.20974 
 H                     1.84361   0.53462  -1.95572 
 C                     0.80523   0.08447   2.02582 
 H                     0.80985   0.917     2.7343 
 H                    -0.02666  -0.57947   2.26584 
 H                     1.72729  -0.49003   2.13838 
 C                    -0.4473   -1.51833  -0.33961 
 C                    -0.39004  -2.66914   0.46137 
 C                    -1.65981  -1.2219   -0.98041 
 C                    -1.5072   -3.48997   0.62423 
 H                     0.54183  -2.91916   0.95353 
 C                    -2.77761  -2.04304  -0.82302 
 H                    -1.7451   -0.3363   -1.59902 
 C                    -2.70833  -3.18109  -0.0176 
 H                    -1.43627  -4.37458   1.25113 
 H                    -3.70382  -1.78906  -1.33071 
 H                    -3.57783  -3.82022   0.10576 
 C                    -0.494     1.51535   0.37303 
 C                    -0.4124    2.6382   -0.46509 
 C                    -1.73035   1.22864   0.97081 
 C                    -1.52951   3.43904  -0.70737 
 H                     0.53803   2.88093  -0.92429 
 C                    -2.84867   2.02964   0.73348 
 H                    -1.83369   0.36534   1.61754 
 C                    -2.75526   3.13834  -0.10945 
 H                    -1.43969   4.30164  -1.36189 
 H                    -3.7941    1.783     1.20827 
 H                    -3.62506   3.76182  -0.29505 
 
 Add virtual bond connecting atoms H9         and N8         Dist= 3.69D+00.
 Add virtual bond connecting atoms H10        and N6         Dist= 3.76D+00.
 ITRead=  0  0  0  0  0  0  0  0  0  0  0  0  0  0  0  0  0  0  0  0
 ITRead=  0  0  0  0  0  0  0  0  0  0  0  0  0  0  0  0  0  0  0  0
 MicOpt= -1 -1 -1 -1 -1 -1 -1 -1 -1 -1 -1 -1 -1 -1 -1 -1 -1 -1 -1 -1
 MicOpt= -1 -1 -1 -1 -1 -1 -1 -1 -1 -1 -1 -1 -1 -1 -1 -1 -1 -1 -1 -1
 Iteration  1 RMS(Cart)=  0.23861843 RMS(Int)=  0.73256569
 Iteration  2 RMS(Cart)=  0.05157741 RMS(Int)=  0.72495610
 Iteration  3 RMS(Cart)=  0.02436595 RMS(Int)=  0.72082444
 Iteration  4 RMS(Cart)=  0.02161727 RMS(Int)=  0.71895446
 Iteration  5 RMS(Cart)=  0.02074276 RMS(Int)=  0.71869183
 Iteration  6 RMS(Cart)=  0.00756893 RMS(Int)=  0.71912829
 Iteration  7 RMS(Cart)=  0.00407650 RMS(Int)=  0.71972116
 Iteration  8 RMS(Cart)=  0.00391091 RMS(Int)=  0.72038107
 Iteration  9 RMS(Cart)=  0.00394556 RMS(Int)=  0.72104474
 Iteration 10 RMS(Cart)=  0.00393335 RMS(Int)=  0.72170843
 Iteration 11 RMS(Cart)=  0.00385036 RMS(Int)=  0.72236858
 Iteration 12 RMS(Cart)=  0.00377352 RMS(Int)=  0.72302177
 Iteration 13 RMS(Cart)=  0.00369568 RMS(Int)=  0.72366639
 Iteration 14 RMS(Cart)=  0.00361734 RMS(Int)=  0.72430190
 Iteration 15 RMS(Cart)=  0.00353912 RMS(Int)=  0.72492829
 Iteration 16 RMS(Cart)=  0.00346201 RMS(Int)=  0.72554583
 Iteration 17 RMS(Cart)=  0.00338685 RMS(Int)=  0.72615488
 Iteration 18 RMS(Cart)=  0.00331420 RMS(Int)=  0.72675584
 Iteration 19 RMS(Cart)=  0.00324440 RMS(Int)=  0.72734911
 Iteration 20 RMS(Cart)=  0.00317759 RMS(Int)=  0.72793506
 Iteration 21 RMS(Cart)=  0.00311381 RMS(Int)=  0.72851405
 Iteration 22 RMS(Cart)=  0.00305300 RMS(Int)=  0.72908640
 Iteration 23 RMS(Cart)=  0.00299506 RMS(Int)=  0.72965244
 Iteration 24 RMS(Cart)=  0.00293987 RMS(Int)=  0.73021244
 Iteration 25 RMS(Cart)=  0.00288729 RMS(Int)=  0.73076668
 Iteration 26 RMS(Cart)=  0.00283719 RMS(Int)=  0.73131542
 Iteration 27 RMS(Cart)=  0.00278941 RMS(Int)=  0.73185890
 Iteration 28 RMS(Cart)=  0.00274382 RMS(Int)=  0.73239735
 Iteration 29 RMS(Cart)=  0.00270030 RMS(Int)=  0.73293098
 Iteration 30 RMS(Cart)=  0.00265871 RMS(Int)=  0.73346000
 Iteration 31 RMS(Cart)=  0.00261895 RMS(Int)=  0.73398459
 Iteration 32 RMS(Cart)=  0.00258091 RMS(Int)=  0.73450494
 Iteration 33 RMS(Cart)=  0.00254448 RMS(Int)=  0.73502122
 Iteration 34 RMS(Cart)=  0.00250956 RMS(Int)=  0.73553360
 Iteration 35 RMS(Cart)=  0.00247607 RMS(Int)=  0.73604222
 Iteration 36 RMS(Cart)=  0.00241335 RMS(Int)=  0.73654179
 Iteration 37 RMS(Cart)=  0.00218615 RMS(Int)=  0.73700322
 Iteration 38 RMS(Cart)=  0.00193084 RMS(Int)=  0.73742863
 Iteration 39 RMS(Cart)=  0.00173397 RMS(Int)=  0.73781896
 Iteration 40 RMS(Cart)=  0.00156951 RMS(Int)=  0.73817652
 Iteration 41 RMS(Cart)=  0.00142684 RMS(Int)=  0.73850391
 Iteration 42 RMS(Cart)=  0.00130004 RMS(Int)=  0.73880366
 Iteration 43 RMS(Cart)=  0.00118595 RMS(Int)=  0.73907814
 Iteration 44 RMS(Cart)=  0.00108264 RMS(Int)=  0.73932949
 Iteration 45 RMS(Cart)=  0.00098875 RMS(Int)=  0.73955967
 Iteration 46 RMS(Cart)=  0.00090325 RMS(Int)=  0.73977046
 Iteration 47 RMS(Cart)=  0.00082530 RMS(Int)=  0.73996349
 Iteration 48 RMS(Cart)=  0.00075417 RMS(Int)=  0.74014023
 Iteration 49 RMS(Cart)=  0.00068925 RMS(Int)=  0.74030205
 Iteration 50 RMS(Cart)=  0.00062996 RMS(Int)=  0.74045020
 Iteration 51 RMS(Cart)=  0.00057581 RMS(Int)=  0.74058583
 Iteration 52 RMS(Cart)=  0.00052634 RMS(Int)=  0.74070997
 Iteration 53 RMS(Cart)=  0.00048114 RMS(Int)=  0.74082360
 Iteration 54 RMS(Cart)=  0.00043983 RMS(Int)=  0.74092759
 Iteration 55 RMS(Cart)=  0.00040209 RMS(Int)=  0.74102276
 Iteration 56 RMS(Cart)=  0.00036759 RMS(Int)=  0.74110984
 Iteration 57 RMS(Cart)=  0.00033606 RMS(Int)=  0.74118953
 Iteration 58 RMS(Cart)=  0.00030725 RMS(Int)=  0.74126244
 Iteration 59 RMS(Cart)=  0.00028090 RMS(Int)=  0.74132915
 Iteration 60 RMS(Cart)=  0.00025683 RMS(Int)=  0.74139019
 Iteration 61 RMS(Cart)=  0.00023481 RMS(Int)=  0.74144603
 Iteration 62 RMS(Cart)=  0.00021469 RMS(Int)=  0.74149711
 Iteration 63 RMS(Cart)=  0.00019630 RMS(Int)=  0.74154383
 Iteration 64 RMS(Cart)=  0.00017948 RMS(Int)=  0.74158658
 Iteration 65 RMS(Cart)=  0.00016411 RMS(Int)=  0.74162568
 Iteration 66 RMS(Cart)=  0.00015005 RMS(Int)=  0.74166144
 Iteration 67 RMS(Cart)=  0.00013720 RMS(Int)=  0.74169415
 Iteration 68 RMS(Cart)=  0.00012545 RMS(Int)=  0.74172408
 Iteration 69 RMS(Cart)=  0.00011471 RMS(Int)=  0.74175144
 Iteration 70 RMS(Cart)=  0.00010489 RMS(Int)=  0.74177647
 Iteration 71 RMS(Cart)=  0.00009590 RMS(Int)=  0.74179937
 Iteration 72 RMS(Cart)=  0.00008769 RMS(Int)=  0.74182031
 Iteration 73 RMS(Cart)=  0.00008019 RMS(Int)=  0.74183945
 Iteration 74 RMS(Cart)=  0.00007332 RMS(Int)=  0.74185697
 Iteration 75 RMS(Cart)=  0.00006705 RMS(Int)=  0.74187299
 Iteration 76 RMS(Cart)=  0.00006131 RMS(Int)=  0.74188763
 Iteration 77 RMS(Cart)=  0.00005606 RMS(Int)=  0.74190103
 Iteration 78 RMS(Cart)=  0.00005126 RMS(Int)=  0.74191328
 Iteration 79 RMS(Cart)=  0.00004687 RMS(Int)=  0.74192448
 Iteration 80 RMS(Cart)=  0.00004286 RMS(Int)=  0.74193473
 Iteration 81 RMS(Cart)=  0.00003919 RMS(Int)=  0.74194410
 Iteration 82 RMS(Cart)=  0.00003584 RMS(Int)=  0.74195267
 Iteration 83 RMS(Cart)=  0.00003277 RMS(Int)=  0.74196051
 Iteration 84 RMS(Cart)=  0.00002997 RMS(Int)=  0.74196767
 Iteration 85 RMS(Cart)=  0.00002740 RMS(Int)=  0.74197423
 Iteration 86 RMS(Cart)=  0.00002506 RMS(Int)=  0.74198022
 Iteration 87 RMS(Cart)=  0.00002291 RMS(Int)=  0.74198570
 Iteration 88 RMS(Cart)=  0.00002095 RMS(Int)=  0.74199071
 Iteration 89 RMS(Cart)=  0.00001916 RMS(Int)=  0.74199529
 Iteration 90 RMS(Cart)=  0.00001752 RMS(Int)=  0.74199949
 Iteration 91 RMS(Cart)=  0.00001602 RMS(Int)=  0.74200332
 Iteration 92 RMS(Cart)=  0.00001465 RMS(Int)=  0.74200682
 Iteration 93 RMS(Cart)=  0.00001340 RMS(Int)=  0.74201003
 Iteration 94 RMS(Cart)=  0.00001225 RMS(Int)=  0.74201296
 Iteration 95 RMS(Cart)=  0.00001120 RMS(Int)=  0.74201564
 Iteration 96 RMS(Cart)=  0.00001024 RMS(Int)=  0.74201809
 Iteration 97 RMS(Cart)=  0.00000937 RMS(Int)=  0.74202033
 Iteration 98 RMS(Cart)=  0.00000856 RMS(Int)=  0.74202238
 Iteration 99 RMS(Cart)=  0.00000783 RMS(Int)=  0.74202425
 Iteration100 RMS(Cart)=  0.00000716 RMS(Int)=  0.74202597
 New curvilinear step not converged.
 FormGI is forming the generalized inverse of G from B-inverse, IUseBI=4.
 RedQX1 iteration     1 Try  1 RMS(Cart)=  0.16491145 RMS(Int)=  0.69223179 XScale=  7.82501493
 RedQX1 iteration     1 Try  2 RMS(Cart)=  0.16625930 RMS(Int)=  0.64647982 XScale=  3.99176025
 RedQX1 iteration     1 Try  3 RMS(Cart)=  0.17370792 RMS(Int)=  0.61372649 XScale=  2.69770998
 RedQX1 iteration     1 Try  4 RMS(Cart)=  0.19796917 RMS(Int)=  0.59270086 XScale=  2.00900928
 RedQX1 iteration     1 Try  5 RMS(Cart)=  0.28588309 RMS(Int)=  0.58368843 XScale=  1.50299804
 RedQX1 iteration     1 Try  6 RMS(Cart)=  0.21844803 RMS(Int)=  0.58471129 XScale=  1.31561494
 RedQX1 iteration     2 Try  1 RMS(Cart)=  0.06070276 RMS(Int)=  0.58465457 XScale=  1.31125328
 RedQX1 iteration     2 Try  2 RMS(Cart)=  0.06593728 RMS(Int)=  0.58468312 XScale=  1.31344637
 RedQX1 iteration     2 Try  3 RMS(Cart)=  0.07038625 RMS(Int)=  0.58435715 XScale=  1.32868315
 RedQX1 iteration     2 Try  4 RMS(Cart)=  0.07716148 RMS(Int)=  0.58303307 XScale=  1.37433005
 RedQX1 iteration     2 Try  5 RMS(Cart)=  0.14122118 RMS(Int)=  0.58088940 XScale=  1.54555170
 RedQX1 iteration     2 Try  6 RMS(Cart)=  0.19062859 RMS(Int)=  0.58502122 XScale=  1.71092409
 RedQX1 iteration     3 Try  1 RMS(Cart)=  0.03009818 RMS(Int)=  0.58071382 XScale=  1.68858403
 RedQX1 iteration     3 Try  2 RMS(Cart)=  0.03136809 RMS(Int)=  0.57745624 XScale=  1.65701342
 RedQX1 iteration     3 Try  3 RMS(Cart)=  0.03564801 RMS(Int)=  0.57511344 XScale=  1.61518146
 RedQX1 iteration     3 Try  4 RMS(Cart)=  0.04818731 RMS(Int)=  0.57383651 XScale=  1.56029912
 RedQX1 iteration     3 Try  5 RMS(Cart)=  0.09085538 RMS(Int)=  0.57487863 XScale=  1.48299955
 RedQX1 iteration     3 Try  6 RMS(Cart)=  0.07747331 RMS(Int)=  0.57554938 XScale=  1.46757071
 RedQX1 iteration     4 Try  1 RMS(Cart)=  0.01613556 RMS(Int)=  0.57509620 XScale=  1.47479224
 RedQX1 iteration     4 Try  2 RMS(Cart)=  0.01932392 RMS(Int)=  0.57464185 XScale=  1.48360607
 RedQX1 iteration     4 Try  3 RMS(Cart)=  0.02406881 RMS(Int)=  0.57418817 XScale=  1.49504025
 RedQX1 iteration     4 Try  4 RMS(Cart)=  0.03224775 RMS(Int)=  0.57369540 XScale=  1.51257187
 RedQX1 iteration     4 Try  5 RMS(Cart)=  0.05410717 RMS(Int)=  0.57342349 XScale=  1.55338830
 RedQX1 iteration     4 Try  6 RMS(Cart)=  0.05537048 RMS(Int)=  0.57385074 XScale=  1.57057999
 RedQX1 iteration     5 Try  1 RMS(Cart)=  0.01201680 RMS(Int)=  0.57339148 XScale=  1.56503561
 RedQX1 iteration     5 Try  2 RMS(Cart)=  0.01323345 RMS(Int)=  0.57302568 XScale=  1.55799630
 RedQX1 iteration     5 Try  3 RMS(Cart)=  0.01513833 RMS(Int)=  0.57277475 XScale=  1.54916928
 RedQX1 iteration     5 Try  4 RMS(Cart)=  0.01886841 RMS(Int)=  0.57266900 XScale=  1.53793818
 RedQX1 iteration     5 Try  5 RMS(Cart)=  0.03112751 RMS(Int)=  0.57286582 XScale=  1.52174097
 RedQX1 iteration     5 Try  6 RMS(Cart)=  0.03262904 RMS(Int)=  0.57285471 XScale=  1.51491074
 RedQX1 iteration     6 Try  1 RMS(Cart)=  0.00639408 RMS(Int)=  0.57273685 XScale=  1.51537011
 RedQX1 iteration     6 Try  2 RMS(Cart)=  0.00740123 RMS(Int)=  0.57261002 XScale=  1.51643165
 RedQX1 iteration     6 Try  3 RMS(Cart)=  0.00915040 RMS(Int)=  0.57246399 XScale=  1.51885549
 RedQX1 iteration     6 Try  4 RMS(Cart)=  0.01287467 RMS(Int)=  0.57228112 XScale=  1.52474807
 RedQX1 iteration     6 Try  5 RMS(Cart)=  0.02482798 RMS(Int)=  0.57221742 XScale=  1.54135673
 RedQX1 iteration     6 Try  6 RMS(Cart)=  0.02768845 RMS(Int)=  0.57238013 XScale=  1.55171981
 RedQX1 iteration     7 Try  1 RMS(Cart)=  0.00535816 RMS(Int)=  0.57229907 XScale=  1.55019602
 RedQX1 iteration     7 Try  2 RMS(Cart)=  0.00604592 RMS(Int)=  0.57223012 XScale=  1.54789656
 RedQX1 iteration     7 Try  3 RMS(Cart)=  0.00721286 RMS(Int)=  0.57217781 XScale=  1.54448120
 RedQX1 iteration     7 Try  4 RMS(Cart)=  0.00964595 RMS(Int)=  0.57215024 XScale=  1.53916746
 RedQX1 iteration     7 Try  5 RMS(Cart)=  0.01738657 RMS(Int)=  0.57220588 XScale=  1.52896780
 RedQX1 iteration     7 Try  6 RMS(Cart)=  0.01749763 RMS(Int)=  0.57220131 XScale=  1.52184562
 RedQX1 iteration     8 Try  1 RMS(Cart)=  0.00352962 RMS(Int)=  0.57215126 XScale=  1.52229066
 RedQX1 iteration     8 Try  2 RMS(Cart)=  0.00419236 RMS(Int)=  0.57209394 XScale=  1.52336775
 RedQX1 iteration     8 Try  3 RMS(Cart)=  0.00530208 RMS(Int)=  0.57202532 XScale=  1.52559848
 RedQX1 iteration     8 Try  4 RMS(Cart)=  0.00751851 RMS(Int)=  0.57194373 XScale=  1.53018053
 RedQX1 iteration     8 Try  5 RMS(Cart)=  0.01418397 RMS(Int)=  0.57191756 XScale=  1.54057533
 RedQX1 iteration     8 Try  6 RMS(Cart)=  0.01509969 RMS(Int)=  0.57198714 XScale=  1.54569553
 RedQX1 iteration     9 Try  1 RMS(Cart)=  0.00298822 RMS(Int)=  0.57197182 XScale=  1.54459741
 RedQX1 iteration     9 Try  2 RMS(Cart)=  0.00343539 RMS(Int)=  0.57195985 XScale=  1.54299800
 RedQX1 iteration     9 Try  3 RMS(Cart)=  0.00418215 RMS(Int)=  0.57195244 XScale=  1.54065593
 RedQX1 iteration     9 Try  4 RMS(Cart)=  0.00569234 RMS(Int)=  0.57195227 XScale=  1.53704152
 RedQX1 iteration     9 Try  5 RMS(Cart)=  0.01032483 RMS(Int)=  0.57198111 XScale=  1.53033461
 RedQX1 iteration     9 Try  6 RMS(Cart)=  0.01037687 RMS(Int)=  0.57196905 XScale=  1.52679919
 RedQX1 iteration    10 Try  1 RMS(Cart)=  0.00216016 RMS(Int)=  0.57194355 XScale=  1.52747915
 RedQX1 iteration    10 Try  2 RMS(Cart)=  0.00256074 RMS(Int)=  0.57191418 XScale=  1.52860330
 RedQX1 iteration    10 Try  3 RMS(Cart)=  0.00321838 RMS(Int)=  0.57188007 XScale=  1.53045163
 RedQX1 iteration    10 Try  4 RMS(Cart)=  0.00450854 RMS(Int)=  0.57184271 XScale=  1.53359921
 RedQX1 iteration    10 Try  5 RMS(Cart)=  0.00835599 RMS(Int)=  0.57183078 XScale=  1.53952304
 RedQX1 iteration    10 Try  6 RMS(Cart)=  0.00869009 RMS(Int)=  0.57187012 XScale=  1.54134933
 RedQX1 iteration    11 Try  1 RMS(Cart)=  0.00175060 RMS(Int)=  0.57186999 XScale=  1.54053071
 RedQX1 iteration    11 Try  2 RMS(Cart)=  0.00203418 RMS(Int)=  0.57187115 XScale=  1.53941202
 RedQX1 iteration    11 Try  3 RMS(Cart)=  0.00250284 RMS(Int)=  0.57187390 XScale=  1.53785269
 RedQX1 iteration    11 Try  4 RMS(Cart)=  0.00343318 RMS(Int)=  0.57187876 XScale=  1.53556042
 RedQX1 iteration    11 Try  5 RMS(Cart)=  0.00622682 RMS(Int)=  0.57189152 XScale=  1.53163683
 RedQX1 iteration    11 Try  6 RMS(Cart)=  0.00625516 RMS(Int)=  0.57187451 XScale=  1.53037900
 RedQX1 iteration    12 Try  1 RMS(Cart)=  0.00132468 RMS(Int)=  0.57186124 XScale=  1.53098860
 RedQX1 iteration    12 Try  2 RMS(Cart)=  0.00156639 RMS(Int)=  0.57184637 XScale=  1.53186426
 RedQX1 iteration    12 Try  3 RMS(Cart)=  0.00195891 RMS(Int)=  0.57182996 XScale=  1.53314237
 RedQX1 iteration    12 Try  4 RMS(Cart)=  0.00272164 RMS(Int)=  0.57181353 XScale=  1.53507952
 RedQX1 iteration    12 Try  5 RMS(Cart)=  0.00498069 RMS(Int)=  0.57181043 XScale=  1.53825133
 RedQX1 iteration    12 Try  6 RMS(Cart)=  0.00509149 RMS(Int)=  0.57183567 XScale=  1.53862255
 RedQX1 iteration    13 Try  1 RMS(Cart)=  0.00104866 RMS(Int)=  0.57183812 XScale=  1.53805256
 RedQX1 iteration    13 Try  2 RMS(Cart)=  0.00122640 RMS(Int)=  0.57184107 XScale=  1.53730949
 RedQX1 iteration    13 Try  3 RMS(Cart)=  0.00151678 RMS(Int)=  0.57184447 XScale=  1.53631851
 RedQX1 iteration    13 Try  4 RMS(Cart)=  0.00208405 RMS(Int)=  0.57184803 XScale=  1.53493515
 RedQX1 iteration    13 Try  5 RMS(Cart)=  0.00376221 RMS(Int)=  0.57185156 XScale=  1.53278372
 RedQX1 iteration    13 Try  6 RMS(Cart)=  0.00378239 RMS(Int)=  0.57183616 XScale=  1.53259194
 RedQX1 iteration    14 Try  1 RMS(Cart)=  0.00081157 RMS(Int)=  0.57182939 XScale=  1.53304496
 RedQX1 iteration    14 Try  2 RMS(Cart)=  0.00095764 RMS(Int)=  0.57182210 XScale=  1.53364590
 RedQX1 iteration    14 Try  3 RMS(Cart)=  0.00119300 RMS(Int)=  0.57181451 XScale=  1.53445736
 RedQX1 iteration    14 Try  4 RMS(Cart)=  0.00164671 RMS(Int)=  0.57180774 XScale=  1.53558573
 RedQX1 iteration    14 Try  5 RMS(Cart)=  0.00298124 RMS(Int)=  0.57180883 XScale=  1.53721393
 RedQX1 iteration    14 Try  6 RMS(Cart)=  0.00302047 RMS(Int)=  0.57182514 XScale=  1.53703194
 RedQX1 iteration    15 Try  1 RMS(Cart)=  0.00063589 RMS(Int)=  0.57182724 XScale=  1.53665226
 RedQX1 iteration    15 Try  2 RMS(Cart)=  0.00074599 RMS(Int)=  0.57182948 XScale=  1.53617614
 RedQX1 iteration    15 Try  3 RMS(Cart)=  0.00092381 RMS(Int)=  0.57183170 XScale=  1.53556714
 RedQX1 iteration    15 Try  4 RMS(Cart)=  0.00126664 RMS(Int)=  0.57183342 XScale=  1.53476291
 RedQX1 iteration    15 Try  5 RMS(Cart)=  0.00227173 RMS(Int)=  0.57183279 XScale=  1.53364949
 RedQX1 iteration    15 Try  6 RMS(Cart)=  0.00229285 RMS(Int)=  0.57182135 XScale=  1.53386678
 RedQX1 iteration    16 Try  1 RMS(Cart)=  0.00049706 RMS(Int)=  0.57181797 XScale=  1.53417374
 RedQX1 iteration    16 Try  2 RMS(Cart)=  0.00058538 RMS(Int)=  0.57181449 XScale=  1.53455891
 RedQX1 iteration    16 Try  3 RMS(Cart)=  0.00072664 RMS(Int)=  0.57181114 XScale=  1.53504885
 RedQX1 iteration    16 Try  4 RMS(Cart)=  0.00099692 RMS(Int)=  0.57180868 XScale=  1.53568124
 RedQX1 iteration    16 Try  5 RMS(Cart)=  0.00178796 RMS(Int)=  0.57181113 XScale=  1.53647591
 RedQX1 iteration    16 Try  6 RMS(Cart)=  0.00181032 RMS(Int)=  0.57182146 XScale=  1.53613850
 RedQX1 iteration    17 Try  1 RMS(Cart)=  0.00038805 RMS(Int)=  0.57182281 XScale=  1.53589432
 RedQX1 iteration    17 Try  2 RMS(Cart)=  0.00045551 RMS(Int)=  0.57182413 XScale=  1.53559872
 RedQX1 iteration    17 Try  3 RMS(Cart)=  0.00056335 RMS(Int)=  0.57182528 XScale=  1.53523615
 RedQX1 iteration    17 Try  4 RMS(Cart)=  0.00076919 RMS(Int)=  0.57182579 XScale=  1.53478601
 RedQX1 iteration    17 Try  5 RMS(Cart)=  0.00137071 RMS(Int)=  0.57182380 XScale=  1.53424989
 RedQX1 iteration    17 Try  6 RMS(Cart)=  0.00139398 RMS(Int)=  0.57181612 XScale=  1.53456798
 RedQX1 iteration    18 Try  1 RMS(Cart)=  0.00030439 RMS(Int)=  0.57181448 XScale=  1.53476439
 RedQX1 iteration    18 Try  2 RMS(Cart)=  0.00035768 RMS(Int)=  0.57181288 XScale=  1.53500013
 RedQX1 iteration    18 Try  3 RMS(Cart)=  0.00044233 RMS(Int)=  0.57181151 XScale=  1.53528478
 RedQX1 iteration    18 Try  4 RMS(Cart)=  0.00060327 RMS(Int)=  0.57181087 XScale=  1.53562610
 RedQX1 iteration    18 Try  5 RMS(Cart)=  0.00107377 RMS(Int)=  0.57181338 XScale=  1.53598457
 RedQX1 iteration    18 Try  6 RMS(Cart)=  0.00109436 RMS(Int)=  0.57181977 XScale=  1.53565433
 RedQX1 iteration    19 Try  1 RMS(Cart)=  0.00023741 RMS(Int)=  0.57182052 XScale=  1.53550232
 RedQX1 iteration    19 Try  2 RMS(Cart)=  0.00027836 RMS(Int)=  0.57182119 XScale=  1.53532450
 RedQX1 iteration    19 Try  3 RMS(Cart)=  0.00034326 RMS(Int)=  0.57182166 XScale=  1.53511583
 RedQX1 iteration    19 Try  4 RMS(Cart)=  0.00046637 RMS(Int)=  0.57182157 XScale=  1.53487474
 RedQX1 iteration    19 Try  5 RMS(Cart)=  0.00082690 RMS(Int)=  0.57181949 XScale=  1.53464378
 RedQX1 iteration    19 Try  6 RMS(Cart)=  0.00085027 RMS(Int)=  0.57181464 XScale=  1.53493700
 RedQX1 iteration    20 Try  1 RMS(Cart)=  0.00018630 RMS(Int)=  0.57181387 XScale=  1.53505744
 RedQX1 iteration    20 Try  2 RMS(Cart)=  0.00021833 RMS(Int)=  0.57181319 XScale=  1.53519639
 RedQX1 iteration    20 Try  3 RMS(Cart)=  0.00026892 RMS(Int)=  0.57181271 XScale=  1.53535587
 RedQX1 iteration    20 Try  4 RMS(Cart)=  0.00036471 RMS(Int)=  0.57181279 XScale=  1.53553192
 RedQX1 iteration    20 Try  5 RMS(Cart)=  0.00064586 RMS(Int)=  0.57181487 XScale=  1.53567144
 RedQX1 iteration    20 Try  6 RMS(Cart)=  0.00066611 RMS(Int)=  0.57181871 XScale=  1.53540348
 Old curvilinear step not converged, using linear step:
 SCX= 4.29D+00 DXMaxT= 0.00D+00 SCLim= 0.00D+00 Fact= 0.00D+00
 RedCar/ORedCr failed for GTrans.
 Error termination via Lnk1e in /opt/software/gaussian/g16.b01/l101.exe at Wed May 22 18:23:42 2019.
 Job cpu time:       0 days  0 hours  0 minutes 13.7 seconds.
 Elapsed time:       0 days  0 hours  0 minutes  0.6 seconds.
 File lengths (MBytes):  RWF=      6 Int=      0 D2E=      0 Chk=      2 Scr=      1
