 Entering Gaussian System, Link 0=g16
 Initial command:
 /opt/software/gaussian/g16.b01/l1.exe "/localscratch/rzk.14510578.0/Gau-16905.inp" -scrdir="/localscratch/rzk.14510578.0/"
 Entering Link 1 = /opt/software/gaussian/g16.b01/l1.exe PID=     16906.
  
 Copyright (c) 1988-2017, Gaussian, Inc.  All Rights Reserved.
  
 This is part of the Gaussian(R) 16 program.  It is based on
 the Gaussian(R) 09 system (copyright 2009, Gaussian, Inc.),
 the Gaussian(R) 03 system (copyright 2003, Gaussian, Inc.),
 the Gaussian(R) 98 system (copyright 1998, Gaussian, Inc.),
 the Gaussian(R) 94 system (copyright 1995, Gaussian, Inc.),
 the Gaussian 92(TM) system (copyright 1992, Gaussian, Inc.),
 the Gaussian 90(TM) system (copyright 1990, Gaussian, Inc.),
 the Gaussian 88(TM) system (copyright 1988, Gaussian, Inc.),
 the Gaussian 86(TM) system (copyright 1986, Carnegie Mellon
 University), and the Gaussian 82(TM) system (copyright 1983,
 Carnegie Mellon University). Gaussian is a federally registered
 trademark of Gaussian, Inc.
  
 This software contains proprietary and confidential information,
 including trade secrets, belonging to Gaussian, Inc.
  
 This software is provided under written license and may be
 used, copied, transmitted, or stored only in accord with that
 written license.
  
 The following legend is applicable only to US Government
 contracts under FAR:
  
                    RESTRICTED RIGHTS LEGEND
  
 Use, reproduction and disclosure by the US Government is
 subject to restrictions as set forth in subparagraphs (a)
 and (c) of the Commercial Computer Software - Restricted
 Rights clause in FAR 52.227-19.
  
 Gaussian, Inc.
 340 Quinnipiac St., Bldg. 40, Wallingford CT 06492
  
  
 ---------------------------------------------------------------
 Warning -- This program may not be used in any manner that
 competes with the business of Gaussian, Inc. or will provide
 assistance to any competitor of Gaussian, Inc.  The licensee
 of this program is prohibited from giving any competitor of
 Gaussian, Inc. access to this program.  By using this program,
 the user acknowledges that Gaussian, Inc. is engaged in the
 business of creating and licensing software in the field of
 computational chemistry and represents and warrants to the
 licensee that it is not a competitor of Gaussian, Inc. and that
 it will not use this program in any manner prohibited above.
 ---------------------------------------------------------------
  

 Cite this work as:
 Gaussian 16, Revision B.01,
 M. J. Frisch, G. W. Trucks, H. B. Schlegel, G. E. Scuseria, 
 M. A. Robb, J. R. Cheeseman, G. Scalmani, V. Barone, 
 G. A. Petersson, H. Nakatsuji, X. Li, M. Caricato, A. V. Marenich, 
 J. Bloino, B. G. Janesko, R. Gomperts, B. Mennucci, H. P. Hratchian, 
 J. V. Ortiz, A. F. Izmaylov, J. L. Sonnenberg, D. Williams-Young, 
 F. Ding, F. Lipparini, F. Egidi, J. Goings, B. Peng, A. Petrone, 
 T. Henderson, D. Ranasinghe, V. G. Zakrzewski, J. Gao, N. Rega, 
 G. Zheng, W. Liang, M. Hada, M. Ehara, K. Toyota, R. Fukuda, 
 J. Hasegawa, M. Ishida, T. Nakajima, Y. Honda, O. Kitao, H. Nakai, 
 T. Vreven, K. Throssell, J. A. Montgomery, Jr., J. E. Peralta, 
 F. Ogliaro, M. J. Bearpark, J. J. Heyd, E. N. Brothers, K. N. Kudin, 
 V. N. Staroverov, T. A. Keith, R. Kobayashi, J. Normand, 
 K. Raghavachari, A. P. Rendell, J. C. Burant, S. S. Iyengar, 
 J. Tomasi, M. Cossi, J. M. Millam, M. Klene, C. Adamo, R. Cammi, 
 J. W. Ochterski, R. L. Martin, K. Morokuma, O. Farkas, 
 J. B. Foresman, and D. J. Fox, Gaussian, Inc., Wallingford CT, 2016.
 
 ******************************************
 Gaussian 16:  ES64L-G16RevB.01 20-Dec-2017
                 8-May-2019 
 ******************************************
 %NProcShared=32
 Will use up to   32 processors via shared memory.
 %chk=Ketone.chk
 ----------------------------------------------------------------------
 #p opt freq rb3lyp/6-31g(d,p) scrf=(iefpcm,solvent=acetonitrile) empir
 icaldispersion=gd3
 ----------------------------------------------------------------------
 1/18=20,19=15,26=3,38=1/1,3;
 2/9=110,12=2,17=6,18=5,40=1/2;
 3/5=1,6=6,7=101,11=2,25=1,30=1,70=2201,71=1,72=2,74=-5,116=1,124=31/1,2,3;
 4//1;
 5/5=2,38=5,53=2/2;
 6/7=2,8=2,9=2,10=2,28=1/1;
 7//1,2,3,16;
 1/18=20,19=15,26=3/3(2);
 2/9=110/2;
 99//99;
 2/9=110/2;
 3/5=1,6=6,7=101,11=2,25=1,30=1,70=2205,71=1,72=2,74=-5,116=1,124=31/1,2,3;
 4/5=5,16=3,69=1/1;
 5/5=2,38=5,53=2/2;
 7//1,2,3,16;
 1/18=20,19=15,26=3/3(-5);
 2/9=110/2;
 6/7=2,8=2,9=2,10=2,19=2,28=1/1;
 99/9=1/99;
 Leave Link    1 at Wed May  8 21:48:36 2019, MaxMem=           0 cpu:               2.8 elap:               0.1
 (Enter /opt/software/gaussian/g16.b01/l101.exe)
 -------------------
 Title Card Required
 -------------------
 Symbolic Z-matrix:
 Charge =  0 Multiplicity = 1
 C                    -0.8364    1.53854  -0.52881 
 O                    -1.64231   1.69973   0.38898 
 C                    -1.31844   1.17     -1.91453 
 H                    -0.82943   1.76882  -2.68746 
 H                    -1.08745   0.11616  -2.10185 
 H                    -2.39922   1.3065   -1.96583 
 C                     0.62599   1.66965  -0.2656 
 C                     1.04196   2.12097   0.99847 
 C                     1.5921    1.3314   -1.22556 
 C                     2.39557   2.23829   1.29468 
 H                     0.28647   2.37384   1.73427 
 C                     2.94856   1.44013  -0.92364 
 H                     1.29338   0.96191  -2.19981 
 C                     3.35189   1.89646   0.3328 
 H                     2.70887   2.59144   2.27234 
 H                     3.68982   1.16207  -1.66585 
 H                     4.40926   1.98116   0.56493 
 
 ITRead=  0  0  0  0  0  0  0  0  0  0  0  0  0  0  0  0  0
 MicOpt= -1 -1 -1 -1 -1 -1 -1 -1 -1 -1 -1 -1 -1 -1 -1 -1 -1
 NAtoms=     17 NQM=       17 NQMF=       0 NMMI=      0 NMMIF=      0
                NMic=       0 NMicF=      0.
                    Isotopes and Nuclear Properties:
 (Nuclear quadrupole moments (NQMom) in fm**2, nuclear magnetic moments (NMagM)
  in nuclear magnetons)

  Atom         1           2           3           4           5           6           7           8           9          10
 IAtWgt=          12          16          12           1           1           1          12          12          12          12
 AtmWgt=  12.0000000  15.9949146  12.0000000   1.0078250   1.0078250   1.0078250  12.0000000  12.0000000  12.0000000  12.0000000
 NucSpn=           0           0           0           1           1           1           0           0           0           0
 AtZEff=  -0.0000000  -0.0000000  -0.0000000  -0.0000000  -0.0000000  -0.0000000  -0.0000000  -0.0000000  -0.0000000  -0.0000000
 NQMom=    0.0000000   0.0000000   0.0000000   0.0000000   0.0000000   0.0000000   0.0000000   0.0000000   0.0000000   0.0000000
 NMagM=    0.0000000   0.0000000   0.0000000   2.7928460   2.7928460   2.7928460   0.0000000   0.0000000   0.0000000   0.0000000
 AtZNuc=   6.0000000   8.0000000   6.0000000   1.0000000   1.0000000   1.0000000   6.0000000   6.0000000   6.0000000   6.0000000

  Atom        11          12          13          14          15          16          17
 IAtWgt=           1          12           1          12           1           1           1
 AtmWgt=   1.0078250  12.0000000   1.0078250  12.0000000   1.0078250   1.0078250   1.0078250
 NucSpn=           1           0           1           0           1           1           1
 AtZEff=  -0.0000000  -0.0000000  -0.0000000  -0.0000000  -0.0000000  -0.0000000  -0.0000000
 NQMom=    0.0000000   0.0000000   0.0000000   0.0000000   0.0000000   0.0000000   0.0000000
 NMagM=    2.7928460   0.0000000   2.7928460   0.0000000   2.7928460   2.7928460   2.7928460
 AtZNuc=   1.0000000   6.0000000   1.0000000   6.0000000   1.0000000   1.0000000   1.0000000
 Leave Link  101 at Wed May  8 21:48:37 2019, MaxMem=   104857600 cpu:               5.3 elap:               0.2
 (Enter /opt/software/gaussian/g16.b01/l103.exe)

 GradGradGradGradGradGradGradGradGradGradGradGradGradGradGradGradGradGrad
 Berny optimization.
 Initialization pass.
                           ----------------------------
                           !    Initial Parameters    !
                           ! (Angstroms and Degrees)  !
 --------------------------                            --------------------------
 ! Name  Definition              Value          Derivative Info.                !
 --------------------------------------------------------------------------------
 ! R1    R(1,2)                  1.232          estimate D2E/DX2                !
 ! R2    R(1,3)                  1.5127         estimate D2E/DX2                !
 ! R3    R(1,7)                  1.4917         estimate D2E/DX2                !
 ! R4    R(3,4)                  1.0932         estimate D2E/DX2                !
 ! R5    R(3,5)                  1.095          estimate D2E/DX2                !
 ! R6    R(3,6)                  1.0906         estimate D2E/DX2                !
 ! R7    R(7,8)                  1.4052         estimate D2E/DX2                !
 ! R8    R(7,9)                  1.4033         estimate D2E/DX2                !
 ! R9    R(8,10)                 1.3906         estimate D2E/DX2                !
 ! R10   R(8,11)                 1.0845         estimate D2E/DX2                !
 ! R11   R(9,12)                 1.3939         estimate D2E/DX2                !
 ! R12   R(9,13)                 1.0839         estimate D2E/DX2                !
 ! R13   R(10,14)                1.3988         estimate D2E/DX2                !
 ! R14   R(10,15)                1.0857         estimate D2E/DX2                !
 ! R15   R(12,14)                1.3963         estimate D2E/DX2                !
 ! R16   R(12,16)                1.0852         estimate D2E/DX2                !
 ! R17   R(14,17)                1.0859         estimate D2E/DX2                !
 ! A1    A(2,1,3)              120.3873         estimate D2E/DX2                !
 ! A2    A(2,1,7)              119.8917         estimate D2E/DX2                !
 ! A3    A(3,1,7)              119.6989         estimate D2E/DX2                !
 ! A4    A(1,3,4)              111.8187         estimate D2E/DX2                !
 ! A5    A(1,3,5)              108.9023         estimate D2E/DX2                !
 ! A6    A(1,3,6)              109.1709         estimate D2E/DX2                !
 ! A7    A(4,3,5)              108.171          estimate D2E/DX2                !
 ! A8    A(4,3,6)              109.9667         estimate D2E/DX2                !
 ! A9    A(5,3,6)              108.7516         estimate D2E/DX2                !
 ! A10   A(1,7,8)              118.5007         estimate D2E/DX2                !
 ! A11   A(1,7,9)              122.2116         estimate D2E/DX2                !
 ! A12   A(8,7,9)              119.2736         estimate D2E/DX2                !
 ! A13   A(7,8,10)             120.4549         estimate D2E/DX2                !
 ! A14   A(7,8,11)             118.6204         estimate D2E/DX2                !
 ! A15   A(10,8,11)            120.9247         estimate D2E/DX2                !
 ! A16   A(7,9,12)             120.1975         estimate D2E/DX2                !
 ! A17   A(7,9,13)             120.483          estimate D2E/DX2                !
 ! A18   A(12,9,13)            119.3047         estimate D2E/DX2                !
 ! A19   A(8,10,14)            119.8939         estimate D2E/DX2                !
 ! A20   A(8,10,15)            120.011          estimate D2E/DX2                !
 ! A21   A(14,10,15)           120.0948         estimate D2E/DX2                !
 ! A22   A(9,12,14)            120.0999         estimate D2E/DX2                !
 ! A23   A(9,12,16)            119.7743         estimate D2E/DX2                !
 ! A24   A(14,12,16)           120.1243         estimate D2E/DX2                !
 ! A25   A(10,14,12)           120.0774         estimate D2E/DX2                !
 ! A26   A(10,14,17)           119.9782         estimate D2E/DX2                !
 ! A27   A(12,14,17)           119.9437         estimate D2E/DX2                !
 ! D1    D(2,1,3,4)            134.3321         estimate D2E/DX2                !
 ! D2    D(2,1,3,5)           -106.1857         estimate D2E/DX2                !
 ! D3    D(2,1,3,6)             12.4206         estimate D2E/DX2                !
 ! D4    D(7,1,3,4)            -47.3784         estimate D2E/DX2                !
 ! D5    D(7,1,3,5)             72.1038         estimate D2E/DX2                !
 ! D6    D(7,1,3,6)           -169.2899         estimate D2E/DX2                !
 ! D7    D(2,1,7,8)             -6.9337         estimate D2E/DX2                !
 ! D8    D(2,1,7,9)            171.6939         estimate D2E/DX2                !
 ! D9    D(3,1,7,8)            174.7682         estimate D2E/DX2                !
 ! D10   D(3,1,7,9)             -6.6042         estimate D2E/DX2                !
 ! D11   D(1,7,8,10)           178.9915         estimate D2E/DX2                !
 ! D12   D(1,7,8,11)            -0.9716         estimate D2E/DX2                !
 ! D13   D(9,7,8,10)             0.3227         estimate D2E/DX2                !
 ! D14   D(9,7,8,11)          -179.6404         estimate D2E/DX2                !
 ! D15   D(1,7,9,12)          -178.4623         estimate D2E/DX2                !
 ! D16   D(1,7,9,13)             0.1275         estimate D2E/DX2                !
 ! D17   D(8,7,9,12)             0.155          estimate D2E/DX2                !
 ! D18   D(8,7,9,13)           178.7448         estimate D2E/DX2                !
 ! D19   D(7,8,10,14)           -0.4508         estimate D2E/DX2                !
 ! D20   D(7,8,10,15)          179.7604         estimate D2E/DX2                !
 ! D21   D(11,8,10,14)         179.5115         estimate D2E/DX2                !
 ! D22   D(11,8,10,15)          -0.2773         estimate D2E/DX2                !
 ! D23   D(7,9,12,14)           -0.5026         estimate D2E/DX2                !
 ! D24   D(7,9,12,16)          179.0521         estimate D2E/DX2                !
 ! D25   D(13,9,12,14)        -179.109          estimate D2E/DX2                !
 ! D26   D(13,9,12,16)           0.4457         estimate D2E/DX2                !
 ! D27   D(8,10,14,12)           0.1013         estimate D2E/DX2                !
 ! D28   D(8,10,14,17)        -179.5871         estimate D2E/DX2                !
 ! D29   D(15,10,14,12)        179.8899         estimate D2E/DX2                !
 ! D30   D(15,10,14,17)          0.2015         estimate D2E/DX2                !
 ! D31   D(9,12,14,10)           0.3752         estimate D2E/DX2                !
 ! D32   D(9,12,14,17)        -179.9363         estimate D2E/DX2                !
 ! D33   D(16,12,14,10)       -179.1779         estimate D2E/DX2                !
 ! D34   D(16,12,14,17)          0.5106         estimate D2E/DX2                !
 --------------------------------------------------------------------------------
 Trust Radius=3.00D-01 FncErr=1.00D-07 GrdErr=1.00D-06 EigMax=2.50D+02 EigMin=1.00D-04
 Number of steps in this run=     88 maximum allowed number of steps=    102.
 GradGradGradGradGradGradGradGradGradGradGradGradGradGradGradGradGradGrad

 Leave Link  103 at Wed May  8 21:48:37 2019, MaxMem=   104857600 cpu:               1.4 elap:               0.1
 (Enter /opt/software/gaussian/g16.b01/l202.exe)
                          Input orientation:                          
 ---------------------------------------------------------------------
 Center     Atomic      Atomic             Coordinates (Angstroms)
 Number     Number       Type             X           Y           Z
 ---------------------------------------------------------------------
      1          6           0       -0.836403    1.538535   -0.528806
      2          8           0       -1.642308    1.699732    0.388984
      3          6           0       -1.318438    1.169997   -1.914527
      4          1           0       -0.829429    1.768818   -2.687456
      5          1           0       -1.087448    0.116160   -2.101854
      6          1           0       -2.399215    1.306495   -1.965830
      7          6           0        0.625991    1.669648   -0.265603
      8          6           0        1.041961    2.120967    0.998472
      9          6           0        1.592097    1.331397   -1.225559
     10          6           0        2.395566    2.238287    1.294684
     11          1           0        0.286466    2.373840    1.734272
     12          6           0        2.948561    1.440134   -0.923638
     13          1           0        1.293384    0.961913   -2.199809
     14          6           0        3.351888    1.896455    0.332798
     15          1           0        2.708870    2.591436    2.272338
     16          1           0        3.689821    1.162071   -1.665847
     17          1           0        4.409256    1.981160    0.564930
 ---------------------------------------------------------------------
                    Distance matrix (angstroms):
                    1          2          3          4          5
     1  C    0.000000
     2  O    1.231993   0.000000
     3  C    1.512746   2.385723   0.000000
     4  H    2.170910   3.182771   1.093223   0.000000
     5  H    2.135569   3.003305   1.094998   1.772225   0.000000
     6  H    2.135711   2.504534   1.090570   1.788495   1.776551
     7  C    1.491664   2.361053   2.597962   2.827270   2.953137
     8  C    2.489991   2.784639   3.867996   4.148756   4.262119
     9  C    2.534952   3.633703   2.995320   2.862214   3.069960
    10  C    3.776293   4.173100   5.023356   5.145720   5.307662
    11  H    2.660844   2.446301   4.163975   4.600321   4.658393
    12  C    3.806774   4.781887   4.388863   4.182379   4.408001
    13  H    2.767804   3.983028   2.635583   2.322764   2.528489
    14  C    4.290950   4.998385   5.233561   5.159616   5.367000
    15  H    4.639393   4.824408   5.980764   6.147830   6.298617
    16  H    4.682018   5.739600   5.014435   4.672841   4.909820
    17  H    5.376720   6.060659   6.293820   6.169840   6.387779
                    6          7          8          9         10
     6  H    0.000000
     7  C    3.489201   0.000000
     8  C    4.614341   1.405207   0.000000
     9  C    4.059457   1.403314   2.423300   0.000000
    10  C    5.872743   2.426776   1.390594   2.796361   0.000000
    11  H    4.694983   2.147246   1.084490   3.398817   2.158684
    12  C    5.450021   2.424875   2.791624   1.393906   2.421529
    13  H    3.716015   2.165053   3.411103   1.083933   3.880131
    14  C    6.221489   2.800007   2.414392   2.417567   1.398794
    15  H    6.760597   3.410165   2.150038   3.882031   1.085671
    16  H    6.098131   3.406666   3.876756   2.150109   3.405595
    17  H    7.294875   3.885861   3.397967   3.400651   2.157221
                   11         12         13         14         15
    11  H    0.000000
    12  C    3.875957   0.000000
    13  H    4.299351   2.144043   0.000000
    14  C    3.404238   1.396257   3.394835   0.000000
    15  H    2.490965   3.405468   4.965787   2.158306   0.000000
    16  H    4.961050   1.085200   2.463349   2.155945   4.302865
    17  H    4.303366   2.154570   4.288508   1.085858   2.485758
                   16         17
    16  H    0.000000
    17  H    2.482914   0.000000
 Stoichiometry    C8H8O
 Framework group  C1[X(C8H8O)]
 Deg. of freedom    45
 Full point group                 C1      NOp   1
 Largest Abelian subgroup         C1      NOp   1
 Largest concise Abelian subgroup C1      NOp   1
                         Standard orientation:                         
 ---------------------------------------------------------------------
 Center     Atomic      Atomic             Coordinates (Angstroms)
 Number     Number       Type             X           Y           Z
 ---------------------------------------------------------------------
      1          6           0       -1.691470   -0.195118   -0.000251
      2          8           0       -2.201162   -1.311173   -0.111799
      3          6           0       -2.562329    1.039081    0.081958
      4          1           0       -2.237407    1.713289    0.878830
      5          1           0       -2.502144    1.579640   -0.868406
      6          1           0       -3.596889    0.736949    0.248526
      7          6           0       -0.206559   -0.054248    0.015740
      8          6           0        0.577231   -1.220030    0.050805
      9          6           0        0.426664    1.197188   -0.031464
     10          6           0        1.965307   -1.136535    0.045683
     11          1           0        0.076847   -2.181702    0.081191
     12          6           0        1.818100    1.278755   -0.046558
     13          1           0       -0.158738    2.108180   -0.079515
     14          6           0        2.588264    0.114891   -0.004151
     15          1           0        2.563873   -2.041757    0.076861
     16          1           0        2.300482    2.249450   -0.098686
     17          1           0        3.672028    0.181428   -0.014986
 ---------------------------------------------------------------------
 Rotational constants (GHZ):           3.6783048           1.2146474           0.9197804
 Leave Link  202 at Wed May  8 21:48:37 2019, MaxMem=   104857600 cpu:               2.2 elap:               0.1
 (Enter /opt/software/gaussian/g16.b01/l301.exe)
 Standard basis: 6-31G(d,p) (6D, 7F)
 Ernie: Thresh=  0.10000D-02 Tol=  0.10000D-05 Strict=F.
 There are   175 symmetry adapted cartesian basis functions of A   symmetry.
 There are   175 symmetry adapted basis functions of A   symmetry.
   175 basis functions,   308 primitive gaussians,   175 cartesian basis functions
    32 alpha electrons       32 beta electrons
       nuclear repulsion energy       400.7769234039 Hartrees.
 IExCor=  402 DFT=T Ex+Corr=B3LYP ExCW=0 ScaHFX=  0.200000
 ScaDFX=  0.800000  0.720000  1.000000  0.810000 ScalE2=  1.000000  1.000000
 IRadAn=      5 IRanWt=     -1 IRanGd=            0 ICorTp=0 IEmpDi=131
 NAtoms=   17 NActive=   17 NUniq=   17 SFac= 1.00D+00 NAtFMM=   60 NAOKFM=F Big=F
 Integral buffers will be    131072 words long.
 Raffenetti 2 integral format.
 Two-electron integral symmetry is turned on.
 R6Disp:  Grimme-D3 Dispersion energy=       -0.0112090405 Hartrees.
 Nuclear repulsion after empirical dispersion term =      400.7657143634 Hartrees.
 ------------------------------------------------------------------------------
 Polarizable Continuum Model (PCM)
 =================================
 Model                : PCM.
 Atomic radii         : UFF (Universal Force Field).
 Polarization charges : Total charges.
 Charge compensation  : None.
 Solution method      : On-the-fly selection.
 Cavity type          : Scaled VdW (van der Waals Surface) (Alpha=1.100).
 Cavity algorithm     : GePol (No added spheres)
                        Default sphere list used, NSphG=   17.
                        Lebedev-Laikov grids with approx.  5.0 points / Ang**2.
                        Smoothing algorithm: York/Karplus (Gamma=1.0000).
                        Polarization charges: spherical gaussians, with
                                              point-specific exponents (IZeta= 3).
                        Self-potential: point-specific (ISelfS= 7).
                        Self-field    : sphere-specific E.n sum rule (ISelfD= 2).
 1st derivatives      : Analytical E(r).r(x)/FMM algorithm (CHGder, D1EAlg=3).
                        Cavity 1st derivative terms included.
 Solvent              : Acetonitrile, Eps=  35.688000 Eps(inf)=   1.806874
 ------------------------------------------------------------------------------
 Spheres list:
 ISph  on   Nord     Re0    Alpha      Xe            Ye            Ze
    1   C      1    1.9255  1.100     -1.691470     -0.195118     -0.000251
    2   O      2    1.7500  1.100     -2.201162     -1.311173     -0.111799
    3   C      3    1.9255  1.100     -2.562329      1.039081      0.081958
    4   H      4    1.4430  1.100     -2.237407      1.713289      0.878830
    5   H      5    1.4430  1.100     -2.502144      1.579640     -0.868406
    6   H      6    1.4430  1.100     -3.596889      0.736949      0.248526
    7   C      7    1.9255  1.100     -0.206559     -0.054248      0.015740
    8   C      8    1.9255  1.100      0.577231     -1.220030      0.050805
    9   C      9    1.9255  1.100      0.426664      1.197188     -0.031464
   10   C     10    1.9255  1.100      1.965307     -1.136535      0.045683
   11   H     11    1.4430  1.100      0.076847     -2.181702      0.081191
   12   C     12    1.9255  1.100      1.818100      1.278755     -0.046558
   13   H     13    1.4430  1.100     -0.158738      2.108180     -0.079515
   14   C     14    1.9255  1.100      2.588264      0.114891     -0.004151
   15   H     15    1.4430  1.100      2.563873     -2.041757      0.076861
   16   H     16    1.4430  1.100      2.300482      2.249450     -0.098686
   17   H     17    1.4430  1.100      3.672028      0.181428     -0.014986
 ------------------------------------------------------------------------------
 GePol: Number of generator spheres                  =      17
 GePol: Total number of spheres                      =      17
 GePol: Number of exposed spheres                    =      17 (100.00%)
 GePol: Number of points                             =    1428
 GePol: Average weight of points                     =       0.13
 GePol: Minimum weight of points                     =   0.25D-10
 GePol: Maximum weight of points                     =    0.20577
 GePol: Number of points with low weight             =      76
 GePol: Fraction of low-weight points (<1% of avg)   =       5.32%
 GePol: Cavity surface area                          =    189.175 Ang**2
 GePol: Cavity volume                                =    188.004 Ang**3
 Leave Link  301 at Wed May  8 21:48:37 2019, MaxMem=   104857600 cpu:               3.3 elap:               0.1
 (Enter /opt/software/gaussian/g16.b01/l302.exe)
 NPDir=0 NMtPBC=     1 NCelOv=     1 NCel=       1 NClECP=     1 NCelD=      1
         NCelK=      1 NCelE2=     1 NClLst=     1 CellRange=     0.0.
 One-electron integrals computed using PRISM.
 One-electron integral symmetry used in STVInt
 PrsmSu:  requested number of processors reduced to:  30 ShMem   1 Linda.
 GSVD:  received Info=                   1 from GESDD.
 NBasis=   175 RedAO= T EigKep=  4.70D-04  NBF=   175
 NBsUse=   175 1.00D-06 EigRej= -1.00D+00 NBFU=   175
 Precomputing XC quadrature grid using
 IXCGrd= 4 IRadAn=           5 IRanWt=          -1 IRanGd=           0 AccXCQ= 0.00D+00.
 Generated NRdTot=       0 NPtTot=           0 NUsed=           0 NTot=          32
 NSgBfM=   175   175   175   175   175 MxSgAt=    17 MxSgA2=    17.
 Leave Link  302 at Wed May  8 21:48:37 2019, MaxMem=   104857600 cpu:               7.6 elap:               0.3
 (Enter /opt/software/gaussian/g16.b01/l303.exe)
 DipDrv:  MaxL=1.
 Leave Link  303 at Wed May  8 21:48:38 2019, MaxMem=   104857600 cpu:               2.5 elap:               0.1
 (Enter /opt/software/gaussian/g16.b01/l401.exe)
 ExpMin= 1.61D-01 ExpMax= 5.48D+03 ExpMxC= 8.25D+02 IAcc=3 IRadAn=         5 AccDes= 0.00D+00
 Harris functional with IExCor=  402 and IRadAn=       5 diagonalized for initial guess.
 HarFok:  IExCor=  402 AccDes= 0.00D+00 IRadAn=         5 IDoV= 1 UseB2=F ITyADJ=14
 ICtDFT=  3500011 ScaDFX=  1.000000  1.000000  1.000000  1.000000
 FoFCou: FMM=F IPFlag=           0 FMFlag=      100000 FMFlg1=           0
         NFxFlg=           0 DoJE=T BraDBF=F KetDBF=T FulRan=T
         wScrn=  0.000000 ICntrl=       500 IOpCl=  0 I1Cent=   200000004 NGrid=           0
         NMat0=    1 NMatS0=      1 NMatT0=    0 NMatD0=    1 NMtDS0=    0 NMtDT0=    0
 Petite list used in FoFCou.
 Harris En= -384.955583363436    
 JPrj=0 DoOrth=F DoCkMO=F.
 Leave Link  401 at Wed May  8 21:48:38 2019, MaxMem=   104857600 cpu:              11.9 elap:               0.4
 (Enter /opt/software/gaussian/g16.b01/l502.exe)
 Integral symmetry usage will be decided dynamically.
 Closed shell SCF:
 Using DIIS extrapolation, IDIIS=  1040.
 NGot=   104857600 LenX=   104788772 LenY=   104757706
 Requested convergence on RMS density matrix=1.00D-08 within 128 cycles.
 Requested convergence on MAX density matrix=1.00D-06.
 Requested convergence on             energy=1.00D-06.
 No special actions if energy rises.
 Fock matrices will be formed incrementally for  20 cycles.

 Cycle   1  Pass 1  IDiag  1:
 FoFJK:  IHMeth= 1 ICntrl=       0 DoSepK=F KAlg= 0 I1Cent=           0 FoldK=F
 IRaf= 920000000 NMat=       1 IRICut=       1 DoRegI=T DoRafI=F ISym2E= 0 IDoP0=0 IntGTp=1.
 FoFCou: FMM=F IPFlag=           0 FMFlag=      100000 FMFlg1=           0
         NFxFlg=           0 DoJE=F BraDBF=F KetDBF=F FulRan=T
         wScrn=  0.000000 ICntrl=         0 IOpCl=  0 I1Cent=           0 NGrid=           0
         NMat0=    1 NMatS0=      1 NMatT0=    0 NMatD0=    1 NMtDS0=    0 NMtDT0=    0
 Symmetry not used in FoFCou.
 Inv3:  Mode=1 IEnd=     6117552.
 Iteration    1 A*A^-1 deviation from unit magnitude is 2.89D-15 for   1104.
 Iteration    1 A*A^-1 deviation from orthogonality  is 3.47D-15 for    813    223.
 Iteration    1 A^-1*A deviation from unit magnitude is 2.66D-15 for   1104.
 Iteration    1 A^-1*A deviation from orthogonality  is 2.06D-15 for    912    379.
 E= -384.700360375323    
 DIIS: error= 3.44D-02 at cycle   1 NSaved=   1.
 NSaved= 1 IEnMin= 1 EnMin= -384.700360375323     IErMin= 1 ErrMin= 3.44D-02
 ErrMax= 3.44D-02  0.00D+00 EMaxC= 1.00D-01 BMatC= 2.29D-01 BMatP= 2.29D-01
 IDIUse=3 WtCom= 6.56D-01 WtEn= 3.44D-01
 Coeff-Com:  0.100D+01
 Coeff-En:   0.100D+01
 Coeff:      0.100D+01
 Gap=     0.165 Goal=   None    Shift=    0.000
 GapD=    0.165 DampG=1.000 DampE=0.500 DampFc=0.5000 IDamp=-1.
 Damping current iteration by 5.00D-01
 RMSDP=5.98D-03 MaxDP=1.70D-01              OVMax= 1.83D-01

 Cycle   2  Pass 1  IDiag  1:
 RMSU=  2.94D-03    CP:  9.78D-01
 E= -384.795479716185     Delta-E=       -0.095119340862 Rises=F Damp=T
 DIIS: error= 1.03D-02 at cycle   2 NSaved=   2.
 NSaved= 2 IEnMin= 2 EnMin= -384.795479716185     IErMin= 2 ErrMin= 1.03D-02
 ErrMax= 1.03D-02  0.00D+00 EMaxC= 1.00D-01 BMatC= 2.12D-02 BMatP= 2.29D-01
 IDIUse=3 WtCom= 8.97D-01 WtEn= 1.03D-01
 Coeff-Com:  0.111D+00 0.889D+00
 Coeff-En:   0.138D+00 0.862D+00
 Coeff:      0.113D+00 0.887D+00
 Gap=     0.208 Goal=   None    Shift=    0.000
 RMSDP=1.68D-03 MaxDP=4.95D-02 DE=-9.51D-02 OVMax= 1.50D-01

 Cycle   3  Pass 1  IDiag  1:
 RMSU=  1.61D-03    CP:  9.66D-01  8.70D-01
 E= -384.902423375436     Delta-E=       -0.106943659250 Rises=F Damp=F
 DIIS: error= 1.84D-02 at cycle   3 NSaved=   3.
 NSaved= 3 IEnMin= 3 EnMin= -384.902423375436     IErMin= 2 ErrMin= 1.03D-02
 ErrMax= 1.84D-02  0.00D+00 EMaxC= 1.00D-01 BMatC= 2.68D-02 BMatP= 2.12D-02
 IDIUse=2 WtCom= 0.00D+00 WtEn= 1.00D+00
 Coeff-En:   0.000D+00 0.000D+00 0.100D+01
 Coeff:      0.000D+00 0.000D+00 0.100D+01
 Gap=     0.201 Goal=   None    Shift=    0.000
 RMSDP=2.74D-03 MaxDP=1.16D-01 DE=-1.07D-01 OVMax= 1.64D-01

 Cycle   4  Pass 1  IDiag  1:
 RMSU=  1.48D-03    CP:  9.72D-01  1.25D+00 -2.48D-01
 E= -384.816190321244     Delta-E=        0.086233054191 Rises=F Damp=F
 DIIS: error= 4.05D-02 at cycle   4 NSaved=   4.
 NSaved= 4 IEnMin= 3 EnMin= -384.902423375436     IErMin= 2 ErrMin= 1.03D-02
 ErrMax= 4.05D-02  0.00D+00 EMaxC= 1.00D-01 BMatC= 1.36D-01 BMatP= 2.12D-02
 IDIUse=2 WtCom= 0.00D+00 WtEn= 1.00D+00
 Coeff-En:   0.000D+00 0.000D+00 0.776D+00 0.224D+00
 Coeff:      0.000D+00 0.000D+00 0.776D+00 0.224D+00
 Gap=     0.184 Goal=   None    Shift=    0.000
 RMSDP=1.49D-03 MaxDP=6.09D-02 DE= 8.62D-02 OVMax= 8.68D-02

 Cycle   5  Pass 1  IDiag  1:
 RMSU=  1.89D-04    CP:  9.70D-01  9.94D-01  4.02D-01  5.07D-01
 E= -384.918070119460     Delta-E=       -0.101879798216 Rises=F Damp=F
 DIIS: error= 1.04D-02 at cycle   5 NSaved=   5.
 NSaved= 5 IEnMin= 5 EnMin= -384.918070119460     IErMin= 2 ErrMin= 1.03D-02
 ErrMax= 1.04D-02  0.00D+00 EMaxC= 1.00D-01 BMatC= 8.57D-03 BMatP= 2.12D-02
 IDIUse=3 WtCom= 8.96D-01 WtEn= 1.04D-01
 Coeff-Com: -0.604D-02 0.221D-01 0.258D+00-0.103D+00 0.829D+00
 Coeff-En:   0.000D+00 0.000D+00 0.284D+00 0.000D+00 0.716D+00
 Coeff:     -0.541D-02 0.198D-01 0.261D+00-0.922D-01 0.817D+00
 Gap=     0.195 Goal=   None    Shift=    0.000
 RMSDP=4.85D-04 MaxDP=1.99D-02 DE=-1.02D-01 OVMax= 2.90D-02

 Cycle   6  Pass 1  IDiag  1:
 RMSU=  5.53D-05    CP:  9.69D-01  9.42D-01  6.24D-01  3.19D-01  7.90D-01
 E= -384.925104216204     Delta-E=       -0.007034096744 Rises=F Damp=F
 DIIS: error= 3.86D-04 at cycle   6 NSaved=   6.
 NSaved= 6 IEnMin= 6 EnMin= -384.925104216204     IErMin= 6 ErrMin= 3.86D-04
 ErrMax= 3.86D-04  0.00D+00 EMaxC= 1.00D-01 BMatC= 2.57D-05 BMatP= 8.57D-03
 IDIUse=3 WtCom= 9.96D-01 WtEn= 3.86D-03
 Coeff-Com: -0.432D-02 0.115D-01 0.119D+00-0.599D-01 0.447D+00 0.486D+00
 Coeff-En:   0.000D+00 0.000D+00 0.000D+00 0.000D+00 0.000D+00 0.100D+01
 Coeff:     -0.430D-02 0.115D-01 0.119D+00-0.597D-01 0.445D+00 0.488D+00
 Gap=     0.195 Goal=   None    Shift=    0.000
 RMSDP=3.40D-05 MaxDP=1.20D-03 DE=-7.03D-03 OVMax= 2.14D-03

 Cycle   7  Pass 1  IDiag  1:
 RMSU=  1.36D-05    CP:  9.69D-01  9.45D-01  6.16D-01  3.28D-01  8.50D-01
                    CP:  6.35D-01
 E= -384.925129336127     Delta-E=       -0.000025119923 Rises=F Damp=F
 DIIS: error= 7.37D-05 at cycle   7 NSaved=   7.
 NSaved= 7 IEnMin= 7 EnMin= -384.925129336127     IErMin= 7 ErrMin= 7.37D-05
 ErrMax= 7.37D-05  0.00D+00 EMaxC= 1.00D-01 BMatC= 1.26D-06 BMatP= 2.57D-05
 IDIUse=1 WtCom= 1.00D+00 WtEn= 0.00D+00
 Coeff-Com: -0.127D-02 0.276D-02 0.341D-01-0.190D-01 0.134D+00 0.228D+00
 Coeff-Com:  0.621D+00
 Coeff:     -0.127D-02 0.276D-02 0.341D-01-0.190D-01 0.134D+00 0.228D+00
 Coeff:      0.621D+00
 Gap=     0.195 Goal=   None    Shift=    0.000
 RMSDP=7.43D-06 MaxDP=2.13D-04 DE=-2.51D-05 OVMax= 4.59D-04

 Cycle   8  Pass 1  IDiag  1:
 RMSU=  3.93D-06    CP:  9.69D-01  9.44D-01  6.18D-01  3.27D-01  8.48D-01
                    CP:  6.68D-01  6.83D-01
 E= -384.925130481535     Delta-E=       -0.000001145408 Rises=F Damp=F
 DIIS: error= 2.42D-05 at cycle   8 NSaved=   8.
 NSaved= 8 IEnMin= 8 EnMin= -384.925130481535     IErMin= 8 ErrMin= 2.42D-05
 ErrMax= 2.42D-05  0.00D+00 EMaxC= 1.00D-01 BMatC= 1.41D-07 BMatP= 1.26D-06
 IDIUse=1 WtCom= 1.00D+00 WtEn= 0.00D+00
 Coeff-Com: -0.176D-03 0.990D-04 0.809D-02-0.422D-02 0.301D-01 0.746D-01
 Coeff-Com:  0.330D+00 0.561D+00
 Coeff:     -0.176D-03 0.990D-04 0.809D-02-0.422D-02 0.301D-01 0.746D-01
 Coeff:      0.330D+00 0.561D+00
 Gap=     0.195 Goal=   None    Shift=    0.000
 RMSDP=2.13D-06 MaxDP=5.92D-05 DE=-1.15D-06 OVMax= 1.13D-04

 Cycle   9  Pass 1  IDiag  1:
 RMSU=  1.01D-06    CP:  9.69D-01  9.44D-01  6.18D-01  3.27D-01  8.47D-01
                    CP:  6.67D-01  7.47D-01  5.94D-01
 E= -384.925130613860     Delta-E=       -0.000000132325 Rises=F Damp=F
 DIIS: error= 7.11D-06 at cycle   9 NSaved=   9.
 NSaved= 9 IEnMin= 9 EnMin= -384.925130613860     IErMin= 9 ErrMin= 7.11D-06
 ErrMax= 7.11D-06  0.00D+00 EMaxC= 1.00D-01 BMatC= 6.05D-09 BMatP= 1.41D-07
 IDIUse=1 WtCom= 1.00D+00 WtEn= 0.00D+00
 Coeff-Com: -0.820D-05-0.108D-03 0.196D-02-0.100D-02 0.687D-02 0.212D-01
 Coeff-Com:  0.116D+00 0.259D+00 0.596D+00
 Coeff:     -0.820D-05-0.108D-03 0.196D-02-0.100D-02 0.687D-02 0.212D-01
 Coeff:      0.116D+00 0.259D+00 0.596D+00
 Gap=     0.195 Goal=   None    Shift=    0.000
 RMSDP=4.59D-07 MaxDP=1.73D-05 DE=-1.32D-07 OVMax= 2.82D-05

 Cycle  10  Pass 1  IDiag  1:
 RMSU=  2.85D-07    CP:  9.69D-01  9.44D-01  6.18D-01  3.27D-01  8.47D-01
                    CP:  6.69D-01  7.46D-01  6.37D-01  7.40D-01
 E= -384.925130619560     Delta-E=       -0.000000005700 Rises=F Damp=F
 DIIS: error= 1.33D-06 at cycle  10 NSaved=  10.
 NSaved=10 IEnMin=10 EnMin= -384.925130619560     IErMin=10 ErrMin= 1.33D-06
 ErrMax= 1.33D-06  0.00D+00 EMaxC= 1.00D-01 BMatC= 3.77D-10 BMatP= 6.05D-09
 IDIUse=1 WtCom= 1.00D+00 WtEn= 0.00D+00
 Coeff-Com:  0.147D-04-0.453D-04-0.222D-03 0.425D-04-0.738D-03-0.793D-04
 Coeff-Com:  0.100D-01 0.422D-01 0.245D+00 0.704D+00
 Coeff:      0.147D-04-0.453D-04-0.222D-03 0.425D-04-0.738D-03-0.793D-04
 Coeff:      0.100D-01 0.422D-01 0.245D+00 0.704D+00
 Gap=     0.195 Goal=   None    Shift=    0.000
 RMSDP=1.38D-07 MaxDP=3.87D-06 DE=-5.70D-09 OVMax= 5.82D-06

 Cycle  11  Pass 1  IDiag  1:
 RMSU=  6.16D-08    CP:  9.69D-01  9.44D-01  6.18D-01  3.27D-01  8.47D-01
                    CP:  6.69D-01  7.48D-01  6.41D-01  7.92D-01  7.75D-01
 E= -384.925130619895     Delta-E=       -0.000000000335 Rises=F Damp=F
 DIIS: error= 2.57D-07 at cycle  11 NSaved=  11.
 NSaved=11 IEnMin=11 EnMin= -384.925130619895     IErMin=11 ErrMin= 2.57D-07
 ErrMax= 2.57D-07  0.00D+00 EMaxC= 1.00D-01 BMatC= 1.72D-11 BMatP= 3.77D-10
 IDIUse=1 WtCom= 1.00D+00 WtEn= 0.00D+00
 Coeff-Com:  0.447D-05-0.110D-04-0.123D-03 0.356D-04-0.397D-03-0.442D-03
 Coeff-Com:  0.199D-03 0.727D-02 0.801D-01 0.283D+00 0.630D+00
 Coeff:      0.447D-05-0.110D-04-0.123D-03 0.356D-04-0.397D-03-0.442D-03
 Coeff:      0.199D-03 0.727D-02 0.801D-01 0.283D+00 0.630D+00
 Gap=     0.195 Goal=   None    Shift=    0.000
 RMSDP=2.99D-08 MaxDP=7.99D-07 DE=-3.35D-10 OVMax= 1.64D-06

 Cycle  12  Pass 1  IDiag  1:
 RMSU=  1.83D-08    CP:  9.69D-01  9.44D-01  6.18D-01  3.27D-01  8.47D-01
                    CP:  6.69D-01  7.48D-01  6.40D-01  7.98D-01  8.03D-01
                    CP:  6.97D-01
 E= -384.925130619909     Delta-E=       -0.000000000014 Rises=F Damp=F
 DIIS: error= 7.84D-08 at cycle  12 NSaved=  12.
 NSaved=12 IEnMin=12 EnMin= -384.925130619909     IErMin=12 ErrMin= 7.84D-08
 ErrMax= 7.84D-08  0.00D+00 EMaxC= 1.00D-01 BMatC= 2.31D-12 BMatP= 1.72D-11
 IDIUse=1 WtCom= 1.00D+00 WtEn= 0.00D+00
 Coeff-Com:  0.597D-06-0.112D-05-0.377D-04 0.163D-04-0.123D-03-0.173D-03
 Coeff-Com: -0.117D-02-0.157D-02 0.136D-01 0.606D-01 0.298D+00 0.631D+00
 Coeff:      0.597D-06-0.112D-05-0.377D-04 0.163D-04-0.123D-03-0.173D-03
 Coeff:     -0.117D-02-0.157D-02 0.136D-01 0.606D-01 0.298D+00 0.631D+00
 Gap=     0.195 Goal=   None    Shift=    0.000
 RMSDP=9.32D-09 MaxDP=2.47D-07 DE=-1.40D-11 OVMax= 5.94D-07

 Error on total polarization charges =  0.00754
 SCF Done:  E(RB3LYP) =  -384.925130620     A.U. after   12 cycles
            NFock= 12  Conv=0.93D-08     -V/T= 2.0097
 KE= 3.812436183916D+02 PE=-1.695812938344D+03 EE= 5.288784749687D+02
 Leave Link  502 at Wed May  8 21:48:44 2019, MaxMem=   104857600 cpu:             188.7 elap:               6.2
 (Enter /opt/software/gaussian/g16.b01/l601.exe)
 Copying SCF densities to generalized density rwf, IOpCl= 0 IROHF=0.

 **********************************************************************

            Population analysis using the SCF Density.

 **********************************************************************

 Orbital symmetries:
       Occupied  (A) (A) (A) (A) (A) (A) (A) (A) (A) (A) (A) (A)
                 (A) (A) (A) (A) (A) (A) (A) (A) (A) (A) (A) (A)
                 (A) (A) (A) (A) (A) (A) (A) (A)
       Virtual   (A) (A) (A) (A) (A) (A) (A) (A) (A) (A) (A) (A)
                 (A) (A) (A) (A) (A) (A) (A) (A) (A) (A) (A) (A)
                 (A) (A) (A) (A) (A) (A) (A) (A) (A) (A) (A) (A)
                 (A) (A) (A) (A) (A) (A) (A) (A) (A) (A) (A) (A)
                 (A) (A) (A) (A) (A) (A) (A) (A) (A) (A) (A) (A)
                 (A) (A) (A) (A) (A) (A) (A) (A) (A) (A) (A) (A)
                 (A) (A) (A) (A) (A) (A) (A) (A) (A) (A) (A) (A)
                 (A) (A) (A) (A) (A) (A) (A) (A) (A) (A) (A) (A)
                 (A) (A) (A) (A) (A) (A) (A) (A) (A) (A) (A) (A)
                 (A) (A) (A) (A) (A) (A) (A) (A) (A) (A) (A) (A)
                 (A) (A) (A) (A) (A) (A) (A) (A) (A) (A) (A) (A)
                 (A) (A) (A) (A) (A) (A) (A) (A) (A) (A) (A)
 The electronic state is 1-A.
 Alpha  occ. eigenvalues --  -19.13949 -10.28073 -10.20301 -10.20244 -10.20178
 Alpha  occ. eigenvalues --  -10.19869 -10.19799 -10.19744 -10.18704  -1.03531
 Alpha  occ. eigenvalues --   -0.86280  -0.77436  -0.75359  -0.73080  -0.63084
 Alpha  occ. eigenvalues --   -0.60920  -0.55312  -0.51164  -0.46616  -0.46005
 Alpha  occ. eigenvalues --   -0.44650  -0.44301  -0.42739  -0.41625  -0.39069
 Alpha  occ. eigenvalues --   -0.37942  -0.35900  -0.35246  -0.34688  -0.26187
 Alpha  occ. eigenvalues --   -0.25951  -0.25354
 Alpha virt. eigenvalues --   -0.05873  -0.00934   0.03820   0.09333   0.11996
 Alpha virt. eigenvalues --    0.14826   0.15349   0.16005   0.16691   0.18148
 Alpha virt. eigenvalues --    0.18951   0.20063   0.22400   0.26977   0.28901
 Alpha virt. eigenvalues --    0.30143   0.31552   0.34683   0.36879   0.47560
 Alpha virt. eigenvalues --    0.50569   0.51922   0.52988   0.54019   0.55314
 Alpha virt. eigenvalues --    0.56318   0.58125   0.58472   0.59609   0.60020
 Alpha virt. eigenvalues --    0.60779   0.61297   0.64654   0.66002   0.66351
 Alpha virt. eigenvalues --    0.68309   0.72189   0.73920   0.76216   0.80346
 Alpha virt. eigenvalues --    0.80821   0.81607   0.82919   0.84528   0.86049
 Alpha virt. eigenvalues --    0.88356   0.89486   0.92578   0.93790   0.95051
 Alpha virt. eigenvalues --    0.97534   1.00355   1.02341   1.05561   1.07829
 Alpha virt. eigenvalues --    1.11630   1.14543   1.17796   1.23277   1.25241
 Alpha virt. eigenvalues --    1.26404   1.31515   1.34373   1.38025   1.39589
 Alpha virt. eigenvalues --    1.40958   1.41661   1.42649   1.44065   1.45421
 Alpha virt. eigenvalues --    1.57735   1.67601   1.71664   1.75224   1.75713
 Alpha virt. eigenvalues --    1.77174   1.81471   1.85899   1.86772   1.88311
 Alpha virt. eigenvalues --    1.91913   1.92912   1.94231   1.96585   1.97048
 Alpha virt. eigenvalues --    1.99709   2.02651   2.02775   2.06086   2.06928
 Alpha virt. eigenvalues --    2.07028   2.11523   2.16591   2.17103   2.27263
 Alpha virt. eigenvalues --    2.27454   2.29445   2.32921   2.36546   2.37544
 Alpha virt. eigenvalues --    2.38676   2.40669   2.44194   2.45068   2.45893
 Alpha virt. eigenvalues --    2.48699   2.51407   2.53729   2.56769   2.58465
 Alpha virt. eigenvalues --    2.59518   2.64620   2.64860   2.65581   2.72243
 Alpha virt. eigenvalues --    2.74236   2.75377   2.81607   2.84377   2.87683
 Alpha virt. eigenvalues --    2.93247   3.03098   3.05402   3.07883   3.18588
 Alpha virt. eigenvalues --    3.22280   3.23771   3.25136   3.38097   3.41600
 Alpha virt. eigenvalues --    3.43038   3.45455   3.51132   3.89112   3.97031
 Alpha virt. eigenvalues --    4.11794   4.14835   4.15818   4.32742   4.42011
 Alpha virt. eigenvalues --    4.42923   4.59036   4.83348
          Condensed to atoms (all electrons):
               1          2          3          4          5          6
     1  C    4.569846   0.561300   0.334160  -0.018711  -0.018300  -0.021695
     2  O    0.561300   8.093322  -0.089582   0.002406   0.000567   0.004975
     3  C    0.334160  -0.089582   5.170776   0.360463   0.364679   0.360930
     4  H   -0.018711   0.002406   0.360463   0.560470  -0.025958  -0.023244
     5  H   -0.018300   0.000567   0.364679  -0.025958   0.545916  -0.021240
     6  H   -0.021695   0.004975   0.360930  -0.023244  -0.021240   0.561312
     7  C    0.285587  -0.088911  -0.111427   0.001512   0.000180   0.005748
     8  C   -0.033446  -0.001704   0.009604  -0.000431  -0.000256  -0.000141
     9  C   -0.039839   0.004265  -0.007818   0.000497   0.000337   0.000045
    10  C    0.006673   0.001097  -0.000109  -0.000010   0.000001   0.000002
    11  H   -0.010248   0.017248   0.000710  -0.000029  -0.000016  -0.000017
    12  C    0.004808  -0.000074  -0.000064   0.000139   0.000064  -0.000002
    13  H   -0.011391   0.000070   0.006587   0.001017   0.000621  -0.000095
    14  C    0.000110  -0.000016  -0.000013   0.000002   0.000001   0.000000
    15  H   -0.000149   0.000003   0.000002   0.000000  -0.000000  -0.000000
    16  H   -0.000128   0.000000   0.000010  -0.000005  -0.000003  -0.000000
    17  H    0.000008   0.000000  -0.000000   0.000000   0.000000  -0.000000
               7          8          9         10         11         12
     1  C    0.285587  -0.033446  -0.039839   0.006673  -0.010248   0.004808
     2  O   -0.088911  -0.001704   0.004265   0.001097   0.017248  -0.000074
     3  C   -0.111427   0.009604  -0.007818  -0.000109   0.000710  -0.000064
     4  H    0.001512  -0.000431   0.000497  -0.000010  -0.000029   0.000139
     5  H    0.000180  -0.000256   0.000337   0.000001  -0.000016   0.000064
     6  H    0.005748  -0.000141   0.000045   0.000002  -0.000017  -0.000002
     7  C    5.034068   0.485903   0.502617  -0.026431  -0.048580  -0.020359
     8  C    0.485903   4.962387  -0.074469   0.493523   0.369385  -0.040190
     9  C    0.502617  -0.074469   4.957135  -0.039452   0.005746   0.517129
    10  C   -0.026431   0.493523  -0.039452   4.868903  -0.039889  -0.032465
    11  H   -0.048580   0.369385   0.005746  -0.039889   0.594668   0.000225
    12  C   -0.020359  -0.040190   0.517129  -0.032465   0.000225   4.834446
    13  H   -0.039247   0.005270   0.370516   0.000295  -0.000151  -0.039660
    14  C   -0.035295  -0.036310  -0.040569   0.529795   0.004605   0.542597
    15  H    0.003589  -0.037316   0.000780   0.373552  -0.005272   0.004382
    16  H    0.003461   0.000776  -0.035922   0.004369   0.000016   0.372470
    17  H    0.000644   0.004365   0.004726  -0.039923  -0.000159  -0.039665
              13         14         15         16         17
     1  C   -0.011391   0.000110  -0.000149  -0.000128   0.000008
     2  O    0.000070  -0.000016   0.000003   0.000000   0.000000
     3  C    0.006587  -0.000013   0.000002   0.000010  -0.000000
     4  H    0.001017   0.000002   0.000000  -0.000005   0.000000
     5  H    0.000621   0.000001  -0.000000  -0.000003   0.000000
     6  H   -0.000095   0.000000  -0.000000  -0.000000  -0.000000
     7  C   -0.039247  -0.035295   0.003589   0.003461   0.000644
     8  C    0.005270  -0.036310  -0.037316   0.000776   0.004365
     9  C    0.370516  -0.040569   0.000780  -0.035922   0.004726
    10  C    0.000295   0.529795   0.373552   0.004369  -0.039923
    11  H   -0.000151   0.004605  -0.005272   0.000016  -0.000159
    12  C   -0.039660   0.542597   0.004382   0.372470  -0.039665
    13  H    0.594406   0.004638   0.000015  -0.005596  -0.000170
    14  C    0.004638   4.822996  -0.040474  -0.039999   0.373827
    15  H    0.000015  -0.040474   0.596007  -0.000169  -0.005562
    16  H   -0.005596  -0.039999  -0.000169   0.595103  -0.005648
    17  H   -0.000170   0.373827  -0.005562  -0.005648   0.594973
 Mulliken charges:
               1
     1  C    0.391413
     2  O   -0.504966
     3  C   -0.398907
     4  H    0.141881
     5  H    0.153406
     6  H    0.133423
     7  C    0.046942
     8  C   -0.106951
     9  C   -0.125724
    10  C   -0.099930
    11  H    0.111757
    12  C   -0.103781
    13  H    0.112874
    14  C   -0.085898
    15  H    0.110610
    16  H    0.111263
    17  H    0.112586
 Sum of Mulliken charges =  -0.00000
 Mulliken charges with hydrogens summed into heavy atoms:
               1
     1  C    0.391413
     2  O   -0.504966
     3  C    0.029804
     7  C    0.046942
     8  C    0.004807
     9  C   -0.012850
    10  C    0.010680
    12  C    0.007482
    14  C    0.026688
 Electronic spatial extent (au):  <R**2>=           1232.9057
 Charge=             -0.0000 electrons
 Dipole moment (field-independent basis, Debye):
    X=              2.3821    Y=              3.1895    Z=              0.1832  Tot=              3.9851
 Quadrupole moment (field-independent basis, Debye-Ang):
   XX=            -49.6570   YY=            -49.5852   ZZ=            -53.9773
   XY=             -7.3701   XZ=             -0.5309   YZ=             -0.7650
 Traceless Quadrupole moment (field-independent basis, Debye-Ang):
   XX=              1.4162   YY=              1.4880   ZZ=             -2.9042
   XY=             -7.3701   XZ=             -0.5309   YZ=             -0.7650
 Octapole moment (field-independent basis, Debye-Ang**2):
  XXX=             19.2185  YYY=              3.6408  ZZZ=             -0.7366  XYY=             10.0525
  XXY=             15.9078  XXZ=              0.9575  XZZ=             -8.7604  YZZ=             -0.6323
  YYZ=              0.2623  XYZ=              0.6485
 Hexadecapole moment (field-independent basis, Debye-Ang**3):
 XXXX=          -1077.0261 YYYY=           -397.8956 ZZZZ=            -60.9741 XXXY=            -30.4402
 XXXZ=             -3.9218 YYYX=             -5.2023 YYYZ=             -2.1712 ZZZX=              1.6654
 ZZZY=              0.4632 XXYY=           -261.4276 XXZZ=           -207.9081 YYZZ=            -83.0568
 XXYZ=             -3.7811 YYXZ=             -0.6842 ZZXY=              0.8996
 N-N= 4.007657143634D+02 E-N=-1.695812932148D+03  KE= 3.812436183916D+02
 No NMR shielding tensors so no spin-rotation constants.
 Leave Link  601 at Wed May  8 21:48:45 2019, MaxMem=   104857600 cpu:               5.7 elap:               0.2
 (Enter /opt/software/gaussian/g16.b01/l701.exe)
 ... and contract with generalized density number  0.
 Compute integral first derivatives.
 R6Disp: Adding Grimme-D3 dispersion energy 1st derivatives to the gradient.
 PrsmSu:  requested number of processors reduced to:  30 ShMem   1 Linda.
 D1PCM: PCM CHGder 1st derivatives, ID1Alg=3 FixD1E=F DoIter=F DoCFld=F I1PDM=0.
 GePol: Maximum number of non-zero 1st derivatives   =     201
 CoulSu:  requested number of processors reduced to:  29 ShMem   1 Linda.
 CoulSu:  requested number of processors reduced to:  30 ShMem   1 Linda.
 Leave Link  701 at Wed May  8 21:48:46 2019, MaxMem=   104857600 cpu:              21.3 elap:               0.7
 (Enter /opt/software/gaussian/g16.b01/l702.exe)
 L702 exits ... SP integral derivatives will be done elsewhere.
 Leave Link  702 at Wed May  8 21:48:46 2019, MaxMem=   104857600 cpu:               1.9 elap:               0.1
 (Enter /opt/software/gaussian/g16.b01/l703.exe)
 Integral derivatives from FoFJK, PRISM(SPDF).
 Compute integral first derivatives, UseDBF=F ICtDFT=           0.
 Calling FoFJK, ICntrl=      2127 FMM=F ISym2X=0 I1Cent= 0 IOpClX= 0 NMat=1 NMatS=1 NMatT=0.
 FoFJK:  IHMeth= 1 ICntrl=    2127 DoSepK=F KAlg= 0 I1Cent=           0 FoldK=F
 IRaf=         0 NMat=       1 IRICut=       1 DoRegI=T DoRafI=F ISym2E= 0 IDoP0=0 IntGTp=1.
 FoFCou: FMM=F IPFlag=           0 FMFlag=      100000 FMFlg1=         800
         NFxFlg=           0 DoJE=F BraDBF=F KetDBF=F FulRan=T
         wScrn=  0.000000 ICntrl=      2127 IOpCl=  0 I1Cent=           0 NGrid=           0
         NMat0=    1 NMatS0=      1 NMatT0=    0 NMatD0=    1 NMtDS0=    0 NMtDT0=    0
 Symmetry not used in FoFCou.
 Leave Link  703 at Wed May  8 21:48:47 2019, MaxMem=   104857600 cpu:              28.9 elap:               0.9
 (Enter /opt/software/gaussian/g16.b01/l716.exe)
 Dipole        = 9.37177508D-01 1.25484852D+00 7.20958604D-02
 ***** Axes restored to original set *****
 -------------------------------------------------------------------
 Center     Atomic                   Forces (Hartrees/Bohr)
 Number     Number              X              Y              Z
 -------------------------------------------------------------------
      1        6          -0.006249315    0.000613014    0.008637379
      2        8           0.002278165    0.000285570   -0.005668074
      3        6           0.000072934    0.000565149    0.000458679
      4        1          -0.000110791   -0.000577054   -0.000516612
      5        1           0.000712523   -0.000452679   -0.001726025
      6        1           0.000181930   -0.000044968    0.000336544
      7        6           0.001255639   -0.000496820   -0.001009305
      8        6          -0.000006909    0.000062557   -0.000047968
      9        6           0.000029585   -0.000445330    0.000518838
     10        6           0.000207934    0.000203154    0.000123953
     11        1          -0.000182950   -0.000065954   -0.000198802
     12        6           0.000849654   -0.000337582   -0.000249687
     13        1          -0.000118891    0.000347946   -0.000575442
     14        6           0.000681065   -0.000056971    0.000177506
     15        1           0.000053523    0.000032491    0.000006124
     16        1           0.000282181    0.000269702   -0.000228575
     17        1           0.000063723    0.000097776   -0.000038532
 -------------------------------------------------------------------
 Cartesian Forces:  Max     0.008637379 RMS     0.001782271
 Leave Link  716 at Wed May  8 21:48:47 2019, MaxMem=   104857600 cpu:               1.6 elap:               0.1
 (Enter /opt/software/gaussian/g16.b01/l103.exe)

 GradGradGradGradGradGradGradGradGradGradGradGradGradGradGradGradGradGrad
 Berny optimization.
 FormGI is forming the generalized inverse of G from B-inverse, IUseBI=4.
 GSVD:  received Info=                   1 from GESDD.
 Internal  Forces:  Max     0.005675085 RMS     0.000997929
 Search for a local minimum.
 Step number   1 out of a maximum of   88
 All quantities printed in internal units (Hartrees-Bohrs-Radians)
 RMS Force = .99793D-03 SwitMx=.10000D-02 MixMth= 2
 Mixed Optimization -- En-DIIS/RFO-DIIS
 Second derivative matrix not updated -- first step.
 ITU=  0
     Eigenvalues ---    0.00597   0.00710   0.00876   0.01682   0.02047
     Eigenvalues ---    0.02101   0.02115   0.02121   0.02139   0.02146
     Eigenvalues ---    0.02155   0.02170   0.07155   0.07523   0.15995
     Eigenvalues ---    0.16000   0.16000   0.16000   0.16000   0.16000
     Eigenvalues ---    0.16000   0.16000   0.22000   0.22000   0.23474
     Eigenvalues ---    0.24991   0.24993   0.25000   0.31076   0.33268
     Eigenvalues ---    0.34241   0.34443   0.34747   0.35296   0.35318
     Eigenvalues ---    0.35373   0.35457   0.35523   0.41457   0.41963
     Eigenvalues ---    0.45306   0.45514   0.46265   0.46983   0.90261
 RFO step:  Lambda=-4.64522764D-04 EMin= 5.97341385D-03
 Linear search not attempted -- first point.
 Iteration  1 RMS(Cart)=  0.01774443 RMS(Int)=  0.00052472
 Iteration  2 RMS(Cart)=  0.00068095 RMS(Int)=  0.00016305
 Iteration  3 RMS(Cart)=  0.00000023 RMS(Int)=  0.00016305
 ITry= 1 IFail=0 DXMaxC= 9.67D-02 DCOld= 1.00D+10 DXMaxT= 3.00D-01 DXLimC= 3.00D+00 Rises=F
 Variable       Old X    -DE/DX   Delta X   Delta X   Delta X     New X
                                 (Linear)    (Quad)   (Total)
    R1        2.32813  -0.00568   0.00000  -0.00628  -0.00628   2.32184
    R2        2.85868   0.00118   0.00000   0.00378   0.00378   2.86245
    R3        2.81884   0.00275   0.00000   0.00826   0.00826   2.82710
    R4        2.06589   0.00000   0.00000   0.00000   0.00000   2.06589
    R5        2.06925   0.00088   0.00000   0.00256   0.00256   2.07181
    R6        2.06088  -0.00020   0.00000  -0.00058  -0.00058   2.06030
    R7        2.65546   0.00005   0.00000   0.00007   0.00008   2.65553
    R8        2.65188   0.00102   0.00000   0.00226   0.00228   2.65415
    R9        2.62784   0.00087   0.00000   0.00180   0.00179   2.62963
   R10        2.04939  -0.00002   0.00000  -0.00007  -0.00007   2.04932
   R11        2.63410   0.00118   0.00000   0.00258   0.00259   2.63669
   R12        2.04834   0.00043   0.00000   0.00121   0.00121   2.04955
   R13        2.64334   0.00051   0.00000   0.00111   0.00110   2.64444
   R14        2.05162   0.00003   0.00000   0.00009   0.00009   2.05171
   R15        2.63854   0.00029   0.00000   0.00068   0.00068   2.63922
   R16        2.05073   0.00028   0.00000   0.00079   0.00079   2.05152
   R17        2.05197   0.00006   0.00000   0.00017   0.00017   2.05215
    A1        2.10115  -0.00063   0.00000  -0.00191  -0.00267   2.09849
    A2        2.09251   0.00353   0.00000   0.01469   0.01392   2.10642
    A3        2.08914  -0.00288   0.00000  -0.01091  -0.01167   2.07747
    A4        1.95160   0.00065   0.00000   0.00299   0.00299   1.95459
    A5        1.90070   0.00174   0.00000   0.01116   0.01115   1.91186
    A6        1.90539  -0.00072   0.00000  -0.00373  -0.00373   1.90166
    A7        1.88794  -0.00151   0.00000  -0.01089  -0.01090   1.87704
    A8        1.91928  -0.00007   0.00000  -0.00106  -0.00106   1.91822
    A9        1.89807  -0.00010   0.00000   0.00165   0.00164   1.89971
   A10        2.06823   0.00047   0.00000   0.00204   0.00199   2.07022
   A11        2.13300   0.00023   0.00000   0.00111   0.00106   2.13405
   A12        2.08172  -0.00069   0.00000  -0.00284  -0.00284   2.07888
   A13        2.10234   0.00028   0.00000   0.00098   0.00099   2.10333
   A14        2.07032  -0.00042   0.00000  -0.00226  -0.00226   2.06805
   A15        2.11053   0.00014   0.00000   0.00128   0.00127   2.11180
   A16        2.09784   0.00055   0.00000   0.00258   0.00256   2.10040
   A17        2.10283  -0.00027   0.00000  -0.00106  -0.00113   2.10169
   A18        2.08226  -0.00028   0.00000  -0.00111  -0.00118   2.08108
   A19        2.09254   0.00034   0.00000   0.00137   0.00137   2.09391
   A20        2.09459  -0.00012   0.00000  -0.00038  -0.00038   2.09421
   A21        2.09605  -0.00022   0.00000  -0.00098  -0.00098   2.09506
   A22        2.09614  -0.00023   0.00000  -0.00095  -0.00094   2.09520
   A23        2.09046   0.00024   0.00000   0.00128   0.00125   2.09171
   A24        2.09656  -0.00001   0.00000  -0.00026  -0.00029   2.09627
   A25        2.09575  -0.00025   0.00000  -0.00112  -0.00112   2.09463
   A26        2.09401   0.00014   0.00000   0.00070   0.00069   2.09470
   A27        2.09341   0.00011   0.00000   0.00046   0.00045   2.09386
    D1        2.34454  -0.00054   0.00000  -0.08348  -0.08334   2.26119
    D2       -1.85329  -0.00087   0.00000  -0.08788  -0.08773  -1.94102
    D3        0.21678  -0.00039   0.00000  -0.08155  -0.08140   0.13538
    D4       -0.82691   0.00004   0.00000  -0.01052  -0.01067  -0.83757
    D5        1.25845  -0.00029   0.00000  -0.01491  -0.01505   1.24340
    D6       -2.95467   0.00019   0.00000  -0.00858  -0.00873  -2.96339
    D7       -0.12102   0.00037   0.00000   0.05538   0.05558  -0.06544
    D8        2.99662   0.00063   0.00000   0.07054   0.07076   3.06738
    D9        3.05028  -0.00013   0.00000  -0.01693  -0.01715   3.03313
   D10       -0.11527   0.00012   0.00000  -0.00178  -0.00197  -0.11723
   D11        3.12399   0.00025   0.00000   0.01307   0.01307   3.13706
   D12       -0.01696   0.00018   0.00000   0.01034   0.01034  -0.00662
   D13        0.00563  -0.00001   0.00000  -0.00169  -0.00168   0.00395
   D14       -3.13532  -0.00008   0.00000  -0.00442  -0.00441  -3.13973
   D15       -3.11476  -0.00031   0.00000  -0.01599  -0.01598  -3.13074
   D16        0.00223   0.00011   0.00000   0.00340   0.00341   0.00564
   D17        0.00271  -0.00004   0.00000  -0.00065  -0.00066   0.00205
   D18        3.11969   0.00038   0.00000   0.01874   0.01873   3.13842
   D19       -0.00787   0.00003   0.00000   0.00173   0.00173  -0.00614
   D20        3.13741  -0.00005   0.00000  -0.00189  -0.00189   3.13552
   D21        3.13307   0.00009   0.00000   0.00452   0.00453   3.13759
   D22       -0.00484   0.00002   0.00000   0.00090   0.00091  -0.00393
   D23       -0.00877   0.00007   0.00000   0.00293   0.00294  -0.00584
   D24        3.12505   0.00030   0.00000   0.01344   0.01345   3.13850
   D25       -3.12604  -0.00034   0.00000  -0.01623  -0.01623   3.14091
   D26        0.00778  -0.00012   0.00000  -0.00572  -0.00572   0.00206
   D27        0.00177   0.00000   0.00000   0.00055   0.00055   0.00232
   D28       -3.13439  -0.00015   0.00000  -0.00686  -0.00686  -3.14125
   D29        3.13967   0.00008   0.00000   0.00417   0.00417  -3.13934
   D30        0.00352  -0.00007   0.00000  -0.00324  -0.00324   0.00028
   D31        0.00655  -0.00006   0.00000  -0.00290  -0.00289   0.00365
   D32       -3.14048   0.00009   0.00000   0.00451   0.00451  -3.13597
   D33       -3.12724  -0.00028   0.00000  -0.01345  -0.01344  -3.14068
   D34        0.00891  -0.00013   0.00000  -0.00604  -0.00603   0.00288
         Item               Value     Threshold  Converged?
 Maximum Force            0.005675     0.000450     NO 
 RMS     Force            0.000998     0.000300     NO 
 Maximum Displacement     0.096693     0.001800     NO 
 RMS     Displacement     0.017790     0.001200     NO 
 Predicted change in Energy=-2.398731D-04
 Lowest energy point so far.  Saving SCF results.
 GradGradGradGradGradGradGradGradGradGradGradGradGradGradGradGradGradGrad

 Leave Link  103 at Wed May  8 21:48:47 2019, MaxMem=   104857600 cpu:               4.0 elap:               0.2
 (Enter /opt/software/gaussian/g16.b01/l202.exe)
                          Input orientation:                          
 ---------------------------------------------------------------------
 Center     Atomic      Atomic             Coordinates (Angstroms)
 Number     Number       Type             X           Y           Z
 ---------------------------------------------------------------------
      1          6           0       -0.844848    1.524271   -0.517064
      2          8           0       -1.662959    1.750900    0.371168
      3          6           0       -1.313374    1.167466   -1.912638
      4          1           0       -0.826400    1.779064   -2.676799
      5          1           0       -1.070909    0.119380   -2.124106
      6          1           0       -2.394575    1.296730   -1.967129
      7          6           0        0.622475    1.649944   -0.253834
      8          6           0        1.043338    2.109385    1.005732
      9          6           0        1.588509    1.315291   -1.216880
     10          6           0        2.398590    2.236143    1.294882
     11          1           0        0.288990    2.363254    1.742315
     12          6           0        2.947310    1.435867   -0.923773
     13          1           0        1.287413    0.955751   -2.194824
     14          6           0        3.353931    1.897868    0.329922
     15          1           0        2.714210    2.597328    2.268900
     16          1           0        3.687156    1.172202   -1.673225
     17          1           0        4.411760    1.996201    0.554901
 ---------------------------------------------------------------------
                    Distance matrix (angstroms):
                    1          2          3          4          5
     1  C    0.000000
     2  O    1.228667   0.000000
     3  C    1.514745   2.382934   0.000000
     4  H    2.174791   3.160812   1.093224   0.000000
     5  H    2.146487   3.039535   1.096354   1.766297   0.000000
     6  H    2.134507   2.491820   1.090264   1.787583   1.778451
     7  C    1.496035   2.371504   2.594595   2.826070   2.950948
     8  C    2.495297   2.802717   3.867580   4.143195   4.269197
     9  C    2.540599   3.644681   2.987784   2.859762   3.053812
    10  C    3.782829   4.193434   5.020849   5.136510   5.311081
    11  H    2.663508   2.462748   4.166072   4.594992   4.672634
    12  C    3.814930   4.799031   4.382159   4.175138   4.395455
    13  H    2.772117   3.990147   2.624604   2.319127   2.503238
    14  C    4.299617   5.019212   5.229369   5.150695   5.363253
    15  H    4.645421   4.845352   5.979230   6.137216   6.306017
    16  H    4.690385   5.756575   5.006260   4.663436   4.893966
    17  H    5.385514   6.082446   6.289094   6.158682   6.384293
                    6          7          8          9         10
     6  H    0.000000
     7  C    3.487511   0.000000
     8  C    4.617094   1.405246   0.000000
     9  C    4.053169   1.404518   2.422354   0.000000
    10  C    5.873470   2.428319   1.391541   2.795201   0.000000
    11  H    4.700955   2.145842   1.084456   3.397618   2.160270
    12  C    5.444602   2.428890   2.793157   1.395274   2.421562
    13  H    3.704747   2.165985   3.410866   1.084575   3.879712
    14  C    6.219577   2.804120   2.416672   2.418410   1.399376
    15  H    6.762779   3.411316   2.150697   3.880913   1.085718
    16  H    6.090102   3.411037   3.878775   2.152450   3.406175
    17  H    7.292195   3.890068   3.400343   3.401999   2.158240
                   11         12         13         14         15
    11  H    0.000000
    12  C    3.877465   0.000000
    13  H    4.298719   2.145074   0.000000
    14  C    3.406655   1.396616   3.395943   0.000000
    15  H    2.492744   3.405362   4.965417   2.158269   0.000000
    16  H    4.963068   1.085619   2.465295   2.156438   4.303250
    17  H    4.306032   2.155241   4.290113   1.085950   2.486127
                   16         17
    16  H    0.000000
    17  H    2.483661   0.000000
 Stoichiometry    C8H8O
 Framework group  C1[X(C8H8O)]
 Deg. of freedom    45
 Full point group                 C1      NOp   1
 RotChk:  IX=0 Diff= 1.20D-02
 Largest Abelian subgroup         C1      NOp   1
 Largest concise Abelian subgroup C1      NOp   1
                         Standard orientation:                         
 ---------------------------------------------------------------------
 Center     Atomic      Atomic             Coordinates (Angstroms)
 Number     Number       Type             X           Y           Z
 ---------------------------------------------------------------------
      1          6           0       -1.696097   -0.198036   -0.023984
      2          8           0       -2.221087   -1.307773   -0.073911
      3          6           0       -2.552655    1.047037    0.078742
      4          1           0       -2.226910    1.702126    0.891077
      5          1           0       -2.482986    1.618112   -0.854539
      6          1           0       -3.590464    0.751159    0.233935
      7          6           0       -0.206723   -0.057988   -0.007540
      8          6           0        0.578403   -1.222832    0.030321
      9          6           0        0.429191    1.193927   -0.039029
     10          6           0        1.967349   -1.138617    0.041312
     11          1           0        0.076975   -2.184142    0.052639
     12          6           0        1.821963    1.277366   -0.035194
     13          1           0       -0.156073    2.106460   -0.071472
     14          6           0        2.592136    0.113073    0.007131
     15          1           0        2.565659   -2.043924    0.076336
     16          1           0        2.305072    2.249181   -0.062602
     17          1           0        3.676013    0.179637    0.015356
 ---------------------------------------------------------------------
 Rotational constants (GHZ):           3.6777098           1.2109744           0.9170951
 Leave Link  202 at Wed May  8 21:48:47 2019, MaxMem=   104857600 cpu:               1.4 elap:               0.1
 (Enter /opt/software/gaussian/g16.b01/l301.exe)
 Standard basis: 6-31G(d,p) (6D, 7F)
 Ernie: Thresh=  0.10000D-02 Tol=  0.10000D-05 Strict=F.
 There are   175 symmetry adapted cartesian basis functions of A   symmetry.
 There are   175 symmetry adapted basis functions of A   symmetry.
   175 basis functions,   308 primitive gaussians,   175 cartesian basis functions
    32 alpha electrons       32 beta electrons
       nuclear repulsion energy       400.4638358813 Hartrees.
 IExCor=  402 DFT=T Ex+Corr=B3LYP ExCW=0 ScaHFX=  0.200000
 ScaDFX=  0.800000  0.720000  1.000000  0.810000 ScalE2=  1.000000  1.000000
 IRadAn=      5 IRanWt=     -1 IRanGd=            0 ICorTp=0 IEmpDi=131
 NAtoms=   17 NActive=   17 NUniq=   17 SFac= 1.00D+00 NAtFMM=   60 NAOKFM=F Big=F
 Integral buffers will be    131072 words long.
 Raffenetti 2 integral format.
 Two-electron integral symmetry is turned on.
 R6Disp:  Grimme-D3 Dispersion energy=       -0.0112182188 Hartrees.
 Nuclear repulsion after empirical dispersion term =      400.4526176625 Hartrees.
 ------------------------------------------------------------------------------
 Polarizable Continuum Model (PCM)
 =================================
 Model                : PCM.
 Atomic radii         : UFF (Universal Force Field).
 Polarization charges : Total charges.
 Charge compensation  : None.
 Solution method      : On-the-fly selection.
 Cavity type          : Scaled VdW (van der Waals Surface) (Alpha=1.100).
 Cavity algorithm     : GePol (No added spheres)
                        Default sphere list used, NSphG=   17.
                        Lebedev-Laikov grids with approx.  5.0 points / Ang**2.
                        Smoothing algorithm: York/Karplus (Gamma=1.0000).
                        Polarization charges: spherical gaussians, with
                                              point-specific exponents (IZeta= 3).
                        Self-potential: point-specific (ISelfS= 7).
                        Self-field    : sphere-specific E.n sum rule (ISelfD= 2).
 1st derivatives      : Analytical E(r).r(x)/FMM algorithm (CHGder, D1EAlg=3).
                        Cavity 1st derivative terms included.
 Solvent              : Acetonitrile, Eps=  35.688000 Eps(inf)=   1.806874
 ------------------------------------------------------------------------------
 Spheres list:
 ISph  on   Nord     Re0    Alpha      Xe            Ye            Ze
    1   C      1    1.9255  1.100     -1.696097     -0.198036     -0.023984
    2   O      2    1.7500  1.100     -2.221087     -1.307773     -0.073911
    3   C      3    1.9255  1.100     -2.552655      1.047037      0.078742
    4   H      4    1.4430  1.100     -2.226910      1.702126      0.891077
    5   H      5    1.4430  1.100     -2.482986      1.618112     -0.854539
    6   H      6    1.4430  1.100     -3.590464      0.751159      0.233935
    7   C      7    1.9255  1.100     -0.206723     -0.057988     -0.007540
    8   C      8    1.9255  1.100      0.578403     -1.222832      0.030321
    9   C      9    1.9255  1.100      0.429191      1.193927     -0.039029
   10   C     10    1.9255  1.100      1.967349     -1.138617      0.041312
   11   H     11    1.4430  1.100      0.076975     -2.184142      0.052639
   12   C     12    1.9255  1.100      1.821963      1.277366     -0.035194
   13   H     13    1.4430  1.100     -0.156073      2.106460     -0.071472
   14   C     14    1.9255  1.100      2.592136      0.113073      0.007131
   15   H     15    1.4430  1.100      2.565659     -2.043924      0.076336
   16   H     16    1.4430  1.100      2.305072      2.249181     -0.062602
   17   H     17    1.4430  1.100      3.676013      0.179637      0.015356
 ------------------------------------------------------------------------------
 GePol: Number of generator spheres                  =      17
 GePol: Total number of spheres                      =      17
 GePol: Number of exposed spheres                    =      17 (100.00%)
 GePol: Number of points                             =    1433
 GePol: Average weight of points                     =       0.13
 GePol: Minimum weight of points                     =   0.17D-09
 GePol: Maximum weight of points                     =    0.20577
 GePol: Number of points with low weight             =      74
 GePol: Fraction of low-weight points (<1% of avg)   =       5.16%
 GePol: Cavity surface area                          =    189.270 Ang**2
 GePol: Cavity volume                                =    188.115 Ang**3
 Leave Link  301 at Wed May  8 21:48:48 2019, MaxMem=   104857600 cpu:               2.0 elap:               0.1
 (Enter /opt/software/gaussian/g16.b01/l302.exe)
 NPDir=0 NMtPBC=     1 NCelOv=     1 NCel=       1 NClECP=     1 NCelD=      1
         NCelK=      1 NCelE2=     1 NClLst=     1 CellRange=     0.0.
 One-electron integrals computed using PRISM.
 One-electron integral symmetry used in STVInt
 PrsmSu:  requested number of processors reduced to:  30 ShMem   1 Linda.
 NBasis=   175 RedAO= T EigKep=  4.71D-04  NBF=   175
 NBsUse=   175 1.00D-06 EigRej= -1.00D+00 NBFU=   175
 Precomputing XC quadrature grid using
 IXCGrd= 4 IRadAn=           5 IRanWt=          -1 IRanGd=           0 AccXCQ= 0.00D+00.
 Generated NRdTot=       0 NPtTot=           0 NUsed=           0 NTot=          32
 NSgBfM=   175   175   175   175   175 MxSgAt=    17 MxSgA2=    17.
 Leave Link  302 at Wed May  8 21:48:48 2019, MaxMem=   104857600 cpu:               7.5 elap:               0.3
 (Enter /opt/software/gaussian/g16.b01/l303.exe)
 DipDrv:  MaxL=1.
 Leave Link  303 at Wed May  8 21:48:48 2019, MaxMem=   104857600 cpu:               0.9 elap:               0.1
 (Enter /opt/software/gaussian/g16.b01/l401.exe)
 Initial guess from the checkpoint file:  "Ketone.chk"
 B after Tr=    -0.000000    0.000000   -0.000000
         Rot=    0.999999   -0.000471   -0.000056    0.001182 Ang=  -0.15 deg.
 Guess basis will be translated and rotated to current coordinates.
 JPrj=2 DoOrth=T DoCkMO=T.
 Generating alternative initial guess.
 ExpMin= 1.61D-01 ExpMax= 5.48D+03 ExpMxC= 8.25D+02 IAcc=3 IRadAn=         5 AccDes= 0.00D+00
 Harris functional with IExCor=  402 and IRadAn=       5 diagonalized for initial guess.
 HarFok:  IExCor=  402 AccDes= 0.00D+00 IRadAn=         5 IDoV= 1 UseB2=F ITyADJ=14
 ICtDFT=  3500011 ScaDFX=  1.000000  1.000000  1.000000  1.000000
 FoFCou: FMM=F IPFlag=           0 FMFlag=      100000 FMFlg1=           0
         NFxFlg=           0 DoJE=T BraDBF=F KetDBF=T FulRan=T
         wScrn=  0.000000 ICntrl=       500 IOpCl=  0 I1Cent=   200000004 NGrid=           0
         NMat0=    1 NMatS0=      1 NMatT0=    0 NMatD0=    1 NMtDS0=    0 NMtDT0=    0
 Petite list used in FoFCou.
 Harris En= -384.955183610419    
 Leave Link  401 at Wed May  8 21:48:48 2019, MaxMem=   104857600 cpu:              13.5 elap:               0.5
 (Enter /opt/software/gaussian/g16.b01/l502.exe)
 Integral symmetry usage will be decided dynamically.
 Closed shell SCF:
 Using DIIS extrapolation, IDIIS=  1040.
 NGot=   104857600 LenX=   104788772 LenY=   104757706
 Requested convergence on RMS density matrix=1.00D-08 within 128 cycles.
 Requested convergence on MAX density matrix=1.00D-06.
 Requested convergence on             energy=1.00D-06.
 No special actions if energy rises.
 Fock matrices will be formed incrementally for  20 cycles.

 Cycle   1  Pass 1  IDiag  1:
 FoFJK:  IHMeth= 1 ICntrl=       0 DoSepK=F KAlg= 0 I1Cent=           0 FoldK=F
 IRaf= 920000000 NMat=       1 IRICut=       1 DoRegI=T DoRafI=F ISym2E= 0 IDoP0=0 IntGTp=1.
 FoFCou: FMM=F IPFlag=           0 FMFlag=      100000 FMFlg1=           0
         NFxFlg=           0 DoJE=F BraDBF=F KetDBF=F FulRan=T
         wScrn=  0.000000 ICntrl=         0 IOpCl=  0 I1Cent=           0 NGrid=           0
         NMat0=    1 NMatS0=      1 NMatT0=    0 NMatD0=    1 NMtDS0=    0 NMtDT0=    0
 Symmetry not used in FoFCou.
 Inv3:  Mode=1 IEnd=     6160467.
 Iteration    1 A*A^-1 deviation from unit magnitude is 3.11D-15 for    183.
 Iteration    1 A*A^-1 deviation from orthogonality  is 2.16D-15 for    911    435.
 Iteration    1 A^-1*A deviation from unit magnitude is 3.33D-15 for    183.
 Iteration    1 A^-1*A deviation from orthogonality  is 3.11D-15 for   1283   1098.
 E= -384.922947786487    
 DIIS: error= 2.77D-03 at cycle   1 NSaved=   1.
 NSaved= 1 IEnMin= 1 EnMin= -384.922947786487     IErMin= 1 ErrMin= 2.77D-03
 ErrMax= 2.77D-03  0.00D+00 EMaxC= 1.00D-01 BMatC= 1.14D-03 BMatP= 1.14D-03
 IDIUse=3 WtCom= 9.72D-01 WtEn= 2.77D-02
 Coeff-Com:  0.100D+01
 Coeff-En:   0.100D+01
 Coeff:      0.100D+01
 Gap=     1.922 Goal=   None    Shift=    0.000
 GapD=    1.922 DampG=2.000 DampE=1.000 DampFc=2.0000 IDamp=-1.
 RMSDP=3.72D-04 MaxDP=1.31D-02              OVMax= 1.81D-02

 Cycle   2  Pass 1  IDiag  1:
 RMSU=  3.72D-04    CP:  1.00D+00
 E= -384.925207451599     Delta-E=       -0.002259665112 Rises=F Damp=F
 DIIS: error= 4.14D-04 at cycle   2 NSaved=   2.
 NSaved= 2 IEnMin= 2 EnMin= -384.925207451599     IErMin= 2 ErrMin= 4.14D-04
 ErrMax= 4.14D-04  0.00D+00 EMaxC= 1.00D-01 BMatC= 2.43D-05 BMatP= 1.14D-03
 IDIUse=3 WtCom= 9.96D-01 WtEn= 4.14D-03
 Coeff-Com: -0.707D-01 0.107D+01
 Coeff-En:   0.000D+00 0.100D+01
 Coeff:     -0.704D-01 0.107D+01
 Gap=     0.195 Goal=   None    Shift=    0.000
 RMSDP=5.42D-05 MaxDP=1.47D-03 DE=-2.26D-03 OVMax= 2.52D-03

 Cycle   3  Pass 1  IDiag  1:
 RMSU=  4.40D-05    CP:  1.00D+00  1.08D+00
 E= -384.925229337577     Delta-E=       -0.000021885978 Rises=F Damp=F
 DIIS: error= 3.26D-04 at cycle   3 NSaved=   3.
 NSaved= 3 IEnMin= 3 EnMin= -384.925229337577     IErMin= 3 ErrMin= 3.26D-04
 ErrMax= 3.26D-04  0.00D+00 EMaxC= 1.00D-01 BMatC= 2.13D-05 BMatP= 2.43D-05
 IDIUse=3 WtCom= 9.97D-01 WtEn= 3.26D-03
 Coeff-Com: -0.459D-01 0.557D+00 0.489D+00
 Coeff-En:   0.000D+00 0.000D+00 0.100D+01
 Coeff:     -0.458D-01 0.555D+00 0.491D+00
 Gap=     0.196 Goal=   None    Shift=    0.000
 RMSDP=3.57D-05 MaxDP=1.53D-03 DE=-2.19D-05 OVMax= 2.01D-03

 Cycle   4  Pass 1  IDiag  1:
 RMSU=  2.33D-05    CP:  1.00D+00  1.09D+00  3.92D-01
 E= -384.925242565947     Delta-E=       -0.000013228370 Rises=F Damp=F
 DIIS: error= 1.97D-04 at cycle   4 NSaved=   4.
 NSaved= 4 IEnMin= 4 EnMin= -384.925242565947     IErMin= 4 ErrMin= 1.97D-04
 ErrMax= 1.97D-04  0.00D+00 EMaxC= 1.00D-01 BMatC= 5.66D-06 BMatP= 2.13D-05
 IDIUse=3 WtCom= 9.98D-01 WtEn= 1.97D-03
 Coeff-Com: -0.136D-01 0.143D+00 0.339D+00 0.532D+00
 Coeff-En:   0.000D+00 0.000D+00 0.237D+00 0.763D+00
 Coeff:     -0.136D-01 0.143D+00 0.338D+00 0.532D+00
 Gap=     0.196 Goal=   None    Shift=    0.000
 RMSDP=1.27D-05 MaxDP=5.91D-04 DE=-1.32D-05 OVMax= 7.63D-04

 Cycle   5  Pass 1  IDiag  1:
 RMSU=  4.98D-06    CP:  1.00D+00  1.09D+00  5.81D-01  6.53D-01
 E= -384.925246979530     Delta-E=       -0.000004413583 Rises=F Damp=F
 DIIS: error= 1.72D-05 at cycle   5 NSaved=   5.
 NSaved= 5 IEnMin= 5 EnMin= -384.925246979530     IErMin= 5 ErrMin= 1.72D-05
 ErrMax= 1.72D-05  0.00D+00 EMaxC= 1.00D-01 BMatC= 1.06D-07 BMatP= 5.66D-06
 IDIUse=1 WtCom= 1.00D+00 WtEn= 0.00D+00
 Coeff-Com: -0.277D-02 0.228D-01 0.114D+00 0.219D+00 0.647D+00
 Coeff:     -0.277D-02 0.228D-01 0.114D+00 0.219D+00 0.647D+00
 Gap=     0.196 Goal=   None    Shift=    0.000
 RMSDP=2.40D-06 MaxDP=8.56D-05 DE=-4.41D-06 OVMax= 1.70D-04

 Cycle   6  Pass 1  IDiag  1:
 RMSU=  1.88D-06    CP:  1.00D+00  1.10D+00  5.96D-01  6.78D-01  7.63D-01
 E= -384.925247060820     Delta-E=       -0.000000081290 Rises=F Damp=F
 DIIS: error= 8.00D-06 at cycle   6 NSaved=   6.
 NSaved= 6 IEnMin= 6 EnMin= -384.925247060820     IErMin= 6 ErrMin= 8.00D-06
 ErrMax= 8.00D-06  0.00D+00 EMaxC= 1.00D-01 BMatC= 2.56D-08 BMatP= 1.06D-07
 IDIUse=1 WtCom= 1.00D+00 WtEn= 0.00D+00
 Coeff-Com:  0.111D-02-0.169D-01 0.264D-03 0.260D-01 0.361D+00 0.629D+00
 Coeff:      0.111D-02-0.169D-01 0.264D-03 0.260D-01 0.361D+00 0.629D+00
 Gap=     0.196 Goal=   None    Shift=    0.000
 RMSDP=1.04D-06 MaxDP=4.17D-05 DE=-8.13D-08 OVMax= 8.29D-05

 Cycle   7  Pass 1  IDiag  1:
 RMSU=  5.08D-07    CP:  1.00D+00  1.10D+00  5.98D-01  6.87D-01  8.60D-01
                    CP:  6.12D-01
 E= -384.925247086157     Delta-E=       -0.000000025337 Rises=F Damp=F
 DIIS: error= 2.67D-06 at cycle   7 NSaved=   7.
 NSaved= 7 IEnMin= 7 EnMin= -384.925247086157     IErMin= 7 ErrMin= 2.67D-06
 ErrMax= 2.67D-06  0.00D+00 EMaxC= 1.00D-01 BMatC= 1.77D-09 BMatP= 2.56D-08
 IDIUse=1 WtCom= 1.00D+00 WtEn= 0.00D+00
 Coeff-Com:  0.711D-03-0.102D-01-0.517D-02 0.470D-02 0.165D+00 0.342D+00
 Coeff-Com:  0.503D+00
 Coeff:      0.711D-03-0.102D-01-0.517D-02 0.470D-02 0.165D+00 0.342D+00
 Coeff:      0.503D+00
 Gap=     0.196 Goal=   None    Shift=    0.000
 RMSDP=2.92D-07 MaxDP=7.64D-06 DE=-2.53D-08 OVMax= 2.00D-05

 Cycle   8  Pass 1  IDiag  1:
 RMSU=  1.72D-07    CP:  1.00D+00  1.10D+00  5.98D-01  6.89D-01  8.59D-01
                    CP:  6.69D-01  6.02D-01
 E= -384.925247088050     Delta-E=       -0.000000001892 Rises=F Damp=F
 DIIS: error= 4.96D-07 at cycle   8 NSaved=   8.
[...]
   yy         0.461255D+02      0.683509D+01      0.760507D+01
   zx         0.133007D+02      0.197096D+01      0.219298D+01
   zy        -0.220344D+01     -0.326516D+00     -0.363298D+00
   zz         0.137596D+03      0.203897D+02      0.226866D+02

 ----------------------------------------------------------------------
 1\1\GINC-GRA757\Freq\RB3LYP\6-31G(d,p)\C8H8O1\RZK\08-May-2019\0\\#P Ge
 om=AllCheck Guess=TCheck SCRF=Check GenChk RB3LYP/6-31G(d,p) Freq\\Tit
 le Card Required\\0,1\C,-0.8482930831,1.5947750304,-0.5351375057\O,-1.
 662743785,1.8953926045,0.3316259507\C,-1.3140476979,1.1300891056,-1.90
 05872741\H,-0.9341955276,1.7916485285,-2.686205489\H,-0.9421457365,0.1
 228527414,-2.1157004447\H,-2.4039969467,1.1276343527,-1.9228424085\C,0
 .6218124988,1.6801280578,-0.2639288584\C,1.0437861318,2.1119356269,1.0
 0479036\C,1.5863804581,1.3455044361,-1.2278919439\C,2.3991188566,2.207
 5693063,1.3047384588\H,0.2894944733,2.3675934493,1.7411142192\C,2.9451
 549545,1.4415315963,-0.9266652507\H,1.2862138558,1.009501209,-2.214332
 529\C,3.3532336724,1.8719893593,0.3379575605\H,2.7153796116,2.54220075
 89,2.2879998321\H,3.6841003892,1.1806622501,-1.6778870373\H,4.41136787
 48,1.946036587,0.5705013601\\Version=ES64L-G16RevB.01\State=1-A\HF=-38
 4.9255822\RMSD=2.192e-09\RMSF=2.750e-05\ZeroPoint=0.1382018\Thermal=0.
 1459626\Dipole=1.2678069,-0.3051134,-0.872905\DipoleDeriv=2.2758683,0.
 0603372,0.2068614,0.0251919,0.341945,0.3440117,0.1039727,0.3445115,1.2
 332732,-1.4806718,0.0569174,0.1502409,0.146716,-0.4531402,-0.1796686,0
 .4128357,-0.1809843,-0.9139462,-0.0705461,-0.0492235,-0.1456779,-0.061
 6728,-0.004834,-0.1487669,-0.182145,-0.1486578,-0.3917306,0.0451299,-0
 .073906,0.0395999,-0.0665135,0.0245401,0.071246,0.0312707,0.0513361,0.
 006806,0.0465504,0.0819816,-0.0142933,0.0711057,-0.0427912,-0.0335931,
 -0.0161621,-0.013585,0.0727395,-0.1350161,-0.014376,-0.045176,-0.00048
 7,0.0849044,-0.0083838,-0.0045445,-0.0085612,0.0626316,-0.9100902,-0.0
 609706,-0.1915063,-0.1094478,-0.0387241,-0.0551487,-0.3331391,-0.05441
 23,-0.1844226,0.1259902,-0.0573861,-0.1645074,0.0503891,-0.0820585,0.0
 342642,0.1505947,0.0326748,0.0042584,0.1682384,0.0622421,0.186071,-0.0
 262923,-0.0935336,0.0456597,-0.0727013,0.0469184,0.026772,-0.2344117,0
 .0564559,0.1635498,0.0427974,-0.1039347,0.0822615,0.1236045,0.0824782,
 0.111169,0.0713925,0.0377177,0.1094985,0.0235544,0.1130846,-0.0282357,
 0.0681108,-0.028042,0.0419008,-0.0752534,-0.0796009,-0.2318074,-0.0869
 127,-0.1224252,0.0250275,-0.253136,0.0251248,-0.0618217,0.0986014,-0.0
 234828,-0.0691276,-0.0187423,0.1075701,-0.0624381,-0.0551945,-0.062460
 2,-0.0545879,0.1607744,0.004768,0.0177665,0.011016,-0.0730513,0.051934
 ,0.0359941,0.0518435,0.0613797,0.0570269,-0.0195401,-0.0582396,-0.0242
 211,0.1053331,-0.0751227,-0.071939,-0.0750671,-0.089651,-0.0235409,0.0
 326029,0.0929695,0.0381324,0.1148513,-0.0488742,0.1090503,-0.0489382,-
 0.0096552,-0.1200421,-0.0145367,-0.046222,-0.0146133,0.1222641,-0.0141
 727,-0.0464721,-0.0141793,0.0848849\Polar=150.2391026,0.7604281,52.088
 3178,3.8153763,24.7143,115.9513744\Quadrupole=-2.009517,-1.4836972,3.4
 932142,1.4514764,4.2471938,1.9005144\PG=C01 [X(C8H8O1)]\NImag=0\\0.662
 47791,-0.06550084,0.27910142,-0.18499326,0.16263530,0.69585634,-0.3510
 9227,0.09659122,0.27817871,0.40772507,0.09287555,-0.10764203,-0.116272
 11,-0.11162386,0.07477432,0.26731560,-0.11621619,-0.40318508,-0.320653
 65,0.14512990,0.44408889,-0.11404196,-0.01594706,-0.04700753,0.0131486
 7,0.01131790,0.03291024,0.60219263,-0.01352286,-0.09553252,-0.02148803
 ,0.00341915,0.01731512,-0.02453424,-0.01241871,0.52363117,-0.03990824,
 -0.02152081,-0.15174867,0.00981606,-0.02441414,-0.04551049,-0.03527164
 ,-0.01726220,0.47837171,0.00421737,0.01031207,-0.00411952,0.00092738,-
 0.00144421,-0.00058266,-0.07980568,-0.05843820,0.06345789,0.08227678,0
 .00575419,0.00841478,-0.00863962,-0.00025494,-0.00305962,-0.00188475,-
 0.05785412,-0.13938455,0.11706084,0.06291630,0.15185368,0.01419534,0.0
 2000897,-0.01771055,-0.00222683,-0.00494920,-0.00428364,0.06487288,0.1
 2086566,-0.18307974,-0.07229755,-0.12745257,0.19647994,0.00410949,-0.0
 1068686,0.00308118,0.00093473,0.00077011,-0.00133497,-0.07845802,0.083
 58188,0.01390577,0.00345811,-0.01085999,-0.00258335,0.08080635,0.00404
 813,-0.00682135,0.00024492,-0.00116776,-0.00020785,-0.00126344,0.08397
 087,-0.27239763,-0.04892650,0.00684036,-0.01746680,-0.00430689,-0.0923
 7710,0.29357962,0.01452609,-0.02854585,-0.00235753,-0.00187709,0.00180
 772,-0.00714816,0.01534577,-0.05273870,-0.05144636,-0.00850857,0.02233
 883,0.00573620,-0.01812257,0.05341402,0.05625587,-0.01167103,0.0007141
 9,0.00194247,0.00289717,0.00042967,0.00131014,-0.32710271,-0.00051036,
 -0.00535251,-0.00762503,0.00067594,-0.00083456,-0.00740115,-0.00096155
 ,-0.00025604,0.35057023,-0.01175176,-0.00136531,-0.00014122,0.00047111
 ,-0.00048159,0.00140615,0.00136671,-0.04808302,0.00049904,-0.01967644,
 0.00032804,-0.00198052,0.02952170,0.00253435,0.00113193,0.00036396,0.0
 4623144,-0.03451944,0.00002989,-0.00176535,0.00143202,0.00140768,0.003
 17224,0.00013889,0.00047326,-0.04685486,0.02267169,-0.00211848,0.00156
 782,0.00587097,0.00112907,-0.00086410,0.00529033,0.00151256,0.05021104
 ,-0.16244908,-0.01377633,-0.04151213,-0.06249140,0.01055507,0.02965294
 ,-0.00526067,-0.00221138,-0.00678304,-0.00132880,-0.00026161,-0.000604
 69,-0.00131481,-0.00014587,-0.00061813,0.00040432,0.00004967,0.0001277
 8,0.61859359,-0.00906003,-0.08252129,-0.01315739,0.01318623,0.01805264
 ,-0.00238829,-0.00929184,0.01383311,-0.00570936,-0.00137505,-0.0007452
 8,-0.00229122,0.00114928,0.00048932,0.00241334,-0.00062408,0.00081415,
 -0.00233696,-0.01097040,0.19977318,-0.02772800,-0.01322746,-0.11714440
 ,0.03734365,-0.00242681,0.01239137,-0.02747896,-0.00560594,-0.00105274
 ,0.00008755,0.00079944,0.00064620,-0.00078007,-0.00067867,-0.00060161,
 -0.00184131,-0.00232744,-0.00522202,-0.02500599,0.16790667,0.63279578,
 -0.02061669,-0.01073656,-0.03173018,-0.00013544,-0.00193378,-0.0056528
 4,-0.00599405,0.00067601,0.00186283,0.00052168,0.00022261,-0.00014326,
 0.00052041,-0.00026744,0.00002791,-0.00053822,-0.00055073,-0.00162380,
 -0.13363793,-0.00652368,-0.02007235,0.72998725,-0.00849184,0.00231353,
 -0.00001311,0.00193465,-0.00113095,-0.00274218,0.00038685,0.00203404,0
 .00003594,0.00003657,-0.00013856,-0.00032901,0.00027999,0.00005054,0.0
 0032323,0.00012731,0.00032616,0.00001131,-0.02259351,-0.09030945,-0.07
 129028,-0.01424914,0.19697747,-0.02516898,-0.00004555,0.00176632,0.005
 65839,-0.00280012,-0.00828488,0.00101159,0.00003933,0.00215769,0.00051
 357,0.00007857,0.00004297,0.00042941,-0.00008894,-0.00014511,0.0003595
 4,0.00000128,0.00033100,-0.06705868,-0.07105239,-0.27476725,-0.0328511
 5,0.16760562,0.62913904,-0.02654572,0.00761258,0.02187768,-0.00186776,
 -0.00107077,-0.00320646,-0.00227472,-0.00040526,-0.00119874,-0.0009219
 2,-0.00052745,0.00019021,-0.00092244,0.00054532,-0.00017587,0.00041807
 ,0.00028177,0.00082707,-0.20762410,0.02341967,0.06634283,0.05479799,0.
 01490792,0.04428446,0.67448581,0.00332984,0.00049203,0.00395298,-0.003
 43776,0.00326027,-0.00003103,-0.00031949,-0.00106120,0.00001095,0.0001
 2223,0.00049600,-0.00019836,-0.00053110,0.00014336,0.00004203,-0.00000
 541,-0.00001087,-0.00030906,0.03976928,-0.08194304,-0.05301913,0.00145
 258,0.00163832,-0.01788614,0.00686710,0.19997532,0.00934886,0.00401575
 ,0.01103547,-0.01012421,0.00000386,0.00311520,-0.00095263,0.00001135,-
 0.00105189,-0.00072278,0.00049639,-0.00005774,-0.00050602,-0.00064767,
 0.00029180,-0.00001095,-0.00030491,-0.00079584,0.11413174,-0.05325907,
 -0.21761265,0.00494154,-0.01768284,-0.04386510,0.02808997,0.18167800,0
 .66933119,0.00865579,-0.00105000,-0.00304770,-0.00079957,0.00076181,0.
 00222545,-0.00004765,-0.00031603,-0.00091598,-0.00038045,-0.00006311,0
 .00018192,-0.00038010,0.00016427,0.00010252,-0.00005442,-0.00003622,-0
 .00010362,-0.00666472,-0.02561385,-0.07510745,-0.33880731,-0.00425555,
 -0.01659239,-0.06176974,0.00612643,0.01708966,0.67819790,-0.00059493,0
 .00562815,-0.00445159,0.00068319,-0.00044980,0.00069451,-0.00063167,-0
 .00061558,0.00044186,0.00017270,0.00009112,0.00017557,-0.00003807,-0.0
 0003267,-0.00014513,-0.00007118,-0.00020262,-0.00009555,-0.01076840,0.
 00819439,0.00033419,-0.02571871,-0.07014384,-0.02443058,0.00589184,-0.
 00668878,0.00027861,0.00619430,0.19559399,-0.00171421,-0.00445836,-0.0
 0591317,0.00199580,0.00069595,0.00138045,-0.00183552,0.00044582,0.0005
 0826,0.00015459,0.00001431,0.00000888,0.00022645,0.00001569,0.00013267
 ,-0.00020652,-0.00009483,-0.00045098,-0.03170403,0.00011147,0.00787799
 ,-0.07935145,-0.02410972,-0.13360540,0.01639902,0.00028271,-0.00568383
 ,0.02632066,0.18481673,0.67319917,-0.00104968,-0.00007213,-0.00016875,
 -0.00222733,-0.00059631,-0.00177558,-0.00000648,0.00010955,0.00031888,
 0.00002063,0.00001107,0.00013175,0.00002115,0.00007220,0.00011140,0.00
 005888,0.00000853,0.00002478,0.01150850,-0.00163401,-0.00466095,-0.193
 49583,0.04678677,0.13450965,-0.00038126,-0.00077694,-0.00236512,-0.014
 65687,0.00737200,0.02127567,0.20386592,0.00110394,-0.00373938,0.000435
 37,-0.00020846,0.00025881,0.00079900,-0.00008079,0.00010847,0.00007504
 ,-0.00000911,0.00000891,-0.00000881,0.00003265,0.00006567,0.00006295,-
 0.00001735,0.00005808,-0.00002390,0.00695530,0.00138560,-0.00646004,0.
 04653154,-0.05739012,-0.05207004,-0.00113635,0.00488700,-0.00315561,-0
 .00233062,0.00469254,0.00163785,-0.05030054,0.04756155,0.00327007,0.00
 041791,-0.00261214,-0.00064223,0.00079347,0.00229472,-0.00023775,0.000
 07788,0.00030668,0.00004132,-0.00001059,0.00013758,0.00002754,0.000065
 67,0.00008044,-0.00005078,-0.00002352,-0.00000341,0.02045280,-0.006588
 07,-0.01532875,0.13376882,-0.05206746,-0.18959809,-0.00341876,-0.00315
 001,-0.00329940,-0.00709714,0.00178271,0.00922721,-0.14444681,0.059186
 21,0.19797273,0.00459754,0.00170490,0.00492777,-0.00436358,0.00028195,
 0.00078614,0.00042565,0.00006763,0.00023053,0.00007813,0.00000218,-0.0
 0036139,0.00007378,-0.00022211,-0.00028611,0.00007697,-0.00001157,-0.0
 0003535,-0.04799033,0.01734894,0.04986237,-0.03623865,-0.01086558,-0.0
 3220513,-0.33053056,-0.02435465,-0.07524002,0.06004273,0.00106068,0.00
 389502,-0.00029976,-0.00025332,-0.00073439,0.70287024,0.00182558,0.006
 95247,-0.00338895,-0.00011782,-0.00141696,0.00089584,-0.00008004,-0.00
 151370,0.00044472,0.00032829,0.00011759,0.00003527,-0.00024822,0.00024
 723,-0.00023620,-0.00002146,0.00018864,0.00004885,0.00247718,0.0132007
 4,0.01212401,-0.01026287,-0.00921765,-0.00722300,-0.00250245,-0.070211
 95,-0.02306547,0.01597195,0.00136035,-0.01757743,-0.00027361,-0.000608
 15,0.00018316,-0.01535800,0.19241741,0.00528819,-0.00339004,-0.0017119
 2,-0.00038510,0.00090194,0.00090697,-0.00020287,0.00044643,-0.00036142
 ,0.00001551,-0.00040000,-0.00001968,0.00021540,0.00019455,-0.00014489,
 -0.00006386,0.00004928,0.00031426,0.00638488,0.01234647,0.04525478,-0.
 03044529,-0.00723275,-0.02840076,-0.01137347,-0.02339406,-0.13088793,0
 .04749037,-0.01780076,-0.04387346,-0.00079455,0.00018333,-0.00014761,-
 0.03623046,0.17711503,0.64893958,0.00041365,0.00028452,0.00090194,0.00
 050704,-0.00021680,-0.00063629,-0.00191725,-0.00001692,-0.00010417,-0.
 00154462,0.00032971,-0.00050862,-0.00155516,-0.00056233,-0.00020499,0.
 00018046,0.00001034,0.00003888,0.01110229,0.00653722,0.01924003,-0.003
 30294,0.00102714,0.00286060,-0.08104177,-0.02377281,-0.07012960,-0.000
 84938,0.00012992,0.00037595,0.00049773,0.00038049,0.00110933,-0.004074
 57,-0.01004697,-0.02948899,0.08643893,-0.00062065,-0.00393710,0.001020
 85,0.00019340,0.00061843,-0.00010895,-0.00029423,0.00152009,-0.0004805
 4,0.00033896,-0.00043967,0.00032396,-0.00057571,-0.00018273,0.00005898
 ,-0.00006852,-0.00027437,0.00027951,-0.00265869,0.00014990,-0.00592452
 ,0.00138652,0.00553392,-0.00224366,-0.02384586,-0.06688661,-0.08671020
 ,0.00012399,-0.00048189,0.00033219,-0.00018729,0.00055569,-0.00051590,
 0.00019723,0.00352681,-0.00191498,0.02635614,0.05821808,-0.00174405,0.
 00103510,-0.00129051,0.00056321,-0.00011537,0.00032801,-0.00091211,-0.
 00047793,0.00027548,-0.00052187,-0.00025776,0.00030067,-0.00020586,0.0
 0064186,0.00005540,-0.00019245,0.00028077,0.00044673,-0.00763828,-0.00
 578984,-0.01487223,0.00391205,-0.00224987,-0.00020884,-0.07033917,-0.0
 8670372,-0.29178882,0.00035841,0.00033263,0.00038292,-0.00055096,-0.00
 050743,-0.00076067,0.00044985,-0.00206969,-0.00185917,0.07793599,0.095
 84323,0.30683229,0.00061151,0.00066803,0.00197228,-0.00110845,-0.00031
 050,-0.00092386,-0.00009633,-0.00000520,-0.00002043,0.00006346,-0.0000
 7832,-0.00000281,0.00006405,0.00005947,-0.00004946,-0.00004428,0.00002
 808,0.00008121,-0.00310122,0.00429282,0.01262340,-0.04741245,0.0039289
 5,0.01067939,-0.00013421,-0.01207193,-0.03539108,-0.22394800,0.0445131
 6,0.12770535,-0.00416284,-0.00066133,-0.00211335,-0.14771180,-0.029175
 37,-0.08659507,-0.00558613,-0.00025404,-0.00094194,0.73853814,0.000445
 57,-0.00101304,-0.00086389,0.00048932,0.00003305,0.00014731,-0.0000766
 5,0.00020718,-0.00029489,-0.00008181,-0.00005314,0.00005481,-0.0000749
 4,0.00002836,0.00010785,-0.00001863,-0.00000839,-0.00001911,0.00435266
 ,-0.01349062,-0.01612756,0.01911445,0.01145472,0.01474565,-0.02772467,
 0.00690842,0.00008423,0.02268256,-0.08110239,-0.05514051,-0.00084498,0
 .00704854,-0.00221476,-0.00731763,-0.08919785,-0.07898934,0.00003447,0
 .00691558,-0.00179099,0.00337375,0.19303879,0.00132178,-0.00086090,-0.
 00321146,0.00141423,0.00013540,0.00040185,-0.00023026,-0.00029313,-0.0
 0055501,-0.00022694,0.00000248,0.00023801,-0.00022808,0.00016219,0.000
 15592,-0.00005516,-0.00001856,-0.00005662,0.01279706,-0.01612815,-0.05
 491254,0.05507347,0.01451848,0.04978301,-0.08115756,0.00031717,0.00644
 703,0.06387462,-0.05480960,-0.22142101,-0.00264919,-0.00221236,0.00129
 366,-0.02269105,-0.07932218,-0.29445331,-0.00009611,-0.00179449,0.0022
 8046,0.01895379,0.16302429,0.61421142,0.00089885,-0.00060466,-0.001760
 76,-0.00030633,0.00012043,0.00034546,-0.00055381,0.00001480,0.00003952
 ,0.00001231,0.00001154,-0.00000851,0.00001190,-0.00001456,-0.00000011,
 -0.00008383,-0.00005214,-0.00015300,-0.00550844,0.00011409,0.00013544,
 -0.00465194,-0.00998370,-0.02930490,-0.00105707,0.00017020,0.00048855,
 -0.08320830,-0.02508015,-0.07403023,0.00103722,0.00009242,0.00035051,-
 0.00285680,0.00100548,0.00279005,0.00018111,-0.00004238,-0.00010228,0.
 01035645,0.00715972,0.02104763,0.08451872,0.00033048,0.00035095,-0.000
 20742,-0.00015359,0.00014404,0.00001430,-0.00005530,-0.00025667,0.0000
 9144,0.00003165,0.00001735,0.00004441,-0.00002906,-0.00001212,-0.00005
 464,-0.00001169,-0.00004886,-0.00000228,-0.00036190,0.00707627,-0.0018
 5401,0.00014415,0.00235748,-0.00145255,0.00020874,-0.00035906,0.000272
 33,-0.02503001,-0.06621823,-0.08535799,-0.00007353,-0.00379333,0.00154
 681,0.00133226,0.00616341,-0.00249503,-0.00004282,-0.00112809,0.000360
 98,-0.00304375,0.00081495,-0.00612621,0.02687560,0.05813161,0.00097400
 ,-0.00022150,-0.00020978,-0.00045580,0.00001843,0.00018545,-0.00016592
 ,0.00009244,-0.00002031,-0.00000653,-0.00001600,-0.00002567,0.00001430
 ,0.00000566,0.00000427,-0.00003476,-0.00000288,-0.00005710,-0.00125604
 ,-0.00184615,0.00229076,0.00030953,-0.00160471,-0.00183241,0.00060118,
 0.00027183,0.00035288,-0.07388484,-0.08536022,-0.28786815,-0.00013512,
 0.00154926,0.00020572,0.00374706,-0.00249943,-0.00022821,-0.00010387,0
 .00036076,-0.00019834,-0.00878763,-0.00597219,-0.01470059,0.07946631,0
 .09415548,0.30258343,0.00103081,0.00047338,0.00139020,-0.00134784,0.00
 009350,0.00025884,-0.00010811,-0.00001314,-0.00003989,0.00001769,-0.00
 000773,-0.00000570,0.00001786,0.00000256,-0.00000913,-0.00005398,-0.00
 001668,-0.00004978,-0.00462592,-0.00106529,-0.00329624,-0.00023888,-0.
 00028270,-0.00082265,-0.01615150,0.00789527,0.02279378,0.00015164,-0.0
 0070922,-0.00217962,0.00003422,0.00004080,0.00013736,-0.18968028,0.046
 16853,0.13261620,0.00089592,-0.00007479,-0.00014210,0.01027962,-0.0029
 8501,-0.00861396,0.00040689,-0.00015965,-0.00046490,0.19863814,-0.0002
 2904,0.00057600,-0.00009113,0.00001322,-0.00032842,0.00009176,0.000019
 27,-0.00000255,0.00002229,-0.00000797,0.00000942,-0.00000957,0.0000109
 0,0.00000396,0.00000362,0.00000461,0.00001230,-0.00000287,-0.00051574,
 0.00667460,-0.00202348,-0.00032618,-0.00046158,0.00004556,-0.00231575,
 0.00333432,0.00188457,-0.00103699,0.00589265,-0.00342469,0.00004043,-0
 .00101867,0.00036855,0.04621339,-0.05541969,-0.05391325,0.00006551,-0.
 00362483,0.00152020,0.00724495,0.00085701,-0.00594089,0.00037351,0.000
 12556,-0.00036961,-0.04945957,0.04684505,-0.00066236,-0.00008061,0.000
 36103,0.00002326,0.00009303,-0.00008757,0.00005484,0.00002180,0.000054
 45,0.00000773,0.00001038,-0.00000376,0.00000113,-0.00001648,0.00000153
 ,0.00001247,-0.00000320,0.00000416,-0.00168675,-0.00203258,0.00139837,
 -0.00094965,0.00004625,-0.00035803,-0.00705358,0.00203938,0.00853218,-
 0.00313632,-0.00342039,-0.00298683,0.00013570,0.00036869,-0.00006480,0
 .13274276,-0.05391105,-0.19229108,0.00026692,0.00151799,0.00029582,0.0
 2129111,-0.00609783,-0.01457428,0.00109405,-0.00037752,-0.00083377,-0.
 14193652,0.06034298,0.20016105,0.00045352,0.00001354,0.00006761,-0.000
 40008,-0.00000977,-0.00003849,-0.00009951,-0.00001095,-0.00003682,0.00
 001295,-0.00001626,0.00000517,0.00001384,0.00001556,-0.00000563,-0.000
 03147,-0.00000633,-0.00001863,0.00038874,0.00010999,0.00033605,-0.0007
 5700,0.00130588,0.00369730,0.00152091,-0.00046283,-0.00144169,-0.01548
 156,-0.00240547,-0.00732694,-0.00076421,-0.00013927,-0.00041655,-0.004
 41870,0.00030981,0.00077904,-0.00034532,0.00002594,0.00007156,-0.32660
 751,-0.01852817,-0.05853426,0.00080307,0.00003841,0.00018302,0.0007337
 0,-0.00009456,-0.00020479,0.34497862,0.00005867,-0.00125730,0.00042504
 ,-0.00001729,0.00026053,-0.00000970,-0.00001172,0.00019824,-0.00007369
 ,-0.00006633,-0.00004929,0.00001751,0.00007454,-0.00002125,0.00001600,
 -0.00000544,-0.00001813,0.00001608,0.00010467,-0.00063421,-0.00019897,
 0.00104123,0.00610597,-0.00322304,-0.00020639,0.00602647,-0.00389931,0
 .00770708,0.00448260,0.00181082,0.00035880,-0.00008121,0.00014794,-0.0
 0982629,0.00341132,-0.00170685,-0.00049679,-0.00008321,-0.00005216,-0.
 01850876,-0.04244117,-0.01065353,-0.00016019,-0.00336525,0.00143883,0.
 00009973,-0.00347512,0.00149915,0.01985448,0.03094101,0.00019861,0.000
 42437,-0.00015860,-0.00006041,-0.00000965,0.00023465,-0.00003903,-0.00
 007381,0.00000722,0.00003657,-0.00002146,0.00002250,-0.00001121,0.0000
 5495,-0.00000633,-0.00001604,0.00001607,0.00002302,0.00032056,-0.00019
 850,-0.00114107,0.00292382,-0.00321890,-0.00215417,-0.00068881,-0.0039
 0355,-0.00406255,0.02224184,0.00165702,0.00908528,0.00103920,0.0001405
 0,0.00029610,-0.02885760,-0.00155347,-0.00103616,-0.00145699,-0.000044
 23,-0.00021921,-0.05848092,-0.01065308,-0.07092654,-0.00039774,0.00144
 189,0.00035181,0.00036409,0.00149598,0.00039153,0.06288406,0.01444588,
 0.06929251\\-0.00013053,0.00000998,0.00003362,0.00006343,-0.00000722,-
 0.00002411,0.00000206,-0.00000999,-0.00002117,0.00001616,0.00001026,0.
 00000960,0.00000938,0.00000377,0.00001209,0.00000553,-0.00000596,-0.00
 000284,0.00009787,-0.00001757,-0.00004094,-0.00001491,0.00000199,-0.00
 000576,-0.00003573,0.00001907,0.00001407,0.00000705,0.00000194,0.00000
 668,0.00000133,-0.00000040,0.00000388,-0.00001147,0.00000435,0.0000081
 1,0.00000264,-0.00000832,-0.00000619,-0.00000641,0.00000438,0.00000901
 ,-0.00000351,-0.00000140,0.00000205,-0.00000289,-0.00000406,0.00000229
 ,0.,-0.00000083,-0.00000038\\\@



 WE LOSE BECAUSE WE WIN

 GAMBLERS,

 RECOLLECTING WHICH,

 TOSS THEIR DICE AGAIN....


                          EMILY DICKINSON  BOLTS OF MELODY NO. 533
 Job cpu time:       0 days  0 hours 19 minutes 43.3 seconds.
 Elapsed time:       0 days  0 hours  0 minutes 38.3 seconds.
 File lengths (MBytes):  RWF=     98 Int=      0 D2E=      0 Chk=     10 Scr=      1
 Normal termination of Gaussian 16 at Wed May  8 21:50:14 2019.
