 Entering Gaussian System, Link 0=g16
 Initial command:
 /opt/software/gaussian/g16.b01/l1.exe "/localscratch/rzk.14510607.0/Gau-20600.inp" -scrdir="/localscratch/rzk.14510607.0/"
 Entering Link 1 = /opt/software/gaussian/g16.b01/l1.exe PID=     20601.
  
 Copyright (c) 1988-2017, Gaussian, Inc.  All Rights Reserved.
  
 This is part of the Gaussian(R) 16 program.  It is based on
 the Gaussian(R) 09 system (copyright 2009, Gaussian, Inc.),
 the Gaussian(R) 03 system (copyright 2003, Gaussian, Inc.),
 the Gaussian(R) 98 system (copyright 1998, Gaussian, Inc.),
 the Gaussian(R) 94 system (copyright 1995, Gaussian, Inc.),
 the Gaussian 92(TM) system (copyright 1992, Gaussian, Inc.),
 the Gaussian 90(TM) system (copyright 1990, Gaussian, Inc.),
 the Gaussian 88(TM) system (copyright 1988, Gaussian, Inc.),
 the Gaussian 86(TM) system (copyright 1986, Carnegie Mellon
 University), and the Gaussian 82(TM) system (copyright 1983,
 Carnegie Mellon University). Gaussian is a federally registered
 trademark of Gaussian, Inc.
  
 This software contains proprietary and confidential information,
 including trade secrets, belonging to Gaussian, Inc.
  
 This software is provided under written license and may be
 used, copied, transmitted, or stored only in accord with that
 written license.
  
 The following legend is applicable only to US Government
 contracts under FAR:
  
                    RESTRICTED RIGHTS LEGEND
  
 Use, reproduction and disclosure by the US Government is
 subject to restrictions as set forth in subparagraphs (a)
 and (c) of the Commercial Computer Software - Restricted
 Rights clause in FAR 52.227-19.
  
 Gaussian, Inc.
 340 Quinnipiac St., Bldg. 40, Wallingford CT 06492
  
  
 ---------------------------------------------------------------
 Warning -- This program may not be used in any manner that
 competes with the business of Gaussian, Inc. or will provide
 assistance to any competitor of Gaussian, Inc.  The licensee
 of this program is prohibited from giving any competitor of
 Gaussian, Inc. access to this program.  By using this program,
 the user acknowledges that Gaussian, Inc. is engaged in the
 business of creating and licensing software in the field of
 computational chemistry and represents and warrants to the
 licensee that it is not a competitor of Gaussian, Inc. and that
 it will not use this program in any manner prohibited above.
 ---------------------------------------------------------------
  

 Cite this work as:
 Gaussian 16, Revision B.01,
 M. J. Frisch, G. W. Trucks, H. B. Schlegel, G. E. Scuseria, 
 M. A. Robb, J. R. Cheeseman, G. Scalmani, V. Barone, 
 G. A. Petersson, H. Nakatsuji, X. Li, M. Caricato, A. V. Marenich, 
 J. Bloino, B. G. Janesko, R. Gomperts, B. Mennucci, H. P. Hratchian, 
 J. V. Ortiz, A. F. Izmaylov, J. L. Sonnenberg, D. Williams-Young, 
 F. Ding, F. Lipparini, F. Egidi, J. Goings, B. Peng, A. Petrone, 
 T. Henderson, D. Ranasinghe, V. G. Zakrzewski, J. Gao, N. Rega, 
 G. Zheng, W. Liang, M. Hada, M. Ehara, K. Toyota, R. Fukuda, 
 J. Hasegawa, M. Ishida, T. Nakajima, Y. Honda, O. Kitao, H. Nakai, 
 T. Vreven, K. Throssell, J. A. Montgomery, Jr., J. E. Peralta, 
 F. Ogliaro, M. J. Bearpark, J. J. Heyd, E. N. Brothers, K. N. Kudin, 
 V. N. Staroverov, T. A. Keith, R. Kobayashi, J. Normand, 
 K. Raghavachari, A. P. Rendell, J. C. Burant, S. S. Iyengar, 
 J. Tomasi, M. Cossi, J. M. Millam, M. Klene, C. Adamo, R. Cammi, 
 J. W. Ochterski, R. L. Martin, K. Morokuma, O. Farkas, 
 J. B. Foresman, and D. J. Fox, Gaussian, Inc., Wallingford CT, 2016.
 
 ******************************************
 Gaussian 16:  ES64L-G16RevB.01 20-Dec-2017
                 8-May-2019 
 ******************************************
 %NProcShared=32
 Will use up to   32 processors via shared memory.
 %chk=Hydrazine.chk
 ----------------------------------------------------------------------
 #p opt freq b3lyp/6-31g(d,p) scrf=(iefpcm,solvent=acetonitrile) empiri
 caldispersion=gd3
 ----------------------------------------------------------------------
 1/18=20,19=15,26=3,38=1/1,3;
 2/9=110,12=2,17=6,18=5,40=1/2;
 3/5=1,6=6,7=101,11=2,25=1,30=1,70=2201,71=1,72=2,74=-5,124=31/1,2,3;
 4//1;
 5/5=2,38=5,53=2/2;
 6/7=2,8=2,9=2,10=2,28=1/1;
 7//1,2,3,16;
 1/18=20,19=15,26=3/3(2);
 2/9=110/2;
 99//99;
 2/9=110/2;
 3/5=1,6=6,7=101,11=2,25=1,30=1,70=2205,71=1,72=2,74=-5,124=31/1,2,3;
 4/5=5,16=3,69=1/1;
 5/5=2,38=5,53=2/2;
 7//1,2,3,16;
 1/18=20,19=15,26=3/3(-5);
 2/9=110/2;
 6/7=2,8=2,9=2,10=2,19=2,28=1/1;
 99/9=1/99;
 Leave Link    1 at Wed May  8 21:48:39 2019, MaxMem=           0 cpu:               3.6 elap:               0.1
 (Enter /opt/software/gaussian/g16.b01/l101.exe)
 -------------------
 Title Card Required
 -------------------
 Symbolic Z-matrix:
 Charge =  0 Multiplicity = 1
 H                    -5.10772   1.44436   0.69816 
 N                    -4.79676  -0.41087   0.02967 
 H                    -5.30327  -0.69973  -0.80772 
 N                    -4.63303   1.04584  -0.11252 
 H                    -3.64729   1.26139   0.05278 
 H                    -3.87231  -0.82986  -0.0892 
 
 ITRead=  0  0  0  0  0  0
 MicOpt= -1 -1 -1 -1 -1 -1
 NAtoms=      6 NQM=        6 NQMF=       0 NMMI=      0 NMMIF=      0
                NMic=       0 NMicF=      0.
                    Isotopes and Nuclear Properties:
 (Nuclear quadrupole moments (NQMom) in fm**2, nuclear magnetic moments (NMagM)
  in nuclear magnetons)

  Atom         1           2           3           4           5           6
 IAtWgt=           1          14           1          14           1           1
 AtmWgt=   1.0078250  14.0030740   1.0078250  14.0030740   1.0078250   1.0078250
 NucSpn=           1           2           1           2           1           1
 AtZEff=  -0.0000000  -0.0000000  -0.0000000  -0.0000000  -0.0000000  -0.0000000
 NQMom=    0.0000000   2.0440000   0.0000000   2.0440000   0.0000000   0.0000000
 NMagM=    2.7928460   0.4037610   2.7928460   0.4037610   2.7928460   2.7928460
 AtZNuc=   1.0000000   7.0000000   1.0000000   7.0000000   1.0000000   1.0000000
 Leave Link  101 at Wed May  8 21:48:39 2019, MaxMem=   104857600 cpu:               5.4 elap:               0.2
 (Enter /opt/software/gaussian/g16.b01/l103.exe)

 GradGradGradGradGradGradGradGradGradGradGradGradGradGradGradGradGradGrad
 Berny optimization.
 Initialization pass.
                           ----------------------------
                           !    Initial Parameters    !
                           ! (Angstroms and Degrees)  !
 --------------------------                            --------------------------
 ! Name  Definition              Value          Derivative Info.                !
 --------------------------------------------------------------------------------
 ! R1    R(1,4)                  1.0205         estimate D2E/DX2                !
 ! R2    R(2,3)                  1.0204         estimate D2E/DX2                !
 ! R3    R(2,4)                  1.4728         estimate D2E/DX2                !
 ! R4    R(2,6)                  1.0219         estimate D2E/DX2                !
 ! R5    R(4,5)                  1.0225         estimate D2E/DX2                !
 ! A1    A(3,2,4)              104.8296         estimate D2E/DX2                !
 ! A2    A(3,2,6)              103.741          estimate D2E/DX2                !
 ! A3    A(4,2,6)              107.0821         estimate D2E/DX2                !
 ! A4    A(1,4,2)              104.9432         estimate D2E/DX2                !
 ! A5    A(1,4,5)              103.7501         estimate D2E/DX2                !
 ! A6    A(2,4,5)              107.462          estimate D2E/DX2                !
 ! D1    D(3,2,4,1)            119.9003         estimate D2E/DX2                !
 ! D2    D(3,2,4,5)           -130.1102         estimate D2E/DX2                !
 ! D3    D(6,2,4,1)           -130.3191         estimate D2E/DX2                !
 ! D4    D(6,2,4,5)            -20.3296         estimate D2E/DX2                !
 --------------------------------------------------------------------------------
 Trust Radius=3.00D-01 FncErr=1.00D-07 GrdErr=1.00D-06 EigMax=2.50D+02 EigMin=1.00D-04
 Number of steps in this run=     25 maximum allowed number of steps=    100.
 GradGradGradGradGradGradGradGradGradGradGradGradGradGradGradGradGradGrad

 Leave Link  103 at Wed May  8 21:48:39 2019, MaxMem=   104857600 cpu:               0.7 elap:               0.1
 (Enter /opt/software/gaussian/g16.b01/l202.exe)
                          Input orientation:                          
 ---------------------------------------------------------------------
 Center     Atomic      Atomic             Coordinates (Angstroms)
 Number     Number       Type             X           Y           Z
 ---------------------------------------------------------------------
      1          1           0       -5.107717    1.444359    0.698158
      2          7           0       -4.796755   -0.410874    0.029667
      3          1           0       -5.303270   -0.699728   -0.807718
      4          7           0       -4.633034    1.045839   -0.112524
      5          1           0       -3.647287    1.261389    0.052780
      6          1           0       -3.872308   -0.829858   -0.089197
 ---------------------------------------------------------------------
                    Distance matrix (angstroms):
                    1          2          3          4          5
     1  H    0.000000
     2  N    1.996363   0.000000
     3  H    2.627358   1.020396   0.000000
     4  N    1.020464   1.472765   1.994872   0.000000
     5  H    1.607124   2.029353   2.707160   1.022489   0.000000
     6  H    2.705222   1.021899   1.606505   2.024225   2.108105
                    6
     6  H    0.000000
 Stoichiometry    H4N2
 Framework group  C1[X(H4N2)]
 Deg. of freedom    12
 Full point group                 C1      NOp   1
 Largest Abelian subgroup         C1      NOp   1
 Largest concise Abelian subgroup C1      NOp   1
                         Standard orientation:                         
 ---------------------------------------------------------------------
 Center     Atomic      Atomic             Coordinates (Angstroms)
 Number     Number       Type             X           Y           Z
 ---------------------------------------------------------------------
      1          1           0        1.143155   -0.548196   -0.645898
      2          7           0       -0.723345   -0.052083   -0.140412
      3          1           0       -1.142553   -0.543228    0.649682
      4          7           0        0.722454   -0.051682    0.140125
      5          1           0        1.056472    0.908195    0.028089
      6          1           0       -1.050836    0.909586   -0.029861
 ---------------------------------------------------------------------
 Rotational constants (GHZ):         139.8356966          24.1755465          23.0350939
 Leave Link  202 at Wed May  8 21:48:39 2019, MaxMem=   104857600 cpu:               2.3 elap:               0.1
 (Enter /opt/software/gaussian/g16.b01/l301.exe)
 Standard basis: 6-31G(d,p) (6D, 7F)
 Ernie: Thresh=  0.10000D-02 Tol=  0.10000D-05 Strict=F.
 There are    50 symmetry adapted cartesian basis functions of A   symmetry.
 There are    50 symmetry adapted basis functions of A   symmetry.
    50 basis functions,    84 primitive gaussians,    50 cartesian basis functions
     9 alpha electrons        9 beta electrons
       nuclear repulsion energy        40.9837529089 Hartrees.
 IExCor=  402 DFT=T Ex+Corr=B3LYP ExCW=0 ScaHFX=  0.200000
 ScaDFX=  0.800000  0.720000  1.000000  0.810000 ScalE2=  1.000000  1.000000
 IRadAn=      5 IRanWt=     -1 IRanGd=            0 ICorTp=0 IEmpDi=131
 NAtoms=    6 NActive=    6 NUniq=    6 SFac= 1.00D+00 NAtFMM=   60 NAOKFM=F Big=F
 Integral buffers will be    131072 words long.
 Raffenetti 2 integral format.
 Two-electron integral symmetry is turned on.
 R6Disp:  Grimme-D3 Dispersion energy=       -0.0007533927 Hartrees.
 Nuclear repulsion after empirical dispersion term =       40.9829995163 Hartrees.
 ------------------------------------------------------------------------------
 Polarizable Continuum Model (PCM)
 =================================
 Model                : PCM.
 Atomic radii         : UFF (Universal Force Field).
 Polarization charges : Total charges.
 Charge compensation  : None.
 Solution method      : On-the-fly selection.
 Cavity type          : Scaled VdW (van der Waals Surface) (Alpha=1.100).
 Cavity algorithm     : GePol (No added spheres)
                        Default sphere list used, NSphG=    6.
                        Lebedev-Laikov grids with approx.  5.0 points / Ang**2.
                        Smoothing algorithm: York/Karplus (Gamma=1.0000).
                        Polarization charges: spherical gaussians, with
                                              point-specific exponents (IZeta= 3).
                        Self-potential: point-specific (ISelfS= 7).
                        Self-field    : sphere-specific E.n sum rule (ISelfD= 2).
 1st derivatives      : Analytical E(r).r(x)/FMM algorithm (CHGder, D1EAlg=3).
                        Cavity 1st derivative terms included.
 Solvent              : Acetonitrile, Eps=  35.688000 Eps(inf)=   1.806874
 ------------------------------------------------------------------------------
 Spheres list:
 ISph  on   Nord     Re0    Alpha      Xe            Ye            Ze
    1   H      1    1.4430  1.100      1.143155     -0.548196     -0.645898
    2   N      2    1.8300  1.100     -0.723345     -0.052083     -0.140412
    3   H      3    1.4430  1.100     -1.142553     -0.543228      0.649682
    4   N      4    1.8300  1.100      0.722454     -0.051682      0.140125
    5   H      5    1.4430  1.100      1.056472      0.908195      0.028089
    6   H      6    1.4430  1.100     -1.050836      0.909586     -0.029861
 ------------------------------------------------------------------------------
 GePol: Number of generator spheres                  =       6
 GePol: Total number of spheres                      =       6
 GePol: Number of exposed spheres                    =       6 (100.00%)
 GePol: Number of points                             =     598
 GePol: Average weight of points                     =       0.14
 GePol: Minimum weight of points                     =   0.10D-09
 GePol: Maximum weight of points                     =    0.20212
 GePol: Number of points with low weight             =      23
 GePol: Fraction of low-weight points (<1% of avg)   =       3.85%
 GePol: Cavity surface area                          =     83.678 Ang**2
 GePol: Cavity volume                                =     64.959 Ang**3
 Leave Link  301 at Wed May  8 21:48:40 2019, MaxMem=   104857600 cpu:               4.3 elap:               0.2
 (Enter /opt/software/gaussian/g16.b01/l302.exe)
 NPDir=0 NMtPBC=     1 NCelOv=     1 NCel=       1 NClECP=     1 NCelD=      1
         NCelK=      1 NCelE2=     1 NClLst=     1 CellRange=     0.0.
 One-electron integrals computed using PRISM.
 One-electron integral symmetry used in STVInt
 PrsmSu:  requested number of processors reduced to:  30 ShMem   1 Linda.
 NBasis=    50 RedAO= T EigKep=  9.59D-03  NBF=    50
 NBsUse=    50 1.00D-06 EigRej= -1.00D+00 NBFU=    50
 Precomputing XC quadrature grid using
 IXCGrd= 4 IRadAn=           5 IRanWt=          -1 IRanGd=           0 AccXCQ= 0.00D+00.
 Generated NRdTot=       0 NPtTot=           0 NUsed=           0 NTot=          32
 NSgBfM=    50    50    50    50    50 MxSgAt=     6 MxSgA2=     6.
 Leave Link  302 at Wed May  8 21:48:40 2019, MaxMem=   104857600 cpu:               5.7 elap:               0.2
 (Enter /opt/software/gaussian/g16.b01/l303.exe)
 DipDrv:  MaxL=1.
 Leave Link  303 at Wed May  8 21:48:40 2019, MaxMem=   104857600 cpu:               1.1 elap:               0.1
 (Enter /opt/software/gaussian/g16.b01/l401.exe)
 ExpMin= 1.61D-01 ExpMax= 4.17D+03 ExpMxC= 6.27D+02 IAcc=3 IRadAn=         5 AccDes= 0.00D+00
 Harris functional with IExCor=  402 and IRadAn=       5 diagonalized for initial guess.
 HarFok:  IExCor=  402 AccDes= 0.00D+00 IRadAn=         5 IDoV= 1 UseB2=F ITyADJ=14
 ICtDFT=  3500011 ScaDFX=  1.000000  1.000000  1.000000  1.000000
 FoFCou: FMM=F IPFlag=           0 FMFlag=      100000 FMFlg1=           0
         NFxFlg=           0 DoJE=T BraDBF=F KetDBF=T FulRan=T
         wScrn=  0.000000 ICntrl=       500 IOpCl=  0 I1Cent=   200000004 NGrid=           0
         NMat0=    1 NMatS0=      1 NMatT0=    0 NMatD0=    1 NMtDS0=    0 NMtDT0=    0
 Petite list used in FoFCou.
 Harris En= -111.872828216203    
 JPrj=0 DoOrth=F DoCkMO=F.
 Leave Link  401 at Wed May  8 21:48:41 2019, MaxMem=   104857600 cpu:               8.9 elap:               0.4
 (Enter /opt/software/gaussian/g16.b01/l502.exe)
 Keep R1 ints in memory in canonical form, NReq=28740694.
 FoFCou: FMM=F IPFlag=           0 FMFlag=           0 FMFlg1=           0
         NFxFlg=           0 DoJE=F BraDBF=F KetDBF=F FulRan=T
         wScrn=  0.000000 ICntrl=       600 IOpCl=  0 I1Cent=           0 NGrid=           0
         NMat0=    1 NMatS0=   1275 NMatT0=    0 NMatD0=    1 NMtDS0=    0 NMtDT0=    0
 Symmetry not used in FoFCou.
 Two-electron integral symmetry not used.
 Closed shell SCF:
 Using DIIS extrapolation, IDIIS=  1040.
 NGot=   104857600 LenX=   104036840 LenY=   104033899
 Requested convergence on RMS density matrix=1.00D-08 within 128 cycles.
 Requested convergence on MAX density matrix=1.00D-06.
 Requested convergence on             energy=1.00D-06.
 No special actions if energy rises.

 Cycle   1  Pass 1  IDiag  1:
 Inv3:  Mode=1 IEnd=     1072812.
 Iteration    1 A*A^-1 deviation from unit magnitude is 2.44D-15 for    378.
 Iteration    1 A*A^-1 deviation from orthogonality  is 1.50D-15 for    377    162.
 Iteration    1 A^-1*A deviation from unit magnitude is 3.00D-15 for    246.
 Iteration    1 A^-1*A deviation from orthogonality  is 1.33D-15 for    429    273.
 E= -111.812230560419    
 DIIS: error= 3.04D-02 at cycle   1 NSaved=   1.
 NSaved= 1 IEnMin= 1 EnMin= -111.812230560419     IErMin= 1 ErrMin= 3.04D-02
 ErrMax= 3.04D-02  0.00D+00 EMaxC= 1.00D-01 BMatC= 6.99D-02 BMatP= 6.99D-02
 IDIUse=3 WtCom= 6.96D-01 WtEn= 3.04D-01
 Coeff-Com:  0.100D+01
 Coeff-En:   0.100D+01
 Coeff:      0.100D+01
 Gap=     0.224 Goal=   None    Shift=    0.000
 GapD=    0.224 DampG=1.000 DampE=0.500 DampFc=0.5000 IDamp=-1.
 Damping current iteration by 5.00D-01
 RMSDP=9.13D-03 MaxDP=1.16D-01              OVMax= 1.21D-01

 Cycle   2  Pass 1  IDiag  1:
 E= -111.838865508777     Delta-E=       -0.026634948358 Rises=F Damp=T
 DIIS: error= 9.04D-03 at cycle   2 NSaved=   2.
 NSaved= 2 IEnMin= 2 EnMin= -111.838865508777     IErMin= 2 ErrMin= 9.04D-03
 ErrMax= 9.04D-03  0.00D+00 EMaxC= 1.00D-01 BMatC= 3.73D-03 BMatP= 6.99D-02
 IDIUse=3 WtCom= 9.10D-01 WtEn= 9.04D-02
 Coeff-Com:  0.916D-01 0.908D+00
 Coeff-En:   0.156D+00 0.844D+00
 Coeff:      0.974D-01 0.903D+00
 Gap=     0.293 Goal=   None    Shift=    0.000
 RMSDP=1.12D-03 MaxDP=1.14D-02 DE=-2.66D-02 OVMax= 6.59D-02

 Cycle   3  Pass 1  IDiag  1:
 E= -111.873756741930     Delta-E=       -0.034891233154 Rises=F Damp=F
 DIIS: error= 2.36D-03 at cycle   3 NSaved=   3.
 NSaved= 3 IEnMin= 3 EnMin= -111.873756741930     IErMin= 3 ErrMin= 2.36D-03
 ErrMax= 2.36D-03  0.00D+00 EMaxC= 1.00D-01 BMatC= 3.37D-04 BMatP= 3.73D-03
 IDIUse=3 WtCom= 9.76D-01 WtEn= 2.36D-02
 Coeff-Com:  0.303D-02 0.201D+00 0.796D+00
 Coeff-En:   0.000D+00 0.000D+00 0.100D+01
 Coeff:      0.296D-02 0.196D+00 0.801D+00
 Gap=     0.296 Goal=   None    Shift=    0.000
 RMSDP=3.22D-04 MaxDP=3.06D-03 DE=-3.49D-02 OVMax= 4.72D-03

 Cycle   4  Pass 1  IDiag  1:
 E= -111.874021642290     Delta-E=       -0.000264900359 Rises=F Damp=F
 DIIS: error= 4.50D-04 at cycle   4 NSaved=   4.
 NSaved= 4 IEnMin= 4 EnMin= -111.874021642290     IErMin= 4 ErrMin= 4.50D-04
 ErrMax= 4.50D-04  0.00D+00 EMaxC= 1.00D-01 BMatC= 1.37D-05 BMatP= 3.37D-04
 IDIUse=3 WtCom= 9.96D-01 WtEn= 4.50D-03
 Coeff-Com:  0.123D-02-0.218D-02 0.159D+00 0.842D+00
 Coeff-En:   0.000D+00 0.000D+00 0.000D+00 0.100D+01
 Coeff:      0.122D-02-0.217D-02 0.158D+00 0.843D+00
 Gap=     0.297 Goal=   None    Shift=    0.000
 RMSDP=5.60D-05 MaxDP=6.41D-04 DE=-2.65D-04 OVMax= 8.22D-04

 Cycle   5  Pass 1  IDiag  1:
 E= -111.874032915083     Delta-E=       -0.000011272793 Rises=F Damp=F
 DIIS: error= 1.27D-05 at cycle   5 NSaved=   5.
 NSaved= 5 IEnMin= 5 EnMin= -111.874032915083     IErMin= 5 ErrMin= 1.27D-05
 ErrMax= 1.27D-05  0.00D+00 EMaxC= 1.00D-01 BMatC= 2.04D-08 BMatP= 1.37D-05
 IDIUse=1 WtCom= 1.00D+00 WtEn= 0.00D+00
 Coeff-Com:  0.330D-03-0.106D-02 0.205D-01 0.120D+00 0.860D+00
 Coeff:      0.330D-03-0.106D-02 0.205D-01 0.120D+00 0.860D+00
 Gap=     0.297 Goal=   None    Shift=    0.000
 RMSDP=2.57D-06 MaxDP=3.57D-05 DE=-1.13D-05 OVMax= 4.26D-05

 Cycle   6  Pass 1  IDiag  1:
 E= -111.874032925175     Delta-E=       -0.000000010092 Rises=F Damp=F
 DIIS: error= 1.28D-05 at cycle   6 NSaved=   6.
 NSaved= 6 IEnMin= 6 EnMin= -111.874032925175     IErMin= 5 ErrMin= 1.27D-05
 ErrMax= 1.28D-05  0.00D+00 EMaxC= 1.00D-01 BMatC= 7.39D-09 BMatP= 2.04D-08
 IDIUse=1 WtCom= 1.00D+00 WtEn= 0.00D+00
 Coeff-Com:  0.140D-03-0.463D-03 0.507D-02 0.322D-01 0.404D+00 0.559D+00
 Coeff:      0.140D-03-0.463D-03 0.507D-02 0.322D-01 0.404D+00 0.559D+00
 Gap=     0.297 Goal=   None    Shift=    0.000
 RMSDP=1.50D-06 MaxDP=2.25D-05 DE=-1.01D-08 OVMax= 3.05D-05

 Cycle   7  Pass 1  IDiag  1:
 E= -111.874032930311     Delta-E=       -0.000000005136 Rises=F Damp=F
 DIIS: error= 4.74D-06 at cycle   7 NSaved=   7.
 NSaved= 7 IEnMin= 7 EnMin= -111.874032930311     IErMin= 7 ErrMin= 4.74D-06
 ErrMax= 4.74D-06  0.00D+00 EMaxC= 1.00D-01 BMatC= 1.03D-09 BMatP= 7.39D-09
 IDIUse=1 WtCom= 1.00D+00 WtEn= 0.00D+00
 Coeff-Com:  0.192D-04-0.507D-04-0.969D-03-0.473D-02 0.406D-01 0.287D+00
 Coeff-Com:  0.678D+00
 Coeff:      0.192D-04-0.507D-04-0.969D-03-0.473D-02 0.406D-01 0.287D+00
 Coeff:      0.678D+00
 Gap=     0.297 Goal=   None    Shift=    0.000
 RMSDP=4.47D-07 MaxDP=6.28D-06 DE=-5.14D-09 OVMax= 8.52D-06

 Cycle   8  Pass 1  IDiag  1:
 E= -111.874032931148     Delta-E=       -0.000000000837 Rises=F Damp=F
 DIIS: error= 1.07D-07 at cycle   8 NSaved=   8.
 NSaved= 8 IEnMin= 8 EnMin= -111.874032931148     IErMin= 8 ErrMin= 1.07D-07
 ErrMax= 1.07D-07  0.00D+00 EMaxC= 1.00D-01 BMatC= 7.30D-13 BMatP= 1.03D-09
 IDIUse=1 WtCom= 1.00D+00 WtEn= 0.00D+00
 Coeff-Com: -0.318D-06 0.152D-05-0.872D-04-0.545D-03-0.435D-02 0.109D-01
 Coeff-Com:  0.449D-01 0.949D+00
 Coeff:     -0.318D-06 0.152D-05-0.872D-04-0.545D-03-0.435D-02 0.109D-01
 Coeff:      0.449D-01 0.949D+00
 Gap=     0.297 Goal=   None    Shift=    0.000
 RMSDP=2.43D-08 MaxDP=2.69D-07 DE=-8.37D-10 OVMax= 4.16D-07

 Cycle   9  Pass 1  IDiag  1:
 E= -111.874032931149     Delta-E=       -0.000000000001 Rises=F Damp=F
 DIIS: error= 2.03D-08 at cycle   9 NSaved=   9.
 NSaved= 9 IEnMin= 9 EnMin= -111.874032931149     IErMin= 9 ErrMin= 2.03D-08
 ErrMax= 2.03D-08  0.00D+00 EMaxC= 1.00D-01 BMatC= 2.00D-14 BMatP= 7.30D-13
 IDIUse=1 WtCom= 1.00D+00 WtEn= 0.00D+00
 Coeff-Com: -0.289D-06 0.892D-06-0.464D-05-0.540D-04-0.141D-02-0.609D-03
 Coeff-Com:  0.279D-02 0.199D+00 0.800D+00
 Coeff:     -0.289D-06 0.892D-06-0.464D-05-0.540D-04-0.141D-02-0.609D-03
 Coeff:      0.279D-02 0.199D+00 0.800D+00
 Gap=     0.297 Goal=   None    Shift=    0.000
 RMSDP=4.53D-09 MaxDP=5.40D-08 DE=-5.68D-13 OVMax= 6.57D-08

 Error on total polarization charges =  0.00353
 SCF Done:  E(RB3LYP) =  -111.874032931     A.U. after    9 cycles
            NFock=  9  Conv=0.45D-08     -V/T= 2.0094
 KE= 1.108279060250D+02 PE=-3.432010890630D+02 EE= 7.951615059055D+01
 Leave Link  502 at Wed May  8 21:48:42 2019, MaxMem=   104857600 cpu:              40.7 elap:               1.4
 (Enter /opt/software/gaussian/g16.b01/l601.exe)
 Copying SCF densities to generalized density rwf, IOpCl= 0 IROHF=0.

 **********************************************************************

            Population analysis using the SCF Density.

 **********************************************************************

 Orbital symmetries:
       Occupied  (A) (A) (A) (A) (A) (A) (A) (A) (A)
       Virtual   (A) (A) (A) (A) (A) (A) (A) (A) (A) (A) (A) (A)
                 (A) (A) (A) (A) (A) (A) (A) (A) (A) (A) (A) (A)
                 (A) (A) (A) (A) (A) (A) (A) (A) (A) (A) (A) (A)
                 (A) (A) (A) (A) (A)
 The electronic state is 1-A.
 Alpha  occ. eigenvalues --  -14.33673 -14.33651  -0.93309  -0.74663  -0.50193
 Alpha  occ. eigenvalues --   -0.43798  -0.43703  -0.30491  -0.21533
 Alpha virt. eigenvalues --    0.08131   0.10793   0.15052   0.18282   0.21724
 Alpha virt. eigenvalues --    0.65795   0.66589   0.68502   0.71842   0.73950
 Alpha virt. eigenvalues --    0.83444   0.86249   0.86944   0.90710   0.91429
 Alpha virt. eigenvalues --    1.13430   1.29168   1.33662   1.33793   1.69235
 Alpha virt. eigenvalues --    1.79527   1.95848   2.03292   2.07256   2.23958
 Alpha virt. eigenvalues --    2.24818   2.25178   2.32857   2.46243   2.50859
 Alpha virt. eigenvalues --    2.65902   2.76513   2.82791   2.90571   2.98483
 Alpha virt. eigenvalues --    3.22527   3.33343   3.44576   3.45688   3.77986
 Alpha virt. eigenvalues --    4.04903
          Condensed to atoms (all electrons):
               1          2          3          4          5          6
     1  H    0.475849  -0.053562   0.003777   0.340889  -0.039264   0.004450
     2  N   -0.053562   6.749367   0.340839   0.186216  -0.030413   0.338986
     3  H    0.003777   0.340839   0.475792  -0.053732   0.004418  -0.039172
     4  N    0.340889   0.186216  -0.053732   6.750833   0.338972  -0.030688
     5  H   -0.039264  -0.030413   0.004418   0.338972   0.476537  -0.014197
     6  H    0.004450   0.338986  -0.039172  -0.030688  -0.014197   0.476590
 Mulliken charges:
               1
     1  H    0.267863
     2  N   -0.531433
     3  H    0.268079
     4  N   -0.532489
     5  H    0.263948
     6  H    0.264032
 Sum of Mulliken charges =   0.00000
 Mulliken charges with hydrogens summed into heavy atoms:
               1
     2  N    0.000678
     4  N   -0.000678
 Electronic spatial extent (au):  <R**2>=             83.4312
 Charge=              0.0000 electrons
 Dipole moment (field-independent basis, Debye):
    X=              0.0073    Y=              1.6316    Z=              0.0023  Tot=              1.6316
 Quadrupole moment (field-independent basis, Debye-Ang):
   XX=            -11.8713   YY=            -11.1387   ZZ=            -14.5149
   XY=             -0.0036   XZ=             -3.6885   YZ=             -0.0013
 Traceless Quadrupole moment (field-independent basis, Debye-Ang):
   XX=              0.6370   YY=              1.3696   ZZ=             -2.0066
   XY=             -0.0036   XZ=             -3.6885   YZ=             -0.0013
 Octapole moment (field-independent basis, Debye-Ang**2):
  XXX=              0.0397  YYY=              2.7564  ZZZ=              0.0068  XYY=              0.0141
  XXY=              1.8849  XXZ=              0.0068  XZZ=             -0.0099  YZZ=             -0.0188
  YYZ=             -0.0041  XYZ=              1.7878
 Hexadecapole moment (field-independent basis, Debye-Ang**3):
 XXXX=            -59.6333 YYYY=            -16.8181 ZZZZ=            -17.7688 XXXY=              0.0075
 XXXZ=             -6.0156 YYYX=             -0.0085 YYYZ=              0.0007 ZZZX=             -3.9557
 ZZZY=             -0.0038 XXYY=            -11.1373 XXZZ=            -13.9130 YYZZ=             -5.8939
 XXYZ=             -0.0003 YYXZ=             -1.5165 ZZXY=             -0.0013
 N-N= 4.098299951627D+01 E-N=-3.432010889679D+02  KE= 1.108279060250D+02
 No NMR shielding tensors so no spin-rotation constants.
 Leave Link  601 at Wed May  8 21:48:43 2019, MaxMem=   104857600 cpu:               4.7 elap:               0.2
 (Enter /opt/software/gaussian/g16.b01/l701.exe)
 ... and contract with generalized density number  0.
 Compute integral first derivatives.
 R6Disp: Adding Grimme-D3 dispersion energy 1st derivatives to the gradient.
 PrsmSu:  requested number of processors reduced to:  30 ShMem   1 Linda.
 D1PCM: PCM CHGder 1st derivatives, ID1Alg=3 FixD1E=F DoIter=F DoCFld=F I1PDM=0.
 GePol: Maximum number of non-zero 1st derivatives   =     208
 CoulSu:  requested number of processors reduced to:  30 ShMem   1 Linda.
 CoulSu:  requested number of processors reduced to:  31 ShMem   1 Linda.
 Leave Link  701 at Wed May  8 21:48:43 2019, MaxMem=   104857600 cpu:              15.9 elap:               0.6
 (Enter /opt/software/gaussian/g16.b01/l702.exe)
 L702 exits ... SP integral derivatives will be done elsewhere.
 Leave Link  702 at Wed May  8 21:48:44 2019, MaxMem=   104857600 cpu:               0.6 elap:               0.0
 (Enter /opt/software/gaussian/g16.b01/l703.exe)
 Integral derivatives from FoFJK, PRISM(SPDF).
 Compute integral first derivatives, UseDBF=F ICtDFT=           0.
 Calling FoFJK, ICntrl=      2127 FMM=F ISym2X=0 I1Cent= 0 IOpClX= 0 NMat=1 NMatS=1 NMatT=0.
 FoFJK:  IHMeth= 1 ICntrl=    2127 DoSepK=F KAlg= 0 I1Cent=           0 FoldK=F
 IRaf=         0 NMat=       1 IRICut=       1 DoRegI=T DoRafI=F ISym2E= 0 IDoP0=0 IntGTp=1.
 FoFCou: FMM=F IPFlag=           0 FMFlag=      100000 FMFlg1=         800
         NFxFlg=           0 DoJE=F BraDBF=F KetDBF=F FulRan=T
         wScrn=  0.000000 ICntrl=      2127 IOpCl=  0 I1Cent=           0 NGrid=           0
         NMat0=    1 NMatS0=      1 NMatT0=    0 NMatD0=    1 NMtDS0=    0 NMtDT0=    0
 Symmetry not used in FoFCou.
 Leave Link  703 at Wed May  8 21:48:44 2019, MaxMem=   104857600 cpu:              10.9 elap:               0.4
 (Enter /opt/software/gaussian/g16.b01/l716.exe)
 Dipole        = 2.86967391D-03 6.41916723D-01 8.90883010D-04
 ***** Axes restored to original set *****
 -------------------------------------------------------------------
 Center     Atomic                   Forces (Hartrees/Bohr)
 Number     Number              X              Y              Z
 -------------------------------------------------------------------
      1        1           0.000917844   -0.000639163    0.000210469
      2        7           0.001671203   -0.000745888   -0.000886996
      3        1           0.000972743    0.000266127   -0.000212888
      4        7           0.001289776    0.001435223    0.000975247
      5        1          -0.002618530   -0.000657236   -0.001384988
      6        1          -0.002233036    0.000340937    0.001299156
 -------------------------------------------------------------------
 Cartesian Forces:  Max     0.002618530 RMS     0.001228493
 Leave Link  716 at Wed May  8 21:48:44 2019, MaxMem=   104857600 cpu:               2.5 elap:               0.1
 (Enter /opt/software/gaussian/g16.b01/l103.exe)

 GradGradGradGradGradGradGradGradGradGradGradGradGradGradGradGradGradGrad
 Berny optimization.
 FormGI is forming the generalized inverse of G from B-inverse, IUseBI=4.
 Internal  Forces:  Max     0.002885054 RMS     0.001158151
 Search for a local minimum.
 Step number   1 out of a maximum of   25
 All quantities printed in internal units (Hartrees-Bohrs-Radians)
 RMS Force = .11582D-02 SwitMx=.10000D-02 MixMth= 1
 Mixed Optimization -- RFO/linear search
 Second derivative matrix not updated -- first step.
 The second derivative matrix:
                          R1        R2        R3        R4        R5
           R1           0.44264
           R2           0.00000   0.44275
           R3           0.00000   0.00000   0.35411
           R4           0.00000   0.00000   0.00000   0.44036
           R5           0.00000   0.00000   0.00000   0.00000   0.43943
           A1           0.00000   0.00000   0.00000   0.00000   0.00000
           A2           0.00000   0.00000   0.00000   0.00000   0.00000
           A3           0.00000   0.00000   0.00000   0.00000   0.00000
           A4           0.00000   0.00000   0.00000   0.00000   0.00000
           A5           0.00000   0.00000   0.00000   0.00000   0.00000
           A6           0.00000   0.00000   0.00000   0.00000   0.00000
           D1           0.00000   0.00000   0.00000   0.00000   0.00000
           D2           0.00000   0.00000   0.00000   0.00000   0.00000
           D3           0.00000   0.00000   0.00000   0.00000   0.00000
           D4           0.00000   0.00000   0.00000   0.00000   0.00000
                          A1        A2        A3        A4        A5
           A1           0.16000
           A2           0.00000   0.16000
           A3           0.00000   0.00000   0.16000
           A4           0.00000   0.00000   0.00000   0.16000
           A5           0.00000   0.00000   0.00000   0.00000   0.16000
           A6           0.00000   0.00000   0.00000   0.00000   0.00000
           D1           0.00000   0.00000   0.00000   0.00000   0.00000
           D2           0.00000   0.00000   0.00000   0.00000   0.00000
           D3           0.00000   0.00000   0.00000   0.00000   0.00000
           D4           0.00000   0.00000   0.00000   0.00000   0.00000
                          A6        D1        D2        D3        D4
           A6           0.16000
           D1           0.00000   0.00332
           D2           0.00000   0.00000   0.00332
           D3           0.00000   0.00000   0.00000   0.00332
           D4           0.00000   0.00000   0.00000   0.00000   0.00332
 ITU=  0
     Eigenvalues ---    0.00332   0.06352   0.06406   0.16000   0.16000
     Eigenvalues ---    0.16000   0.16000   0.35411   0.43943   0.44036
     Eigenvalues ---    0.44264   0.44275
 RFO step:  Lambda=-7.67558520D-04 EMin= 3.32268607D-03
 Linear search not attempted -- first point.
 Iteration  1 RMS(Cart)=  0.08574681 RMS(Int)=  0.00679565
 Iteration  2 RMS(Cart)=  0.00617012 RMS(Int)=  0.00002740
 Iteration  3 RMS(Cart)=  0.00002411 RMS(Int)=  0.00000296
 Iteration  4 RMS(Cart)=  0.00000000 RMS(Int)=  0.00000296
 ITry= 1 IFail=0 DXMaxC= 1.61D-01 DCOld= 1.00D+10 DXMaxT= 3.00D-01 DXLimC= 3.00D+00 Rises=F
 Variable       Old X    -DE/DX   Delta X   Delta X   Delta X     New X
                                 (Linear)    (Quad)   (Total)
    R1        1.92840  -0.00050   0.00000  -0.00113  -0.00113   1.92726
    R2        1.92827  -0.00038   0.00000  -0.00085  -0.00085   1.92742
    R3        2.78312   0.00010   0.00000   0.00028   0.00028   2.78340
    R4        1.93111  -0.00231   0.00000  -0.00524  -0.00524   1.92587
    R5        1.93222  -0.00289   0.00000  -0.00655  -0.00655   1.92567
    A1        1.82962  -0.00066   0.00000  -0.00379  -0.00379   1.82583
    A2        1.81062  -0.00013   0.00000   0.00001   0.00002   1.81064
    A3        1.86894   0.00140   0.00000   0.00897   0.00897   1.87791
    A4        1.83161  -0.00081   0.00000  -0.00536  -0.00536   1.82624
    A5        1.81078   0.00013   0.00000  -0.00005  -0.00005   1.81073
    A6        1.87557   0.00016   0.00000   0.00069   0.00069   1.87625
    D1        2.09266   0.00086   0.00000   0.20923   0.20923   2.30189
    D2       -2.27085   0.00073   0.00000   0.20714   0.20714  -2.06371
    D3       -2.27450   0.00099   0.00000   0.21115   0.21115  -2.06335
    D4       -0.35482   0.00085   0.00000   0.20906   0.20906  -0.14576
         Item               Value     Threshold  Converged?
 Maximum Force            0.002885     0.000450     NO 
 RMS     Force            0.001158     0.000300     NO 
 Maximum Displacement     0.160676     0.001800     NO 
 RMS     Displacement     0.089567     0.001200     NO 
 Predicted change in Energy=-4.510013D-04
 Lowest energy point so far.  Saving SCF results.
 GradGradGradGradGradGradGradGradGradGradGradGradGradGradGradGradGradGrad

 Leave Link  103 at Wed May  8 21:48:44 2019, MaxMem=   104857600 cpu:               2.1 elap:               0.1
 (Enter /opt/software/gaussian/g16.b01/l202.exe)
                          Input orientation:                          
 ---------------------------------------------------------------------
 Center     Atomic      Atomic             Coordinates (Angstroms)
 Number     Number       Type             X           Y           Z
 ---------------------------------------------------------------------
      1          1           0       -5.052892    1.425389    0.764906
      2          7           0       -4.828508   -0.407164    0.016491
      3          1           0       -5.242277   -0.693310   -0.870756
      4          7           0       -4.667111    1.052057   -0.102227
      5          1           0       -3.671355    1.256939   -0.032246
      6          1           0       -3.898228   -0.822785   -0.005003
 ---------------------------------------------------------------------
                    Distance matrix (angstroms):
                    1          2          3          4          5
     1  H    0.000000
     2  N    1.992166   0.000000
     3  H    2.683308   1.019947   0.000000
     4  N    1.019865   1.472912   1.991924   0.000000
     5  H    1.603893   2.027466   2.640903   1.019021   0.000000
     6  H    2.642025   1.019128   1.603982   2.028710   2.092239
                    6
     6  H    0.000000
 Stoichiometry    H4N2
 Framework group  C1[X(H4N2)]
 Deg. of freedom    12
 Full point group                 C1      NOp   1
 RotChk:  IX=2 Diff= 1.13D-02
 Largest Abelian subgroup         C1      NOp   1
 Largest concise Abelian subgroup C1      NOp   1
                         Standard orientation:                         
 ---------------------------------------------------------------------
 Center     Atomic      Atomic             Coordinates (Angstroms)
 Number     Number       Type             X           Y           Z
 ---------------------------------------------------------------------
      1          1           0        1.141707   -0.464485   -0.705381
      2          7           0       -0.724074   -0.062941   -0.134112
      3          1           0       -1.141126   -0.466011    0.704872
      4          7           0        0.724221   -0.063014    0.134053
      5          1           0        1.038359    0.906290    0.120917
      6          1           0       -1.039964    0.905892   -0.119997
 ---------------------------------------------------------------------
 Rotational constants (GHZ):         139.9005838          24.0385041          23.2166536
 Leave Link  202 at Wed May  8 21:48:45 2019, MaxMem=   104857600 cpu:               2.7 elap:               0.1
 (Enter /opt/software/gaussian/g16.b01/l301.exe)
 Standard basis: 6-31G(d,p) (6D, 7F)
 Ernie: Thresh=  0.10000D-02 Tol=  0.10000D-05 Strict=F.
 There are    50 symmetry adapted cartesian basis functions of A   symmetry.
 There are    50 symmetry adapted basis functions of A   symmetry.
    50 basis functions,    84 primitive gaussians,    50 cartesian basis functions
     9 alpha electrons        9 beta electrons
       nuclear repulsion energy        41.0206862134 Hartrees.
 IExCor=  402 DFT=T Ex+Corr=B3LYP ExCW=0 ScaHFX=  0.200000
 ScaDFX=  0.800000  0.720000  1.000000  0.810000 ScalE2=  1.000000  1.000000
 IRadAn=      5 IRanWt=     -1 IRanGd=            0 ICorTp=0 IEmpDi=131
 NAtoms=    6 NActive=    6 NUniq=    6 SFac= 1.00D+00 NAtFMM=   60 NAOKFM=F Big=F
 Integral buffers will be    131072 words long.
 Raffenetti 2 integral format.
 Two-electron integral symmetry is turned on.
 R6Disp:  Grimme-D3 Dispersion energy=       -0.0007610295 Hartrees.
 Nuclear repulsion after empirical dispersion term =       41.0199251839 Hartrees.
 ------------------------------------------------------------------------------
 Polarizable Continuum Model (PCM)
 =================================
 Model                : PCM.
 Atomic radii         : UFF (Universal Force Field).
 Polarization charges : Total charges.
 Charge compensation  : None.
 Solution method      : On-the-fly selection.
 Cavity type          : Scaled VdW (van der Waals Surface) (Alpha=1.100).
 Cavity algorithm     : GePol (No added spheres)
                        Default sphere list used, NSphG=    6.
                        Lebedev-Laikov grids with approx.  5.0 points / Ang**2.
                        Smoothing algorithm: York/Karplus (Gamma=1.0000).
                        Polarization charges: spherical gaussians, with
                                              point-specific exponents (IZeta= 3).
                        Self-potential: point-specific (ISelfS= 7).
                        Self-field    : sphere-specific E.n sum rule (ISelfD= 2).
 1st derivatives      : Analytical E(r).r(x)/FMM algorithm (CHGder, D1EAlg=3).
                        Cavity 1st derivative terms included.
 Solvent              : Acetonitrile, Eps=  35.688000 Eps(inf)=   1.806874
 ------------------------------------------------------------------------------
 Spheres list:
 ISph  on   Nord     Re0    Alpha      Xe            Ye            Ze
    1   H      1    1.4430  1.100      1.141707     -0.464485     -0.705381
    2   N      2    1.8300  1.100     -0.724074     -0.062941     -0.134112
    3   H      3    1.4430  1.100     -1.141126     -0.466011      0.704872
    4   N      4    1.8300  1.100      0.724221     -0.063014      0.134053
    5   H      5    1.4430  1.100      1.038359      0.906290      0.120917
    6   H      6    1.4430  1.100     -1.039964      0.905892     -0.119997
 ------------------------------------------------------------------------------
 GePol: Number of generator spheres                  =       6
 GePol: Total number of spheres                      =       6
 GePol: Number of exposed spheres                    =       6 (100.00%)
 GePol: Number of points                             =     600
 GePol: Average weight of points                     =       0.14
 GePol: Minimum weight of points                     =   0.65D-06
 GePol: Maximum weight of points                     =    0.20212
 GePol: Number of points with low weight             =      33
 GePol: Fraction of low-weight points (<1% of avg)   =       5.50%
 GePol: Cavity surface area                          =     83.722 Ang**2
 GePol: Cavity volume                                =     65.008 Ang**3
 Leave Link  301 at Wed May  8 21:48:45 2019, MaxMem=   104857600 cpu:               2.0 elap:               0.1
 (Enter /opt/software/gaussian/g16.b01/l302.exe)
 NPDir=0 NMtPBC=     1 NCelOv=     1 NCel=       1 NClECP=     1 NCelD=      1
         NCelK=      1 NCelE2=     1 NClLst=     1 CellRange=     0.0.
 One-electron integrals computed using PRISM.
 One-electron integral symmetry used in STVInt
 PrsmSu:  requested number of processors reduced to:  30 ShMem   1 Linda.
 NBasis=    50 RedAO= T EigKep=  9.52D-03  NBF=    50
 NBsUse=    50 1.00D-06 EigRej= -1.00D+00 NBFU=    50
 Precomputing XC quadrature grid using
 IXCGrd= 4 IRadAn=           5 IRanWt=          -1 IRanGd=           0 AccXCQ= 0.00D+00.
 Generated NRdTot=       0 NPtTot=           0 NUsed=           0 NTot=          32
 NSgBfM=    50    50    50    50    50 MxSgAt=     6 MxSgA2=     6.
 Leave Link  302 at Wed May  8 21:48:45 2019, MaxMem=   104857600 cpu:               5.4 elap:               0.2
 (Enter /opt/software/gaussian/g16.b01/l303.exe)
 DipDrv:  MaxL=1.
 Leave Link  303 at Wed May  8 21:48:45 2019, MaxMem=   104857600 cpu:               0.7 elap:               0.0
 (Enter /opt/software/gaussian/g16.b01/l401.exe)
 Initial guess from the checkpoint file:  "Hydrazine.chk"
 B after Tr=    -0.000000   -0.000000   -0.000000
         Rot=    0.999999   -0.001349   -0.000164   -0.000486 Ang=  -0.17 deg.
 Guess basis will be translated and rotated to current coordinates.
 JPrj=2 DoOrth=T DoCkMO=T.
 Generating alternative initial guess.
 ExpMin= 1.61D-01 ExpMax= 4.17D+03 ExpMxC= 6.27D+02 IAcc=3 IRadAn=         5 AccDes= 0.00D+00
 Harris functional with IExCor=  402 and IRadAn=       5 diagonalized for initial guess.
 HarFok:  IExCor=  402 AccDes= 0.00D+00 IRadAn=         5 IDoV= 1 UseB2=F ITyADJ=14
 ICtDFT=  3500011 ScaDFX=  1.000000  1.000000  1.000000  1.000000
 FoFCou: FMM=F IPFlag=           0 FMFlag=      100000 FMFlg1=           0
         NFxFlg=           0 DoJE=T BraDBF=F KetDBF=T FulRan=T
         wScrn=  0.000000 ICntrl=       500 IOpCl=  0 I1Cent=   200000004 NGrid=           0
         NMat0=    1 NMatS0=      1 NMatT0=    0 NMatD0=    1 NMtDS0=    0 NMtDT0=    0
 Petite list used in FoFCou.
 Harris En= -111.873518317810    
 Leave Link  401 at Wed May  8 21:48:45 2019, MaxMem=   104857600 cpu:               8.7 elap:               0.3
 (Enter /opt/software/gaussian/g16.b01/l502.exe)
 Keep R1 ints in memory in canonical form, NReq=28740694.
 FoFCou: FMM=F IPFlag=           0 FMFlag=           0 FMFlg1=           0
         NFxFlg=           0 DoJE=F BraDBF=F KetDBF=F FulRan=T
         wScrn=  0.000000 ICntrl=       600 IOpCl=  0 I1Cent=           0 NGrid=           0
         NMat0=    1 NMatS0=   1275 NMatT0=    0 NMatD0=    1 NMtDS0=    0 NMtDT0=    0
 Symmetry not used in FoFCou.
 Two-electron integral symmetry not used.
 Closed shell SCF:
 Using DIIS extrapolation, IDIIS=  1040.
 NGot=   104857600 LenX=   104036840 LenY=   104033899
 Requested convergence on RMS density matrix=1.00D-08 within 128 cycles.
 Requested convergence on MAX density matrix=1.00D-06.
 Requested convergence on             energy=1.00D-06.
 No special actions if energy rises.

 Cycle   1  Pass 1  IDiag  1:
 Inv3:  Mode=1 IEnd=     1080000.
 Iteration    1 A*A^-1 deviation from unit magnitude is 2.55D-15 for      3.
 Iteration    1 A*A^-1 deviation from orthogonality  is 1.55D-15 for    349    272.
 Iteration    1 A^-1*A deviation from unit magnitude is 2.89D-15 for     69.
 Iteration    1 A^-1*A deviation from orthogonality  is 1.55D-15 for    536    102.
 E= -111.870641587542    
 DIIS: error= 6.42D-03 at cycle   1 NSaved=   1.
 NSaved= 1 IEnMin= 1 EnMin= -111.870641587542     IErMin= 1 ErrMin= 6.42D-03
 ErrMax= 6.42D-03  0.00D+00 EMaxC= 1.00D-01 BMatC= 2.56D-03 BMatP= 2.56D-03
 IDIUse=3 WtCom= 9.36D-01 WtEn= 6.42D-02
 Coeff-Com:  0.100D+01
 Coeff-En:   0.100D+01
 Coeff:      0.100D+01
 Gap=     1.985 Goal=   None    Shift=    0.000
 GapD=    1.985 DampG=2.000 DampE=1.000 DampFc=2.0000 IDamp=-1.
 RMSDP=1.69D-03 MaxDP=1.63D-02              OVMax= 2.97D-02

 Cycle   2  Pass 1  IDiag  1:
 E= -111.874800537307     Delta-E=       -0.004158949765 Rises=F Damp=F
 DIIS: error= 5.38D-04 at cycle   2 NSaved=   2.
 NSaved= 2 IEnMin= 2 EnMin= -111.874800537307     IErMin= 2 ErrMin= 5.38D-04
 ErrMax= 5.38D-04  0.00D+00 EMaxC= 1.00D-01 BMatC= 2.82D-05 BMatP= 2.56D-03
 IDIUse=3 WtCom= 9.95D-01 WtEn= 5.38D-03
 Coeff-Com: -0.731D-01 0.107D+01
 Coeff-En:   0.000D+00 0.100D+01
 Coeff:     -0.727D-01 0.107D+01
 Gap=     0.307 Goal=   None    Shift=    0.000
 RMSDP=2.22D-04 MaxDP=1.84D-03 DE=-4.16D-03 OVMax= 3.86D-03

 Cycle   3  Pass 1  IDiag  1:
 E= -111.874845137571     Delta-E=       -0.000044600264 Rises=F Damp=F
 DIIS: error= 2.40D-04 at cycle   3 NSaved=   3.
 NSaved= 3 IEnMin= 3 EnMin= -111.874845137571     IErMin= 3 ErrMin= 2.40D-04
 ErrMax= 2.40D-04  0.00D+00 EMaxC= 1.00D-01 BMatC= 4.51D-06 BMatP= 2.82D-05
 IDIUse=3 WtCom= 9.98D-01 WtEn= 2.40D-03
 Coeff-Com: -0.249D-01 0.328D+00 0.697D+00
 Coeff-En:   0.000D+00 0.000D+00 0.100D+01
 Coeff:     -0.248D-01 0.327D+00 0.697D+00
 Gap=     0.306 Goal=   None    Shift=    0.000
 RMSDP=5.26D-05 MaxDP=7.54D-04 DE=-4.46D-05 OVMax= 8.36D-04

 Cycle   4  Pass 1  IDiag  1:
 E= -111.874848062701     Delta-E=       -0.000002925130 Rises=F Damp=F
 DIIS: error= 1.41D-04 at cycle   4 NSaved=   4.
 NSaved= 4 IEnMin= 4 EnMin= -111.874848062701     IErMin= 4 ErrMin= 1.41D-04
 ErrMax= 1.41D-04  0.00D+00 EMaxC= 1.00D-01 BMatC= 1.36D-06 BMatP= 4.51D-06
 IDIUse=3 WtCom= 9.99D-01 WtEn= 1.41D-03
 Coeff-Com: -0.369D-02 0.392D-01 0.361D+00 0.604D+00
 Coeff-En:   0.000D+00 0.000D+00 0.198D+00 0.802D+00
 Coeff:     -0.368D-02 0.391D-01 0.361D+00 0.604D+00
 Gap=     0.306 Goal=   None    Shift=    0.000
 RMSDP=1.98D-05 MaxDP=2.73D-04 DE=-2.93D-06 OVMax= 2.64D-04

 Cycle   5  Pass 1  IDiag  1:
 E= -111.874849230291     Delta-E=       -0.000001167590 Rises=F Damp=F
 DIIS: error= 9.29D-06 at cycle   5 NSaved=   5.
 NSaved= 5 IEnMin= 5 EnMin= -111.874849230291     IErMin= 5 ErrMin= 9.29D-06
 ErrMax= 9.29D-06  0.00D+00 EMaxC= 1.00D-01 BMatC= 1.25D-08 BMatP= 1.36D-06
 IDIUse=1 WtCom= 1.00D+00 WtEn= 0.00D+00
 Coeff-Com:  0.466D-03-0.120D-01 0.498D-01 0.137D+00 0.824D+00
 Coeff:      0.466D-03-0.120D-01 0.498D-01 0.137D+00 0.824D+00
 Gap=     0.306 Goal=   None    Shift=    0.000
 RMSDP=2.78D-06 MaxDP=2.74D-05 DE=-1.17D-06 OVMax= 4.67D-05

 Cycle   6  Pass 1  IDiag  1:
 E= -111.874849240139     Delta-E=       -0.000000009848 Rises=F Damp=F
 DIIS: error= 7.16D-06 at cycle   6 NSaved=   6.
 NSaved= 6 IEnMin= 6 EnMin= -111.874849240139     IErMin= 6 ErrMin= 7.16D-06
 ErrMax= 7.16D-06  0.00D+00 EMaxC= 1.00D-01 BMatC= 2.68D-09 BMatP= 1.25D-08
 IDIUse=1 WtCom= 1.00D+00 WtEn= 0.00D+00
 Coeff-Com:  0.375D-03-0.782D-02 0.174D-01 0.588D-01 0.444D+00 0.487D+00
 Coeff:      0.375D-03-0.782D-02 0.174D-01 0.588D-01 0.444D+00 0.487D+00
 Gap=     0.306 Goal=   None    Shift=    0.000
 RMSDP=8.16D-07 MaxDP=1.21D-05 DE=-9.85D-09 OVMax= 1.60D-05

 Cycle   7  Pass 1  IDiag  1:
 E= -111.874849242250     Delta-E=       -0.000000002111 Rises=F Damp=F
 DIIS: error= 1.33D-06 at cycle   7 NSaved=   7.
 NSaved= 7 IEnMin= 7 EnMin= -111.874849242250     IErMin= 7 ErrMin= 1.33D-06
 ErrMax= 1.33D-06  0.00D+00 EMaxC= 1.00D-01 BMatC= 1.02D-10 BMatP= 2.68D-09
 IDIUse=1 WtCom= 1.00D+00 WtEn= 0.00D+00
 Coeff-Com:  0.729D-04-0.107D-02-0.971D-04 0.280D-02 0.357D-01 0.173D+00
 Coeff-Com:  0.790D+00
 Coeff:      0.729D-04-0.107D-02-0.971D-04 0.280D-02 0.357D-01 0.173D+00
 Coeff:      0.790D+00
 Gap=     0.306 Goal=   None    Shift=    0.000
 RMSDP=2.25D-07 MaxDP=2.54D-06 DE=-2.11D-09 OVMax= 4.07D-06

 Cycle   8  Pass 1  IDiag  1:
 E= -111.874849242343     Delta-E=       -0.000000000093 Rises=F Damp=F
 DIIS: error= 2.02D-07 at cycle   8 NSaved=   8.
 NSaved= 8 IEnMin= 8 EnMin= -111.874849242343     IErMin= 8 ErrMin= 2.02D-07
 ErrMax= 2.02D-07  0.00D+00 EMaxC= 1.00D-01 BMatC= 1.73D-12 BMatP= 1.02D-10
 IDIUse=1 WtCom= 1.00D+00 WtEn= 0.00D+00
 Coeff-Com: -0.215D-05 0.107D-03-0.904D-03-0.223D-02-0.150D-01 0.113D-01
 Coeff-Com:  0.161D+00 0.845D+00
 Coeff:     -0.215D-05 0.107D-03-0.904D-03-0.223D-02-0.150D-01 0.113D-01
 Coeff:      0.161D+00 0.845D+00
 Gap=     0.306 Goal=   None    Shift=    0.000
 RMSDP=3.85D-08 MaxDP=2.98D-07 DE=-9.28D-11 OVMax= 7.37D-07

 Cycle   9  Pass 1  IDiag  1:
 E= -111.874849242345     Delta-E=       -0.000000000002 Rises=F Damp=F
 DIIS: error= 9.64D-09 at cycle   9 NSaved=   9.
 NSaved= 9 IEnMin= 9 EnMin= -111.874849242345     IErMin= 9 ErrMin= 9.64D-09
 ErrMax= 9.64D-09  0.00D+00 EMaxC= 1.00D-01 BMatC= 6.83D-15 BMatP= 1.73D-12
 IDIUse=1 WtCom= 1.00D+00 WtEn= 0.00D+00
 Coeff-Com: -0.115D-05 0.239D-04-0.319D-04-0.123D-03-0.127D-02-0.138D-02
 Coeff-Com:  0.108D-02 0.657D-01 0.936D+00
 Coeff:     -0.115D-05 0.239D-04-0.319D-04-0.123D-03-0.127D-02-0.138D-02
 Coeff:      0.108D-02 0.657D-01 0.936D+00
 Gap=     0.306 Goal=   None    Shift=    0.000
 RMSDP=2.58D-09 MaxDP=2.08D-08 DE=-1.73D-12 OVMax= 3.77D-08

 Error on total polarization charges =  0.00360
 SCF Done:  E(RB3LYP) =  -111.874849242     A.U. after    9 cycles
            NFock=  9  Conv=0.26D-08     -V/T= 2.0094
 KE= 1.108374431569D+02 PE=-3.432727457416D+02 EE= 7.954052815837D+01
 Leave Link  502 at Wed May  8 21:48:47 2019, MaxMem=   104857600 cpu:              40.1 elap:               1.3
 (Enter /opt/software/gaussian/g16.b01/l701.exe)
 ... and contract with generalized density number  0.
 Compute integral first derivatives.
 R6Disp: Adding Grimme-D3 dispersion energy 1st derivatives to the gradient.
 PrsmSu:  requested number of processors reduced to:  30 ShMem   1 Linda.
 D1PCM: PCM CHGder 1st derivatives, ID1Alg=3 FixD1E=F DoIter=F DoCFld=F I1PDM=0.
 GePol: Maximum number of non-zero 1st derivatives   =     212
 CoulSu:  requested number of processors reduced to:  30 ShMem   1 Linda.
 CoulSu:  requested number of processors reduced to:  31 ShMem   1 Linda.
 Leave Link  701 at Wed May  8 21:48:47 2019, MaxMem=   104857600 cpu:              21.1 elap:               0.7
 (Enter /opt/software/gaussian/g16.b01/l702.exe)
 L702 exits ... SP integral derivatives will be done elsewhere.
 Leave Link  702 at Wed May  8 21:48:47 2019, MaxMem=   104857600 cpu:               0.6 elap:               0.0
 (Enter /opt/software/gaussian/g16.b01/l703.exe)
 Integral derivatives from FoFJK, PRISM(SPDF).
 Compute integral first derivatives, UseDBF=F ICtDFT=           0.
 Calling FoFJK, ICntrl=      2127 FMM=F ISym2X=0 I1Cent= 0 IOpClX= 0 NMat=1 NMatS=1 NMatT=0.
 FoFJK:  IHMeth= 1 ICntrl=    2127 DoSepK=F KAlg= 0 I1Cent=           0 FoldK=F
 IRaf=         0 NMat=       1 IRICut=       1 DoRegI=T DoRafI=F ISym2E= 0 IDoP0=0 IntGTp=1.
 FoFCou: FMM=F IPFlag=           0 FMFlag=      100000 FMFlg1=         800
         NFxFlg=           0 DoJE=F BraDBF=F KetDBF=F FulRan=T
         wScrn=  0.000000 ICntrl=      2127 IOpCl=  0 I1Cent=           0 NGrid=           0
         NMat0=    1 NMatS0=      1 NMatT0=    0 NMatD0=    1 NMtDS0=    0 NMtDT0=    0
 Symmetry not used in FoFCou.
 Leave Link  703 at Wed May  8 21:48:48 2019, MaxMem=   104857600 cpu:               7.5 elap:               0.3
 (Enter /opt/software/gaussian/g16.b01/l716.exe)
 Dipole        =-3.75824017D-04 7.77550137D-01 2.93000467D-04
 ***** Axes restored to original set *****
 -------------------------------------------------------------------
 Center     Atomic                   Forces (Hartrees/Bohr)
 Number     Number              X              Y              Z
 -------------------------------------------------------------------
      1        1           0.000296223    0.000333189   -0.000174246
      2        7          -0.000078622    0.002594296   -0.003965419
      3        1           0.000232018   -0.000417378    0.000278101
      4        7          -0.000572687   -0.002710412    0.003862246
      5        1           0.000294459    0.001560842   -0.002099575
      6        1          -0.000171392   -0.001360538    0.002098893
 -------------------------------------------------------------------
 Cartesian Forces:  Max     0.003965419 RMS     0.001807450
 Leave Link  716 at Wed May  8 21:48:48 2019, MaxMem=   104857600 cpu:               0.6 elap:               0.0
 (Enter /opt/software/gaussian/g16.b01/l103.exe)

 GradGradGradGradGradGradGradGradGradGradGradGradGradGradGradGradGradGrad
 Berny optimization.
 Using GEDIIS/GDIIS optimizer.
 FormGI is forming the generalized inverse of G from B-inverse, IUseBI=4.
 Internal  Forces:  Max     0.003254049 RMS     0.001437431
 Search for a local minimum.
 Step number   2 out of a maximum of   25
 All quantities printed in internal units (Hartrees-Bohrs-Radians)
 RMS Force = .14374D-02 SwitMx=.10000D-02 MixMth= 1
 Mixed Optimization -- RFO/linear search
 Update second derivatives using D2CorX and points    1    2
 DE= -8.16D-04 DEPred=-4.51D-04 R= 1.81D+00
 TightC=F SS=  1.41D+00  RLast= 4.19D-01 DXNew= 5.0454D-01 1.2556D+00
 Trust test= 1.81D+00 RLast= 4.19D-01 DXMaxT set to 5.05D-01
 The second derivative matrix:
                          R1        R2        R3        R4        R5
           R1           0.44030
           R2          -0.00114   0.44216
           R3           0.00558   0.00245   0.33852
           R4          -0.01596  -0.00752   0.04036   0.32921
           R5          -0.02002  -0.00942   0.05064  -0.13941   0.26459
           A1          -0.00898  -0.00405   0.02414  -0.06397  -0.08025
           A2          -0.00099  -0.00043   0.00280  -0.00719  -0.00901
           A3          -0.00688  -0.00263   0.02245  -0.05301  -0.06654
           A4          -0.00929  -0.00425   0.02451  -0.06573  -0.08245
           A5           0.00066   0.00028  -0.00187   0.00479   0.00601
           A6          -0.01633  -0.00707   0.04643  -0.11891  -0.14918
           D1           0.00852   0.00388  -0.02265   0.06043   0.07580
           D2          -0.00088  -0.00021   0.00392  -0.00785  -0.00986
           D3           0.00064   0.00045  -0.00035   0.00316   0.00395
           D4          -0.00876  -0.00364   0.02623  -0.06511  -0.08170
                          A1        A2        A3        A4        A5
           A1           0.12229
           A2          -0.00432   0.15950
           A3          -0.03363  -0.00408   0.12374
           A4          -0.03845  -0.00438  -0.03354   0.12070
           A5           0.00289   0.00034   0.00275   0.00292   0.15977
           A6          -0.07161  -0.00835  -0.06787  -0.07254   0.00559
           D1           0.03546   0.00405   0.03124   0.03621  -0.00270
           D2          -0.00556  -0.00073  -0.00743  -0.00538   0.00049
           D3           0.00104   0.00004  -0.00125   0.00132  -0.00002
           D4          -0.03999  -0.00474  -0.03991  -0.04027   0.00318
                          A6        D1        D2        D3        D4
           A6           0.02146
           D1           0.06710  -0.03006
           D2          -0.01214   0.00508   0.00153
           D3           0.00058  -0.00111  -0.00070   0.00254
           D4          -0.07866   0.03735  -0.00757  -0.00037  -0.04197
 ITU=  1  0
 Use linear search instead of GDIIS.
     Eigenvalues ---   -0.38533   0.00014   0.06366   0.10181   0.15490
     Eigenvalues ---    0.16000   0.16000   0.31005   0.36147   0.44000
     Eigenvalues ---    0.44254   0.44271
 Eigenvalue     1 is  -3.85D-01 should be greater than     0.000000 Eigenvector:
                          A6        R5        D4        D1        R4
   1                    0.53243   0.37948   0.35565  -0.30624   0.30217
                          A4        A1        A3        R3        A2
   1                    0.29286   0.28552   0.25851  -0.12836   0.06878
 RFO step:  Lambda=-3.85385995D-01 EMin=-3.85332065D-01
 I=     1 Eig=   -3.85D-01 Dot1=  2.74D-03
 I=     1 Stepn=  6.00D-01 RXN=   6.00D-01 EDone=F
 Mixed    1 eigenvectors in step.  Raw Step.Grad=  2.74D-03.
 RFO eigenvector is Hessian eigenvector with negative curvature.
 Taking step of  6.00D-01 in eigenvector direction(s).  Step.Grad= -8.37D-05.
 Skip linear search -- no minimum in search direction.
 Maximum step size (   0.505) exceeded in Quadratic search.
    -- Step size not scaled.
 Iteration  1 RMS(Cart)=  0.14579247 RMS(Int)=  0.04074156
 Iteration  2 RMS(Cart)=  0.05574621 RMS(Int)=  0.02018451
 Iteration  3 RMS(Cart)=  0.00267675 RMS(Int)=  0.01995755
 Iteration  4 RMS(Cart)=  0.00005891 RMS(Int)=  0.01995750
 Iteration  5 RMS(Cart)=  0.00000238 RMS(Int)=  0.01995750
 Iteration  6 RMS(Cart)=  0.00000012 RMS(Int)=  0.01995750
 ITry= 1 IFail=0 DXMaxC= 4.86D-01 DCOld= 1.00D+10 DXMaxT= 5.05D-01 DXLimC= 3.00D+00 Rises=F
 Variable       Old X    -DE/DX   Delta X   Delta X   Delta X     New X
                                 (Linear)    (Quad)   (Total)
    R1        1.92726  -0.00014   0.00000   0.02524   0.02524   1.95251
    R2        1.92742  -0.00022   0.00000   0.01129   0.01129   1.93871
    R3        2.78340  -0.00094   0.00000  -0.07702  -0.07702   2.70638
    R4        1.92587   0.00035   0.00000   0.18130   0.18130   2.10718
    R5        1.92567   0.00046   0.00000   0.22769   0.22769   2.15336
    A1        1.82583   0.00094   0.00000   0.17131   0.15705   1.98288
    A2        1.81064   0.00006   0.00000   0.04127   0.01767   1.82831
    A3        1.87791   0.00291   0.00000   0.15511   0.14127   2.01918
    A4        1.82624   0.00082   0.00000   0.17572   0.14352   1.96976
    A5        1.81073   0.00001   0.00000   0.01391  -0.03128   1.77946
    A6        1.87625   0.00325   0.00000   0.31946   0.29127   2.16752
    D1        2.30189  -0.00064   0.00000  -0.18374  -0.20696   2.09493
    D2       -2.06371   0.00099   0.00000   0.03244   0.03843  -2.02528
    D3       -2.06335   0.00097   0.00000  -0.00279  -0.00878  -2.07212
    D4       -0.14576   0.00260   0.00000   0.21339   0.23661   0.09085
         Item               Value     Threshold  Converged?
 Maximum Force            0.003254     0.000450     NO 
 RMS     Force            0.001437     0.000300     NO 
 Maximum Displacement     0.485947     0.001800     NO 
 RMS     Displacement     0.179409     0.001200     NO 
 Predicted change in Energy=-6.924062D-02
 Lowest energy point so far.  Saving SCF results.
 GradGradGradGradGradGradGradGradGradGradGradGradGradGradGradGradGradGrad

 Leave Link  103 at Wed May  8 21:48:48 2019, MaxMem=   104857600 cpu:               2.9 elap:               0.1
 (Enter /opt/software/gaussian/g16.b01/l202.exe)
                          Input orientation:                          
 ---------------------------------------------------------------------
 Center     Atomic      Atomic             Coordinates (Angstroms)
 Number     Number       Type             X           Y           Z
 ---------------------------------------------------------------------
      1          1           0       -5.087361    1.470662    0.769225
      2          7           0       -4.827235   -0.408665   -0.048544
      3          1           0       -5.306747   -0.748325   -0.889506
      4          7           0       -4.629700    1.009732   -0.034293
      5          1           0       -3.607945    1.514091   -0.045181
      6          1           0       -3.901384   -1.026368    0.019466
 ---------------------------------------------------------------------
                    Distance matrix (angstroms):
                    1          2          3          4          5
     1  H    0.000000
     2  N    2.065982   0.000000
     3  H    2.779105   1.025923   0.000000
     4  N    1.033224   1.432157   2.068949   0.000000
     5  H    1.689324   2.276768   2.952515   1.139509   0.000000
     6  H    2.864234   1.115070   1.696639   2.163109   2.558168
                    6
     6  H    0.000000
 Stoichiometry    H4N2
 Framework group  C1[X(H4N2)]
 Deg. of freedom    12
 Full point group                 C1      NOp   1
 RotChk:  IX=0 Diff= 8.84D-02
 Largest Abelian subgroup         C1      NOp   1
 Largest concise Abelian subgroup C1      NOp   1
                         Standard orientation:                         
 ---------------------------------------------------------------------
 Center     Atomic      Atomic             Coordinates (Angstroms)
 Number     Number       Type             X           Y           Z
 ---------------------------------------------------------------------
      1          1           0        1.213929   -0.567001   -0.632989
      2          7           0       -0.716753   -0.056892   -0.103334
      3          1           0       -1.242649   -0.489218    0.664160
      4          7           0        0.700525   -0.054221    0.102553
      5          1           0        1.329421    0.889311    0.215321
      6          1           0       -1.187104    0.944702   -0.241031
 ---------------------------------------------------------------------
 Rotational constants (GHZ):         143.3186913          23.4421279          22.2717212
 Leave Link  202 at Wed May  8 21:48:48 2019, MaxMem=   104857600 cpu:               0.5 elap:               0.0
 (Enter /opt/software/gaussian/g16.b01/l301.exe)
 Standard basis: 6-31G(d,p) (6D, 7F)
 Ernie: Thresh=  0.10000D-02 Tol=  0.10000D-05 Strict=F.
 There are    50 symmetry adapted cartesian basis functions of A   symmetry.
 There are    50 symmetry adapted basis functions of A   symmetry.
    50 basis functions,    84 primitive gaussians,    50 cartesian basis functions
     9 alpha electrons        9 beta electrons
       nuclear repulsion energy        40.1830175004 Hartrees.
 IExCor=  402 DFT=T Ex+Corr=B3LYP ExCW=0 ScaHFX=  0.200000
 ScaDFX=  0.800000  0.720000  1.000000  0.810000 ScalE2=  1.000000  1.000000
 IRadAn=      5 IRanWt=     -1 IRanGd=            0 ICorTp=0 IEmpDi=131
 NAtoms=    6 NActive=    6 NUniq=    6 SFac= 1.00D+00 NAtFMM=   60 NAOKFM=F Big=F
 Integral buffers will be    131072 words long.
 Raffenetti 2 integral format.
 Two-electron integral symmetry is turned on.
 R6Disp:  Grimme-D3 Dispersion energy=       -0.0008937196 Hartrees.
 Nuclear repulsion after empirical dispersion term =       40.1821237808 Hartrees.
 ------------------------------------------------------------------------------
 Polarizable Continuum Model (PCM)
 =================================
 Model                : PCM.
 Atomic radii         : UFF (Universal Force Field).
 Polarization charges : Total charges.
 Charge compensation  : None.
 Solution method      : On-the-fly selection.
 Cavity type          : Scaled VdW (van der Waals Surface) (Alpha=1.100).
 Cavity algorithm     : GePol (No added spheres)
                        Default sphere list used, NSphG=    6.
                        Lebedev-Laikov grids with approx.  5.0 points / Ang**2.
                        Smoothing algorithm: York/Karplus (Gamma=1.0000).
                        Polarization charges: spherical gaussians, with
                                              point-specific exponents (IZeta= 3).
                        Self-potential: point-specific (ISelfS= 7).
                        Self-field    : sphere-specific E.n sum rule (ISelfD= 2).
 1st derivatives      : Analytical E(r).r(x)/FMM algorithm (CHGder, D1EAlg=3).
                        Cavity 1st derivative terms included.
 Solvent              : Acetonitrile, Eps=  35.688000 Eps(inf)=   1.806874
 ------------------------------------------------------------------------------
 Spheres list:
 ISph  on   Nord     Re0    Alpha      Xe            Ye            Ze
    1   H      1    1.4430  1.100      1.213929     -0.567001     -0.632989
    2   N      2    1.8300  1.100     -0.716753     -0.056892     -0.103334
    3   H      3    1.4430  1.100     -1.242649     -0.489218      0.664160
    4   N      4    1.8300  1.100      0.700525     -0.054221      0.102553
    5   H      5    1.4430  1.100      1.329421      0.889311      0.215321
    6   H      6    1.4430  1.100     -1.187104      0.944702     -0.241031
 ------------------------------------------------------------------------------
 GePol: Number of generator spheres                  =       6
 GePol: Total number of spheres                      =       6
 GePol: Number of exposed spheres                    =       6 (100.00%)
 GePol: Number of points                             =     624
 GePol: Average weight of points                     =       0.14
 GePol: Minimum weight of points                     =   0.14D-09
 GePol: Maximum weight of points                     =    0.20212
 GePol: Number of points with low weight             =      29
 GePol: Fraction of low-weight points (<1% of avg)   =       4.65%
 GePol: Cavity surface area                          =     86.502 Ang**2
 GePol: Cavity volume                                =     66.719 Ang**3
 Leave Link  301 at Wed May  8 21:48:48 2019, MaxMem=   104857600 cpu:               2.0 elap:               0.1
 (Enter /opt/software/gaussian/g16.b01/l302.exe)
 NPDir=0 NMtPBC=     1 NCelOv=     1 NCel=       1 NClECP=     1 NCelD=      1
         NCelK=      1 NCelE2=     1 NClLst=     1 CellRange=     0.0.
 One-electron integrals computed using PRISM.
 One-electron integral symmetry used in STVInt
 PrsmSu:  requested number of processors reduced to:  30 ShMem   1 Linda.
 NBasis=    50 RedAO= T EigKep=  1.09D-02  NBF=    50
 NBsUse=    50 1.00D-06 EigRej= -1.00D+00 NBFU=    50
 Precomputing XC quadrature grid using
 IXCGrd= 4 IRadAn=           5 IRanWt=          -1 IRanGd=           0 AccXCQ= 0.00D+00.
 Generated NRdTot=       0 NPtTot=           0 NUsed=           0 NTot=          32
 NSgBfM=    50    50    50    50    50 MxSgAt=     6 MxSgA2=     6.
 Leave Link  302 at Wed May  8 21:48:48 2019, MaxMem=   104857600 cpu:               5.5 elap:               0.2
 (Enter /opt/software/gaussian/g16.b01/l303.exe)
 DipDrv:  MaxL=1.
 Leave Link  303 at Wed May  8 21:48:48 2019, MaxMem=   104857600 cpu:               0.8 elap:               0.1
 (Enter /opt/software/gaussian/g16.b01/l401.exe)
 Initial guess from the checkpoint file:  "Hydrazine.chk"
 B after Tr=    -0.000000   -0.000000   -0.000000
         Rot=    0.999853    0.013319    0.004954    0.009634 Ang=   1.97 deg.
 Guess basis will be translated and rotated to current coordinates.
 JPrj=2 DoOrth=T DoCkMO=T.
 Generating alternative initial guess.
 ExpMin= 1.61D-01 ExpMax= 4.17D+03 ExpMxC= 6.27D+02 IAcc=3 IRadAn=         5 AccDes= 0.00D+00
 Harris functional with IExCor=  402 and IRadAn=       5 diagonalized for initial guess.
 HarFok:  IExCor=  402 AccDes= 0.00D+00 IRadAn=         5 IDoV= 1 UseB2=F ITyADJ=14
 ICtDFT=  3500011 ScaDFX=  1.000000  1.000000  1.000000  1.000000
 FoFCou: FMM=F IPFlag=           0 FMFlag=      100000 FMFlg1=           0
         NFxFlg=           0 DoJE=T BraDBF=F KetDBF=T FulRan=T
         wScrn=  0.000000 ICntrl=       500 IOpCl=  0 I1Cent=   200000004 NGrid=           0
         NMat0=    1 NMatS0=      1 NMatT0=    0 NMatD0=    1 NMtDS0=    0 NMtDT0=    0
 Petite list used in FoFCou.
 Harris En= -111.843976163202    
 Leave Link  401 at Wed May  8 21:48:49 2019, MaxMem=   104857600 cpu:               7.8 elap:               0.3
 (Enter /opt/software/gaussian/g16.b01/l502.exe)
 Keep R1 ints in memory in canonical form, NReq=28740694.
 FoFCou: FMM=F IPFlag=           0 FMFlag=           0 FMFlg1=           0
         NFxFlg=           0 DoJE=F BraDBF=F KetDBF=F FulRan=T
         wScrn=  0.000000 ICntrl=       600 IOpCl=  0 I1Cent=           0 NGrid=           0
         NMat0=    1 NMatS0=   1275 NMatT0=    0 NMatD0=    1 NMtDS0=    0 NMtDT0=    0
 Symmetry not used in FoFCou.
 Two-electron integral symmetry not used.
 Closed shell SCF:
 Using DIIS extrapolation, IDIIS=  1040.
 NGot=   104857600 LenX=   104036840 LenY=   104033899
 Requested convergence on RMS density matrix=1.00D-08 within 128 cycles.
 Requested convergence on MAX density matrix=1.00D-06.
 Requested convergence on             energy=1.00D-06.
 No special actions if energy rises.

 Cycle   1  Pass 1  IDiag  1:
 Inv3:  Mode=1 IEnd=     1168128.
 Iteration    1 A*A^-1 deviation from unit magnitude is 2.66D-15 for    387.
 Iteration    1 A*A^-1 deviation from orthogonality  is 1.89D-15 for    456    208.
 Iteration    1 A^-1*A deviation from unit magnitude is 2.89D-15 for    374.
 Iteration    1 A^-1*A deviation from orthogonality  is 1.33D-15 for    445    284.
 E= -111.832245875546    
 DIIS: error= 1.20D-02 at cycle   1 NSaved=   1.
 NSaved= 1 IEnMin= 1 EnMin= -111.832245875546     IErMin= 1 ErrMin= 1.20D-02
 ErrMax= 1.20D-02  0.00D+00 EMaxC= 1.00D-01 BMatC= 1.16D-02 BMatP= 1.16D-02
 IDIUse=3 WtCom= 8.80D-01 WtEn= 1.20D-01
 Coeff-Com:  0.100D+01
 Coeff-En:   0.100D+01
 Coeff:      0.100D+01
 Recover alternate guess density for next cycle.
 RMSDP=4.74D-03 MaxDP=5.06D-02              OVMax= 0.00D+00

 Cycle   2  Pass 1  IDiag  1:
 E= -111.790146861120     Delta-E=        0.042099014426 Rises=F Damp=F
 Switch densities from cycles 1 and 2 for lowest energy.
 DIIS: error= 2.66D-02 at cycle   2 NSaved=   2.
 NSaved= 2 IEnMin= 1 EnMin= -111.832245875546     IErMin= 1 ErrMin= 1.20D-02
 ErrMax= 2.66D-02  0.00D+00 EMaxC= 1.00D+00 BMatC= 6.53D-02 BMatP= 1.16D-02
 IDIUse=1 WtCom= 1.00D+00 WtEn= 0.00D+00
 Coeff-Com:  0.892D+00 0.108D+00
 Coeff:      0.892D+00 0.108D+00
 Gap=     0.265 Goal=   None    Shift=    0.000
 RMSDP=3.74D-03 MaxDP=3.51D-02 DE= 4.21D-02 OVMax= 7.42D-02

 Cycle   3  Pass 1  IDiag  1:
 E= -111.844887633677     Delta-E=       -0.054740772557 Rises=F Damp=F
 DIIS: error= 7.49D-03 at cycle   3 NSaved=   3.
 NSaved= 3 IEnMin= 3 EnMin= -111.844887633677     IErMin= 3 ErrMin= 7.49D-03
 ErrMax= 7.49D-03  0.00D+00 EMaxC= 1.00D+00 BMatC= 4.73D-03 BMatP= 1.16D-02
 IDIUse=1 WtCom= 1.00D+00 WtEn= 0.00D+00
 Coeff-Com:  0.460D-01 0.191D+00 0.763D+00
 Coeff:      0.460D-01 0.191D+00 0.763D+00
 Gap=     0.273 Goal=   None    Shift=    0.000
 RMSDP=1.24D-03 MaxDP=1.72D-02 DE=-5.47D-02 OVMax= 1.75D-02

 Cycle   4  Pass 1  IDiag  1:
 E= -111.848958056475     Delta-E=       -0.004070422798 Rises=F Damp=F
 DIIS: error= 1.29D-03 at cycle   4 NSaved=   4.
 NSaved= 4 IEnMin= 4 EnMin= -111.848958056475     IErMin= 4 ErrMin= 1.29D-03
 ErrMax= 1.29D-03  0.00D+00 EMaxC= 1.00D+00 BMatC= 1.32D-04 BMatP= 4.73D-03
 IDIUse=1 WtCom= 1.00D+00 WtEn= 0.00D+00
 Coeff-Com: -0.202D-01 0.463D-01 0.231D+00 0.743D+00
 Coeff:     -0.202D-01 0.463D-01 0.231D+00 0.743D+00
 Gap=     0.273 Goal=   None    Shift=    0.000
 RMSDP=2.00D-04 MaxDP=2.73D-03 DE=-4.07D-03 OVMax= 3.38D-03

 Cycle   5  Pass 1  IDiag  1:
 E= -111.849051415559     Delta-E=       -0.000093359084 Rises=F Damp=F
 DIIS: error= 4.38D-04 at cycle   5 NSaved=   5.
 NSaved= 5 IEnMin= 5 EnMin= -111.849051415559     IErMin= 5 ErrMin= 4.38D-04
 ErrMax= 4.38D-04  0.00D+00 EMaxC= 1.00D+00 BMatC= 2.09D-05 BMatP= 1.32D-04
 IDIUse=1 WtCom= 1.00D+00 WtEn= 0.00D+00
 Coeff-Com: -0.919D-02 0.140D-01 0.770D-01 0.357D+00 0.561D+00
 Coeff:     -0.919D-02 0.140D-01 0.770D-01 0.357D+00 0.561D+00
 Gap=     0.273 Goal=   None    Shift=    0.000
 RMSDP=7.94D-05 MaxDP=1.05D-03 DE=-9.34D-05 OVMax= 1.28D-03

 Cycle   6  Pass 1  IDiag  1:
 E= -111.849066457651     Delta-E=       -0.000015042092 Rises=F Damp=F
 DIIS: error= 1.53D-04 at cycle   6 NSaved=   6.
 NSaved= 6 IEnMin= 6 EnMin= -111.849066457651     IErMin= 6 ErrMin= 1.53D-04
 ErrMax= 1.53D-04  0.00D+00 EMaxC= 1.00D+00 BMatC= 2.39D-06 BMatP= 2.09D-05
 IDIUse=1 WtCom= 1.00D+00 WtEn= 0.00D+00
 Coeff-Com: -0.886D-03 0.420D-04 0.917D-03 0.578D-01 0.280D+00 0.663D+00
 Coeff:     -0.886D-03 0.420D-04 0.917D-03 0.578D-01 0.280D+00 0.663D+00
 Gap=     0.273 Goal=   None    Shift=    0.000
 RMSDP=2.31D-05 MaxDP=2.96D-04 DE=-1.50D-05 OVMax= 3.56D-04

 Cycle   7  Pass 1  IDiag  1:
 E= -111.849068411187     Delta-E=       -0.000001953536 Rises=F Damp=F
 DIIS: error= 9.75D-06 at cycle   7 NSaved=   7.
 NSaved= 7 IEnMin= 7 EnMin= -111.849068411187     IErMin= 7 ErrMin= 9.75D-06
 ErrMax= 9.75D-06  0.00D+00 EMaxC= 1.00D+00 BMatC= 5.39D-09 BMatP= 2.39D-06
 IDIUse=1 WtCom= 1.00D+00 WtEn= 0.00D+00
 Coeff-Com:  0.311D-04-0.206D-03-0.120D-02 0.175D-02 0.348D-01 0.999D-01
 Coeff-Com:  0.865D+00
 Coeff:      0.311D-04-0.206D-03-0.120D-02 0.175D-02 0.348D-01 0.999D-01
 Coeff:      0.865D+00
 Gap=     0.273 Goal=   None    Shift=    0.000
 RMSDP=2.77D-06 MaxDP=3.19D-05 DE=-1.95D-06 OVMax= 5.28D-05

 Cycle   8  Pass 1  IDiag  1:
 E= -111.849068417733     Delta-E=       -0.000000006546 Rises=F Damp=F
 DIIS: error= 2.22D-06 at cycle   8 NSaved=   8.
 NSaved= 8 IEnMin= 8 EnMin= -111.849068417733     IErMin= 8 ErrMin= 2.22D-06
 ErrMax= 2.22D-06  0.00D+00 EMaxC= 1.00D+00 BMatC= 3.02D-10 BMatP= 5.39D-09
 IDIUse=1 WtCom= 1.00D+00 WtEn= 0.00D+00
 Coeff-Com:  0.318D-04-0.766D-05-0.266D-03-0.346D-02-0.963D-02-0.201D-01
 Coeff-Com:  0.124D+00 0.909D+00
 Coeff:      0.318D-04-0.766D-05-0.266D-03-0.346D-02-0.963D-02-0.201D-01
 Coeff:      0.124D+00 0.909D+00
 Gap=     0.273 Goal=   None    Shift=    0.000
 RMSDP=9.04D-07 MaxDP=9.06D-06 DE=-6.55D-09 OVMax= 1.86D-05

 Cycle   9  Pass 1  IDiag  1:
 E= -111.849068418198     Delta-E=       -0.000000000464 Rises=F Damp=F
 DIIS: error= 1.59D-07 at cycle   9 NSaved=   9.
 NSaved= 9 IEnMin= 9 EnMin= -111.849068418198     IErMin= 9 ErrMin= 1.59D-07
 ErrMax= 1.59D-07  0.00D+00 EMaxC= 1.00D+00 BMatC= 2.46D-12 BMatP= 3.02D-10
 IDIUse=1 WtCom= 1.00D+00 WtEn= 0.00D+00
 Coeff-Com:  0.112D-05 0.786D-06 0.106D-04-0.171D-03-0.718D-03-0.187D-02
 Coeff-Com: -0.129D-01 0.798D-02 0.101D+01
 Coeff:      0.112D-05 0.786D-06 0.106D-04-0.171D-03-0.718D-03-0.187D-02
 Coeff:     -0.129D-01 0.798D-02 0.101D+01
 Gap=     0.273 Goal=   None    Shift=    0.000
 RMSDP=8.42D-08 MaxDP=8.66D-07 DE=-4.64D-10 OVMax= 1.75D-06

 Cycle  10  Pass 1  IDiag  1:
 E= -111.849068418201     Delta-E=       -0.000000000004 Rises=F Damp=F
 DIIS: error= 1.83D-08 at cycle  10 NSaved=  10.
 NSaved=10 IEnMin=10 EnMin= -111.849068418201     IErMin=10 ErrMin= 1.83D-08
 ErrMax= 1.83D-08  0.00D+00 EMaxC= 1.00D+00 BMatC= 3.59D-14 BMatP= 2.46D-12
 IDIUse=1 WtCom= 1.00D+00 WtEn= 0.00D+00
 Coeff-Com: -0.452D-06 0.251D-06 0.673D-05 0.487D-04 0.147D-03 0.295D-03
 Coeff-Com: -0.298D-02-0.129D-01 0.111D+00 0.905D+00
 Coeff:     -0.452D-06 0.251D-06 0.673D-05 0.487D-04 0.147D-03 0.295D-03
 Coeff:     -0.298D-02-0.129D-01 0.111D+00 0.905D+00
 Gap=     0.273 Goal=   None    Shift=    0.000
 RMSDP=4.19D-09 MaxDP=4.18D-08 DE=-3.92D-12 OVMax= 6.48D-08

 Error on total polarization charges =  0.00401
 SCF Done:  E(RB3LYP) =  -111.849068418     A.U. after   10 cycles
            NFock= 10  Conv=0.42D-08     -V/T= 2.0129
 KE= 1.104274354877D+02 PE=-3.413796562490D+02 EE= 7.892102856234D+01
 Leave Link  502 at Wed May  8 21:48:50 2019, MaxMem=   104857600 cpu:              41.6 elap:               1.4
 (Enter /opt/software/gaussian/g16.b01/l701.exe)
 ... and contract with generalized density number  0.
 Compute integral first derivatives.
 R6Disp: Adding Grimme-D3 dispersion energy 1st derivatives to the gradient.
 PrsmSu:  requested number of processors reduced to:  30 ShMem   1 Linda.
 D1PCM: PCM CHGder 1st derivatives, ID1Alg=3 FixD1E=F DoIter=F DoCFld=F I1PDM=0.
 GePol: Maximum number of non-zero 1st derivatives   =     223
 CoulSu:  requested number of processors reduced to:  30 ShMem   1 Linda.
 CoulSu:  requested number of processors reduced to:  31 ShMem   1 Linda.
 Leave Link  701 at Wed May  8 21:48:50 2019, MaxMem=   104857600 cpu:              14.9 elap:               0.5
 (Enter /opt/software/gaussian/g16.b01/l702.exe)
 L702 exits ... SP integral derivatives will be done elsewhere.
 Leave Link  702 at Wed May  8 21:48:50 2019, MaxMem=   104857600 cpu:               0.6 elap:               0.0
 (Enter /opt/software/gaussian/g16.b01/l703.exe)
 Integral derivatives from FoFJK, PRISM(SPDF).
 Compute integral first derivatives, UseDBF=F ICtDFT=           0.
 Calling FoFJK, ICntrl=      2127 FMM=F ISym2X=0 I1Cent= 0 IOpClX= 0 NMat=1 NMatS=1 NMatT=0.
 FoFJK:  IHMeth= 1 ICntrl=    2127 DoSepK=F KAlg= 0 I1Cent=           0 FoldK=F
 IRaf=         0 NMat=       1 IRICut=       1 DoRegI=T DoRafI=F ISym2E= 0 IDoP0=0 IntGTp=1.
 FoFCou: FMM=F IPFlag=           0 FMFlag=      100000 FMFlg1=         800
         NFxFlg=           0 DoJE=F BraDBF=F KetDBF=F FulRan=T
         wScrn=  0.000000 ICntrl=      2127 IOpCl=  0 I1Cent=           0 NGrid=           0
         NMat0=    1 NMatS0=      1 NMatT0=    0 NMatD0=    1 NMtDS0=    0 NMtDT0=    0
 Symmetry not used in FoFCou.
 Leave Link  703 at Wed May  8 21:48:51 2019, MaxMem=   104857600 cpu:               8.8 elap:               0.3
 (Enter /opt/software/gaussian/g16.b01/l716.exe)
 Dipole        = 3.09076287D-02 6.30522090D-01 1.26622524D-02
 ***** Axes restored to original set *****
 -------------------------------------------------------------------
 Center     Atomic                   Forces (Hartrees/Bohr)
 Number     Number              X              Y              Z
 -------------------------------------------------------------------
      1        1           0.005449392   -0.018979295   -0.004593951
      2        7           0.049570463   -0.034612177    0.018434010
      3        1           0.008796003    0.015053521   -0.001974692
      4        7           0.037164375    0.048379422   -0.006144113
      5        1          -0.054586354   -0.049346716   -0.004649943
      6        1          -0.046393879    0.039505244   -0.001071311
 -------------------------------------------------------------------
 Cartesian Forces:  Max     0.054586354 RMS     0.031290788
 Leave Link  716 at Wed May  8 21:48:51 2019, MaxMem=   104857600 cpu:               1.6 elap:               0.1
 (Enter /opt/software/gaussian/g16.b01/l103.exe)

 GradGradGradGradGradGradGradGradGradGradGradGradGradGradGradGradGradGrad
 Berny optimization.
[...]
                                                                                               X                                     
 
 ***** Axes restored to original set *****
 -------------------------------------------------------------------
 Center     Atomic                   Forces (Hartrees/Bohr)
 Number     Number              X              Y              Z
 -------------------------------------------------------------------
      1        1          -0.000038079   -0.000008514    0.000008656
      2        7           0.000093074    0.000057751    0.000030577
      3        1          -0.000030554    0.000008753   -0.000025818
      4        7           0.000013889    0.000000332   -0.000003952
      5        1          -0.000013891    0.000008668   -0.000026711
      6        1          -0.000024440   -0.000066990    0.000017248
 -------------------------------------------------------------------
 Cartesian Forces:  Max     0.000093074 RMS     0.000035574
 Force constants in Cartesian coordinates: 
                1             2             3             4             5 
      1  0.526887D-01
      2 -0.140488D-02  0.929185D-01
      3 -0.742818D-01  0.106817D+00  0.397105D+00
      4  0.664995D-03 -0.546060D-03 -0.534651D-02  0.420785D+00
      5  0.120368D-02 -0.253439D-01  0.622663D-02 -0.102504D+00  0.434486D+00
      6 -0.853425D-02 -0.404624D-01  0.315299D-02  0.173732D+00  0.833969D-01
      7  0.542231D-03  0.129518D-02  0.558922D-03 -0.342009D-01  0.866285D-02
      8 -0.320802D-02 -0.824846D-02 -0.934145D-03 -0.567124D-04 -0.639334D-01
      9 -0.829764D-03 -0.663337D-03  0.246324D-02 -0.888541D-01 -0.934281D-01
     10 -0.430232D-01 -0.174198D-02  0.848019D-01 -0.722525D-01 -0.580070D-01
     11 -0.861068D-02 -0.617581D-01 -0.112982D+00  0.284085D-01 -0.209238D+00
     12  0.420453D-01 -0.722681D-01 -0.391993D+00 -0.219195D-02 -0.170799D-01
     13 -0.100872D-01  0.851713D-03 -0.550100D-02  0.303782D-02  0.230880D-02
     14  0.110949D-01  0.369946D-02 -0.304931D-03 -0.394705D-01 -0.296734D-01
     15  0.400345D-01  0.868542D-02 -0.111173D-01 -0.336856D-02  0.484014D-02
     16 -0.785475D-03  0.154603D-02 -0.231529D-03 -0.318035D+00  0.148336D+00
     17  0.924959D-03 -0.126756D-02  0.117808D-02  0.114169D+00 -0.106297D+00
     18  0.156593D-02 -0.210833D-02  0.388853D-03 -0.739710D-01  0.160443D-01
                6             7             8             9            10 
      6  0.536285D+00
      7 -0.383122D-01  0.462358D-01
      8 -0.633674D-01  0.569593D-02  0.914238D-01
      9 -0.398687D+00  0.775663D-01  0.903001D-01  0.405089D+00
     10 -0.908438D-03 -0.100582D-02 -0.276520D-02  0.637274D-02  0.480581D+00
     11 -0.149703D-01 -0.694358D-02 -0.241853D-01  0.472100D-02  0.886506D-01
     12 -0.783731D-01 -0.636844D-03 -0.413936D-01  0.366802D-02 -0.154860D+00
     13 -0.577142D-02 -0.124991D-02 -0.143854D-02  0.405159D-03 -0.373064D+00
     14  0.669117D-02 -0.976383D-03 -0.722909D-03  0.105723D-02 -0.566398D-01
     15  0.123218D-02 -0.206678D-02 -0.178996D-02  0.311818D-03  0.600455D-01
     16 -0.120206D+00 -0.103214D-01  0.177254D-02  0.533964D-02  0.876469D-02
     17  0.287119D-01 -0.773399D-02  0.566624D-02 -0.198697D-02  0.305035D-01
     18 -0.636099D-01 -0.371094D-01  0.171850D-01 -0.128446D-01  0.454863D-02
               11            12            13            14            15 
     11  0.391906D+00
     12  0.124645D+00  0.519008D+00
     13 -0.903555D-01  0.108110D+00  0.376344D+00
     14 -0.607294D-01 -0.972291D-03  0.875340D-01  0.843867D-01
     15 -0.504959D-02 -0.541051D-01 -0.960782D-01 -0.658222D-02  0.638076D-01
     16 -0.111494D-01  0.753427D-02  0.501920D-02 -0.154231D-02  0.143342D-02
     17 -0.359955D-01  0.706869D-02  0.109946D-02  0.303951D-02 -0.103793D-03
     18  0.363593D-02  0.179522D-02 -0.116414D-02  0.111040D-03 -0.129273D-03
               16            17            18 
     16  0.315358D+00
     17 -0.138963D+00  0.134855D+00
     18  0.106130D+00 -0.348679D-01  0.743997D-01
 FormGI is forming the generalized inverse of G from B-inverse, IUseBI=4.
 Force constants in internal coordinates: 
                1             2             3             4             5 
      1  0.443420D+00
      2 -0.156402D-02  0.443465D+00
      3  0.428381D-02  0.428178D-02  0.335629D+00
      4 -0.104478D-03 -0.460389D-03  0.625999D-02  0.424877D+00
      5 -0.454530D-03 -0.104730D-03  0.625227D-02  0.223629D-02  0.424817D+00
      6  0.543780D-02  0.288055D-02  0.559594D-01  0.264519D-02  0.263916D-02
      7 -0.161850D-02  0.112150D-01 -0.238322D-01  0.130242D-01  0.273670D-03
      8 -0.191472D-02  0.221994D-02  0.498707D-01 -0.390818D-02 -0.613743D-02
      9  0.287754D-02  0.543579D-02  0.559460D-01  0.264169D-02  0.264005D-02
     10  0.112135D-01 -0.161868D-02 -0.238377D-01  0.275316D-03  0.130235D-01
     11  0.221614D-02 -0.191674D-02  0.497950D-01 -0.614080D-02 -0.390496D-02
     12 -0.789287D-02 -0.789240D-02 -0.273790D-01 -0.817811D-02 -0.817957D-02
     13  0.802652D-02 -0.774665D-02  0.128389D-03 -0.943766D-02  0.670846D-02
     14 -0.774749D-02  0.802551D-02  0.128698D-03  0.670707D-02 -0.944053D-02
     15  0.817189D-02  0.817127D-02  0.276361D-01  0.544751D-02  0.544750D-02
                6             7             8             9            10 
      6  0.177612D+00
      7 -0.532888D-01  0.609061D-01
      8 -0.331332D-01 -0.500112D-01  0.184671D+00
      9  0.184635D-01 -0.881234D-02  0.798638D-04  0.177536D+00
     10 -0.881703D-02  0.191332D-02  0.253222D-02 -0.533110D-01  0.609303D-01
     11  0.686485D-04  0.253460D-02 -0.307749D-02 -0.331808D-01 -0.500036D-01
     12 -0.928735D-02 -0.810918D-02 -0.770648D-02 -0.928936D-02 -0.810240D-02
     13 -0.944529D-02 -0.946810D-02 -0.620101D-02  0.953712D-02  0.950416D-02
     14  0.953162D-02  0.951385D-02  0.652005D-02 -0.944666D-02 -0.946027D-02
     15  0.937368D-02  0.815492D-02  0.802552D-02  0.937982D-02  0.814629D-02
               11            12            13            14            15 
     11  0.184574D+00
     12 -0.768421D-02  0.196337D-01
     13  0.650356D-02  0.112746D-02  0.208390D-01
     14 -0.618192D-02  0.112198D-02 -0.183282D-01  0.208374D-01
     15  0.800586D-02 -0.173843D-01  0.138328D-02  0.138718D-02  0.201547D-01
 Leave Link  716 at Wed May  8 21:49:14 2019, MaxMem=   104857600 cpu:               2.8 elap:               0.1
 (Enter /opt/software/gaussian/g16.b01/l103.exe)

 GradGradGradGradGradGradGradGradGradGradGradGradGradGradGradGradGradGrad
 Berny optimization.
 Red2BG is reusing G-inverse.
 Internal  Forces:  Max     0.000131364 RMS     0.000040474
 Search for a local minimum.
 Step number   1 out of a maximum of    2
 All quantities printed in internal units (Hartrees-Bohrs-Radians)
 Second derivative matrix not updated -- analytic derivatives used.
 The second derivative matrix:
                          R1        R2        R3        R4        R5
           R1           0.44342
           R2          -0.00156   0.44346
           R3           0.00428   0.00428   0.33563
           R4          -0.00010  -0.00046   0.00626   0.42488
           R5          -0.00045  -0.00010   0.00625   0.00224   0.42482
           A1           0.00544   0.00288   0.05596   0.00265   0.00264
           A2          -0.00162   0.01121  -0.02383   0.01302   0.00027
           A3          -0.00191   0.00222   0.04987  -0.00391  -0.00614
           A4           0.00288   0.00544   0.05595   0.00264   0.00264
           A5           0.01121  -0.00162  -0.02384   0.00028   0.01302
           A6           0.00222  -0.00192   0.04979  -0.00614  -0.00390
           D1          -0.00789  -0.00789  -0.02738  -0.00818  -0.00818
           D2           0.00803  -0.00775   0.00013  -0.00944   0.00671
           D3          -0.00775   0.00803   0.00013   0.00671  -0.00944
           D4           0.00817   0.00817   0.02764   0.00545   0.00545
                          A1        A2        A3        A4        A5
           A1           0.17761
           A2          -0.05329   0.06091
           A3          -0.03313  -0.05001   0.18467
           A4           0.01846  -0.00881   0.00008   0.17754
           A5          -0.00882   0.00191   0.00253  -0.05331   0.06093
           A6           0.00007   0.00253  -0.00308  -0.03318  -0.05000
           D1          -0.00929  -0.00811  -0.00771  -0.00929  -0.00810
           D2          -0.00945  -0.00947  -0.00620   0.00954   0.00950
           D3           0.00953   0.00951   0.00652  -0.00945  -0.00946
           D4           0.00937   0.00815   0.00803   0.00938   0.00815
                          A6        D1        D2        D3        D4
           A6           0.18457
           D1          -0.00768   0.01963
           D2           0.00650   0.00113   0.02084
           D3          -0.00618   0.00112  -0.01833   0.02084
           D4           0.00801  -0.01738   0.00138   0.00139   0.02015
 ITU=  0
     Eigenvalues ---    0.00498   0.04697   0.05594   0.13962   0.17326
     Eigenvalues ---    0.21344   0.22162   0.39955   0.42377   0.42980
     Eigenvalues ---    0.44476   0.44620
 Angle between quadratic step and forces=  51.02 degrees.
 Linear search not attempted -- first point.
 Iteration  1 RMS(Cart)=  0.00050681 RMS(Int)=  0.00000028
 Iteration  2 RMS(Cart)=  0.00000024 RMS(Int)=  0.00000012
 ITry= 1 IFail=0 DXMaxC= 1.11D-03 DCOld= 1.00D+10 DXMaxT= 3.00D-01 DXLimC= 3.00D+00 Rises=F
 Variable       Old X    -DE/DX   Delta X   Delta X   Delta X     New X
                                 (Linear)    (Quad)   (Total)
    R1        1.92257   0.00001   0.00000  -0.00001  -0.00001   1.92256
    R2        1.92254   0.00003   0.00000   0.00002   0.00002   1.92256
    R3        2.73238  -0.00000   0.00000  -0.00031  -0.00031   2.73208
    R4        1.93065   0.00001   0.00000  -0.00000  -0.00000   1.93065
    R5        1.93069  -0.00000   0.00000  -0.00004  -0.00004   1.93065
    A1        1.85610  -0.00003   0.00000   0.00013   0.00013   1.85623
    A2        1.84487  -0.00000   0.00000   0.00038   0.00038   1.84525
    A3        1.93517   0.00013   0.00000   0.00084   0.00084   1.93601
    A4        1.85612  -0.00002   0.00000   0.00012   0.00012   1.85623
    A5        1.84478   0.00003   0.00000   0.00047   0.00047   1.84525
    A6        1.93569   0.00003   0.00000   0.00033   0.00033   1.93602
    D1        2.82282  -0.00004   0.00000  -0.00150  -0.00150   2.82132
    D2       -1.46285  -0.00001   0.00000  -0.00071  -0.00071  -1.46356
    D3       -1.46300   0.00000   0.00000  -0.00056  -0.00056  -1.46356
    D4        0.53451   0.00004   0.00000   0.00022   0.00023   0.53474
         Item               Value     Threshold  Converged?
 Maximum Force            0.000131     0.000450     YES
 RMS     Force            0.000040     0.000300     YES
 Maximum Displacement     0.001112     0.001800     YES
 RMS     Displacement     0.000507     0.001200     YES
 Predicted change in Energy=-1.036479D-07
 Optimization completed.
    -- Stationary point found.
                           ----------------------------
                           !   Optimized Parameters   !
                           ! (Angstroms and Degrees)  !
 --------------------------                            --------------------------
 ! Name  Definition              Value          Derivative Info.                !
 --------------------------------------------------------------------------------
 ! R1    R(1,4)                  1.0174         -DE/DX =    0.0                 !
 ! R2    R(2,3)                  1.0174         -DE/DX =    0.0                 !
 ! R3    R(2,4)                  1.4459         -DE/DX =    0.0                 !
 ! R4    R(2,6)                  1.0217         -DE/DX =    0.0                 !
 ! R5    R(4,5)                  1.0217         -DE/DX =    0.0                 !
 ! A1    A(3,2,4)              106.3468         -DE/DX =    0.0                 !
 ! A2    A(3,2,6)              105.7035         -DE/DX =    0.0                 !
 ! A3    A(4,2,6)              110.8773         -DE/DX =    0.0001              !
 ! A4    A(1,4,2)              106.3476         -DE/DX =    0.0                 !
 ! A5    A(1,4,5)              105.698          -DE/DX =    0.0                 !
 ! A6    A(2,4,5)              110.9066         -DE/DX =    0.0                 !
 ! D1    D(3,2,4,1)            161.7355         -DE/DX =    0.0                 !
 ! D2    D(3,2,4,5)            -83.8154         -DE/DX =    0.0                 !
 ! D3    D(6,2,4,1)            -83.8238         -DE/DX =    0.0                 !
 ! D4    D(6,2,4,5)             30.6253         -DE/DX =    0.0                 !
 --------------------------------------------------------------------------------
 GradGradGradGradGradGradGradGradGradGradGradGradGradGradGradGradGradGrad

 Leave Link  103 at Wed May  8 21:49:14 2019, MaxMem=   104857600 cpu:               1.9 elap:               0.1
 (Enter /opt/software/gaussian/g16.b01/l9999.exe)

 ----------------------------------------------------------------------

 Electric dipole moment (input orientation):
 (Debye = 10**-18 statcoulomb cm , SI units = C m)
                  (au)            (Debye)         (10**-30 SI)
   Tot        0.104267D+01      0.265020D+01      0.884010D+01
   x          0.103609D+01      0.263347D+01      0.878430D+01
   y         -0.113811D+00     -0.289280D+00     -0.964933D+00
   z          0.269722D-01      0.685564D-01      0.228680D+00

 Dipole polarizability, Alpha (input orientation).
 (esu units = cm**3 , SI units = C**2 m**2 J**-1)
 Alpha(0;0):
               (au)            (10**-24 esu)      (10**-40 SI)
   iso        0.177532D+02      0.263075D+01      0.292710D+01
   aniso      0.690643D+01      0.102343D+01      0.113872D+01
   xx         0.153553D+02      0.227541D+01      0.253174D+01
   yx         0.588833D+00      0.872560D-01      0.970854D-01
   yy         0.212174D+02      0.314410D+01      0.349828D+01
   zx         0.234024D+00      0.346788D-01      0.385853D-01
   zy         0.246050D+01      0.364608D+00      0.405681D+00
   zz         0.166868D+02      0.247273D+01      0.275128D+01

 ----------------------------------------------------------------------

 Dipole orientation:
     1         -1.81766697          1.72071487         -9.40207824
     7         -0.32436823         -1.71495048         -9.10946941
     1          1.43561371         -2.43117690         -9.40213562
     7         -0.05773834          1.00439082         -9.10914334
     1          0.48343792          1.64338157         -7.36949396
     1         -0.86569602         -2.35340332         -7.36971361

 Electric dipole moment (dipole orientation):
 (Debye = 10**-18 statcoulomb cm , SI units = C m)
                  (au)            (Debye)         (10**-30 SI)
   Tot        0.104267D+01      0.265020D+01      0.884010D+01
   x          0.000000D+00      0.000000D+00      0.000000D+00
   y          0.000000D+00      0.000000D+00      0.000000D+00
   z          0.104267D+01      0.265020D+01      0.884010D+01

 Dipole polarizability, Alpha (dipole orientation).
 (esu units = cm**3 , SI units = C**2 m**2 J**-1)
 Alpha(0;0):
               (au)            (10**-24 esu)      (10**-40 SI)
   iso        0.177532D+02      0.263075D+01      0.292710D+01
   aniso      0.690643D+01      0.102343D+01      0.113872D+01
   xx         0.162058D+02      0.240145D+01      0.267197D+01
   yx        -0.191522D+01     -0.283807D+00     -0.315777D+00
   yy         0.217573D+02      0.322410D+01      0.358729D+01
   zx         0.329186D-03      0.487804D-04      0.542755D-04
   zy         0.245533D-02      0.363842D-03      0.404829D-03
   zz         0.152964D+02      0.226669D+01      0.252203D+01

 ----------------------------------------------------------------------
 1\1\GINC-GRA425\Freq\RB3LYP\6-31G(d,p)\H4N2\RZK\08-May-2019\0\\#P Geom
 =AllCheck Guess=TCheck SCRF=Check GenChk RB3LYP/6-31G(d,p) Freq\\Title
  Card Required\\0,1\H,-4.8837413891,1.341370818,0.9264835155\N,-4.8924
 825607,-0.3889411916,-0.0531933241\H,-5.0515409944,-0.6481741678,-1.02
 40340739\N,-4.7348755303,1.0482583884,-0.0363185508\H,-3.7736175764,1.
 3122639202,-0.2601657843\H,-4.0241129491,-0.8536507673,0.2183942176\\V
 ersion=ES64L-G16RevB.01\State=1-A\HF=-111.8773729\RMSD=3.049e-10\RMSF=
 3.557e-05\ZeroPoint=0.0534074\Thermal=0.0566797\Dipole=1.036086,-0.113
 8114,0.0269722\DipoleDeriv=0.2565765,-0.1036853,-0.0143119,-0.0525109,
 0.1653015,-0.0211239,0.0567965,-0.1024651,0.0101813,-0.3077005,-0.0264
 163,0.1734097,-0.2046647,-0.1737904,0.0297741,0.1945286,0.143924,-0.25
 20989,0.288185,0.0814712,0.0233017,0.0265982,0.1359113,-0.0230868,-0.0
 63469,-0.084313,0.0080159,-0.2359227,0.0335197,-0.1622543,0.2176272,-0
 .2277114,0.0779131,-0.1590713,0.1846474,-0.2702343,-0.0294423,-0.15663
 99,0.0944201,-0.0543517,0.0751675,-0.0448847,0.0263864,-0.0797449,0.25
 58802,0.0283041,0.1717506,-0.1145653,0.0673019,0.0251215,-0.0185918,-0
 .0551713,-0.0620483,0.2482558\Polar=15.355259,0.5888325,21.2174149,0.2
 34024,2.4604954,16.6867832\Quadrupole=-0.3271211,-0.2573483,0.5844694,
 -0.0452984,0.1962548,1.9989805\PG=C01 [X(H4N2)]\NImag=0\\0.05268869,-0
 .00140488,0.09291849,-0.07428178,0.10681669,0.39710517,0.00066499,-0.0
 0054606,-0.00534651,0.42078548,0.00120368,-0.02534386,0.00622663,-0.10
 250394,0.43448602,-0.00853425,-0.04046236,0.00315299,0.17373207,0.0833
 9694,0.53628497,0.00054223,0.00129518,0.00055892,-0.03420091,0.0086628
 5,-0.03831223,0.04623584,-0.00320802,-0.00824846,-0.00093415,-0.000056
 71,-0.06393335,-0.06336735,0.00569593,0.09142375,-0.00082976,-0.000663
 34,0.00246324,-0.08885409,-0.09342807,-0.39868716,0.07756631,0.0903001
 5,0.40508872,-0.04302322,-0.00174198,0.08480189,-0.07225250,-0.0580070
 5,-0.00090844,-0.00100582,-0.00276520,0.00637274,0.48058080,-0.0086106
 8,-0.06175807,-0.11298233,0.02840851,-0.20923811,-0.01497028,-0.006943
 58,-0.02418527,0.00472100,0.08865056,0.39190634,0.04204532,-0.07226808
 ,-0.39199296,-0.00219195,-0.01707993,-0.07837312,-0.00063684,-0.041393
 65,0.00366802,-0.15486036,0.12464526,0.51900790,-0.01008722,0.00085171
 ,-0.00550100,0.00303782,0.00230880,-0.00577142,-0.00124991,-0.00143854
 ,0.00040516,-0.37306396,-0.09035546,0.10810956,0.37634407,0.01109494,0
 .00369946,-0.00030493,-0.03947049,-0.02967343,0.00669117,-0.00097638,-
 0.00072291,0.00105723,-0.05663978,-0.06072935,-0.00097229,0.08753403,0
 .08438672,0.04003454,0.00868542,-0.01111730,-0.00336856,0.00484014,0.0
 0123218,-0.00206678,-0.00178996,0.00031182,0.06004554,-0.00504959,-0.0
 5410505,-0.09607816,-0.00658222,0.06380763,-0.00078548,0.00154603,-0.0
 0023153,-0.31803488,0.14833566,-0.12020573,-0.01032143,0.00177254,0.00
 533964,0.00876469,-0.01114935,0.00753427,0.00501920,-0.00154231,0.0014
 3342,0.31535788,0.00092496,-0.00126756,0.00117808,0.11416869,-0.106297
 27,0.02871188,-0.00773399,0.00566624,-0.00198697,0.03050345,-0.0359955
 3,0.00706869,0.00109946,0.00303951,-0.00010379,-0.13896257,0.13485460,
 0.00156593,-0.00210833,0.00038885,-0.07397096,0.01604430,-0.06360987,-
 0.03710938,0.01718495,-0.01284463,0.00454863,0.00363593,0.00179522,-0.
 00116414,0.00011104,-0.00012927,0.10612992,-0.03486789,0.07439970\\0.0
 0003808,0.00000851,-0.00000866,-0.00009307,-0.00005775,-0.00003058,0.0
 0003055,-0.00000875,0.00002582,-0.00001389,-0.00000033,0.00000395,0.00
 001389,-0.00000867,0.00002671,0.00002444,0.00006699,-0.00001725\\\@


 SLITHERY-DITHERY
 FRIEDRICH A. KEKULE
 DREAMT ON A BUS OF THINGS
 FREUD WOULD THINK KEEN.
 MOST OF THE TIME THEY WERE
 HERPETOLOGICAL
 BITING THEIR TAILS IN THE
 SHAPE OF BENZENE.
 Job cpu time:       0 days  0 hours  3 minutes 31.6 seconds.
 Elapsed time:       0 days  0 hours  0 minutes  7.4 seconds.
 File lengths (MBytes):  RWF=     21 Int=      0 D2E=      0 Chk=      4 Scr=      1
 Normal termination of Gaussian 16 at Wed May  8 21:49:15 2019.
